<event>
12    1  0.8421768E-002  0.2187665E+03  0.7818608E-02  0.1134917E+00
         21   -1    0    0  501  502  0.00000000000E+00  0.00000000000E+00  0.67076705921E+03  0.67076705921E+03  0.00000000000E+00 0.  1.
         21   -1    0    0  502  503 -0.00000000000E+00 -0.00000000000E+00 -0.73890266484E+02  0.73890266484E+02  0.00000000000E+00 0. -1.
         -6    2    1    2    0  503  0.12779661180E+03 -0.42848773770E+02  0.36965667925E+03  0.42924054554E+03  0.17156163331E+03 0.  0.
        -24    2    3    3    0    0  0.16890563143E+02 -0.66063234750E+02  0.15878695626E+03  0.18980956822E+03  0.78515811155E+02 0.  0.
          6    2    1    2  501    0 -0.12779661180E+03  0.42848773770E+02  0.22722011348E+03  0.31541678015E+03  0.17231010950E+03 0.  0.
         24    2    5    5    0    0 -0.24630456810E+02  0.14421463964E+01  0.25971921063E+02  0.85458763824E+02  0.77588146270E+02 0.  0.
          5    1    5    5  501    0 -0.10316615498E+03  0.41406627373E+02  0.20124819241E+03  0.22995801633E+03  0.47000000000E+01 0. -1.
        -13    1    6    6    0    0 -0.48486008358E+02 -0.16426537356E+02  0.12207734968E+02  0.52628442206E+02  0.00000000000E+00 0.  1.
         14    1    6    6    0    0  0.23855551547E+02  0.17868683752E+02  0.13764186095E+02  0.32830321618E+02  0.00000000000E+00 0. -1.
         -5    1    3    3    0  503  0.11090604865E+03  0.23214460980E+02  0.21086972299E+03  0.23943097732E+03  0.47000000000E+01 0.  1.
         13    1    4    4    0    0  0.27238303261E+02 -0.81204898823E+02  0.13045514910E+03  0.15605994580E+03  0.00000000000E+00 0. -1.
        -14    1    4    4    0    0 -0.10347740118E+02  0.15141664073E+02  0.28331807155E+02  0.33749622414E+02  0.00000000000E+00 0.  1.
</event>
<event>
12    1  0.8421768E-002  0.1726720E+03  0.7818608E-02  0.1175303E+00
         21   -1    0    0  503  502  0.00000000000E+00  0.00000000000E+00  0.84708363841E+03  0.84708363841E+03  0.00000000000E+00 0. -1.
         21   -1    0    0  501  503 -0.00000000000E+00 -0.00000000000E+00 -0.64643034021E+02  0.64643034021E+02  0.00000000000E+00 0. -1.
          6    2    1    2  501    0  0.10703739447E+02 -0.92013086909E+01  0.69925773119E+03  0.72006288443E+03  0.17125988668E+03 0.  0.
         24    2    3    3    0    0 -0.87030646295E+01  0.40976696915E+02  0.22408764062E+03  0.24183369119E+03  0.80705826890E+02 0.  0.
         -6    2    1    2    0  502 -0.10703739447E+02  0.92013086909E+01  0.83182873199E+02  0.19166378800E+03  0.17209411122E+03 0.  0.
        -24    2    5    5    0    0 -0.52804393094E+02  0.53825311848E+02  0.39741683925E+02  0.11634451012E+03  0.79190753677E+02 0.  0.
          5    1    3    3  501    0  0.19406804077E+02 -0.50178005606E+02  0.47517009057E+03  0.47822919323E+03  0.47000000000E+01 0. -1.
        -11    1    4    4    0    0 -0.29854136178E+02  0.41881167426E+02  0.21046676393E+03  0.21666001096E+03  0.00000000000E+00 0.  1.
         12    1    4    4    0    0  0.21151071549E+02 -0.90447051052E+00  0.13620876691E+02  0.25173680231E+02  0.00000000000E+00 0. -1.
         -5    1    5    5    0  502  0.42100653647E+02 -0.44624003157E+02  0.43441189274E+02  0.75319277882E+02  0.47000000000E+01 0.  1.
         13    1    6    6    0    0 -0.60742185048E+02  0.11071419715E+02  0.74699549746E+01  0.62193163662E+02  0.00000000000E+00 0. -1.
        -14    1    6    6    0    0  0.79377919544E+01  0.42753892133E+02  0.32271728951E+02  0.54151346457E+02  0.00000000000E+00 0.  1.
</event>
<event>
12    1  0.8421768E-002  0.2666011E+03  0.7818608E-02  0.1103380E+00
         21   -1    0    0  503  502  0.00000000000E+00  0.00000000000E+00  0.10574977043E+03  0.10574977043E+03  0.00000000000E+00 0.  1.
         21   -1    0    0  501  503 -0.00000000000E+00 -0.00000000000E+00 -0.67070875152E+03  0.67070875152E+03  0.00000000000E+00 0. -1.
          6    2    1    2  501    0  0.11621554901E+03 -0.16736302870E+03 -0.26795499563E+03  0.37798942002E+03  0.17192930163E+03 0.  0.
         24    2    3    3    0    0  0.94329307526E+02 -0.11314068887E+03 -0.27184994641E+03  0.31919885663E+03  0.79288605590E+02 0.  0.
         -6    2    1    2    0  502 -0.11621554901E+03  0.16736302870E+03 -0.29700398546E+03  0.39846910194E+03  0.17044007925E+03 0.  0.
        -24    2    5    5    0    0 -0.18295407628E+02  0.14163310523E+03 -0.18571574177E+03  0.24794486391E+03  0.81189040906E+02 0.  0.
          5    1    3    3  501    0  0.21886241480E+02 -0.54222339827E+02  0.38949507740E+01  0.58790563393E+02  0.47000000000E+01 0. -1.
        -11    1    4    4    0    0  0.28384054325E+02 -0.37214025333E+02 -0.25919826572E+02  0.53501174108E+02  0.00000000000E+00 0.  1.
         12    1    4    4    0    0  0.65945253201E+02 -0.75926663536E+02 -0.24593011983E+03  0.26569768252E+03  0.00000000000E+00 0. -1.
         -5    1    5    5    0  502 -0.97920141379E+02  0.25729923468E+02 -0.11128824369E+03  0.15052423803E+03  0.47000000000E+01 0.  1.
         13    1    6    6    0    0 -0.38294670784E+02  0.13188370144E+03 -0.17704928125E+03  0.22406749096E+03  0.00000000000E+00 0. -1.
        -14    1    6    6    0    0  0.19999263155E+02  0.97494037926E+01 -0.86664605157E+01  0.23877372949E+02  0.00000000000E+00 0.  1.
</event>
<event>
12    1  0.8421768E-002  0.1749763E+03  0.7818608E-02  0.1173048E+00
         21   -1    0    0  503  502  0.00000000000E+00  0.00000000000E+00  0.24467051661E+03  0.24467051661E+03  0.00000000000E+00 0. -1.
         21   -1    0    0  501  503 -0.00000000000E+00 -0.00000000000E+00 -0.13949577142E+03  0.13949577142E+03  0.00000000000E+00 0. -1.
          6    2    1    2  501    0 -0.17524441919E+02 -0.20363898940E+02 -0.10642284667E+02  0.17529966753E+03  0.17290147706E+03 0.  0.
         24    2    3    3    0    0 -0.39621675416E+02 -0.53291142597E+02 -0.50381922402E+02  0.11896300176E+03  0.84876584758E+02 0.  0.
         -6    2    1    2    0  502  0.17524441919E+02  0.20363898940E+02  0.11581702986E+03  0.20886662051E+03  0.17172619576E+03 0.  0.
        -24    2    5    5    0    0  0.75996105312E+02  0.28256129695E+02  0.71856945626E+02  0.13513873072E+03  0.80778951579E+02 0.  0.
          5    1    3    3  501    0  0.22097233497E+02  0.32927243657E+02  0.39739637735E+02  0.56336665772E+02  0.47000000000E+01 0. -1.
        -11    1    4    4    0    0 -0.48080642533E+02 -0.34323218383E+02  0.55157637838E+01  0.59331738190E+02  0.00000000000E+00 0.  1.
         12    1    4    4    0    0  0.84589671175E+01 -0.18967924214E+02 -0.55897686185E+02  0.59631263567E+02  0.00000000000E+00 0. -1.
         -5    1    5    5    0  502 -0.58471663393E+02 -0.78922307542E+01  0.43960084235E+02  0.73727889786E+02  0.47000000000E+01 0.  1.
         13    1    6    6    0    0  0.44342840713E+02 -0.25798330520E+02  0.26048932090E+02  0.57535973470E+02  0.00000000000E+00 0. -1.
        -14    1    6    6    0    0  0.31653264600E+02  0.54054460215E+02  0.45808013536E+02  0.77602757251E+02  0.00000000000E+00 0.  1.
</event>
<event>
12    1  0.8421768E-002  0.1824189E+03  0.7818608E-02  0.1165780E+00
         21   -1    0    0  503  502  0.00000000000E+00  0.00000000000E+00  0.96725824360E+03  0.96725824360E+03  0.00000000000E+00 0. -1.
         21   -1    0    0  501  503 -0.00000000000E+00 -0.00000000000E+00 -0.65944328865E+02  0.65944328865E+02  0.00000000000E+00 0. -1.
          6    2    1    2  501    0  0.46360403597E+02 -0.36866171542E+02  0.92853215742E+02  0.20469095645E+03  0.17253482649E+03 0.  0.
         24    2    3    3    0    0  0.50376397445E+02 -0.15112434186E+02  0.12996161433E+03  0.16123435118E+03  0.79626174801E+02 0.  0.
         -6    2    1    2    0  502 -0.46360403597E+02  0.36866171542E+02  0.80846069899E+03  0.82851161602E+03  0.17121446913E+03 0.  0.
        -24    2    5    5    0    0  0.35640523278E+02 -0.11086322202E+02  0.51504992713E+03  0.52007107927E+03  0.61679385687E+02 0.  0.
          5    1    3    3  501    0 -0.40159938487E+01 -0.21753737355E+02 -0.37108398589E+02  0.43456605268E+02  0.47000000000E+01 0. -1.
        -13    1    4    4    0    0  0.58944555653E+02  0.16804895099E+02  0.95586685516E+02  0.11355033945E+03  0.00000000000E+00 0.  1.
         14    1    4    4    0    0 -0.85681582077E+01 -0.31917329285E+02  0.34374928816E+02  0.47684011732E+02  0.00000000000E+00 0. -1.
         -5    1    5    5    0  502 -0.82000926875E+02  0.47952493744E+02  0.29341077186E+03  0.30844053675E+03  0.47000000000E+01 0.  1.
         11    1    6    6    0    0 -0.12494055857E+02 -0.19545927101E+02  0.15964874377E+03  0.16132534235E+03  0.00000000000E+00 0. -1.
        -12    1    6    6    0    0  0.48134579135E+02  0.84596048991E+01  0.35540118336E+03  0.35874573692E+03  0.00000000000E+00 0.  1.
</event>
<event>
12    1  0.8421768E-002  0.2231072E+03  0.7818608E-02  0.1131821E+00
         21   -1    0    0  501  502  0.00000000000E+00  0.00000000000E+00  0.46087387793E+03  0.46087387793E+03  0.00000000000E+00 0. -1.
         21   -1    0    0  502  503 -0.00000000000E+00 -0.00000000000E+00 -0.12628603896E+03  0.12628603896E+03  0.00000000000E+00 0.  1.
         -6    2    1    2    0  503  0.10890443286E+03 -0.86676104668E+02  0.53329753121E+02  0.22815719745E+03  0.17273888260E+03 0.  0.
        -24    2    3    3    0    0  0.13871278784E+03 -0.60311074506E+02  0.17571314924E+02  0.17445050564E+03  0.85120882244E+02 0.  0.
          6    2    1    2  501    0 -0.10890443286E+03  0.86676104668E+02  0.28125808585E+03  0.35900271944E+03  0.17436719616E+03 0.  0.
         24    2    5    5    0    0 -0.10356378324E+03  0.11840749718E+02  0.16336207042E+03  0.21917992680E+03  0.10240612143E+03 0.  0.
          5    1    5    5  501    0 -0.53406496212E+01  0.74835354950E+02  0.11789601543E+03  0.13982279264E+03  0.47000000000E+01 0. -1.
        -11    1    6    6    0    0 -0.27212723191E+02  0.12921774184E+02 -0.83454338522E+01  0.31259411667E+02  0.00000000000E+00 0.  1.
         12    1    6    6    0    0 -0.76351060045E+02 -0.10810244658E+01  0.17170750427E+03  0.18792051513E+03  0.00000000000E+00 0. -1.
         -5    1    3    3    0  503 -0.29808354980E+02 -0.26365030162E+02  0.35758438196E+02  0.53706691802E+02  0.47000000000E+01 0.  1.
         13    1    4    4    0    0  0.10989264408E+03 -0.34322299996E+02  0.48400325265E+02  0.12488796974E+03  0.00000000000E+00 0. -1.
        -14    1    4    4    0    0  0.28820143756E+02 -0.25988774509E+02 -0.30829010341E+02  0.49562535904E+02  0.00000000000E+00 0.  1.
</event>
<event>
12    1  0.8421768E-002  0.1763314E+03  0.7818608E-02  0.1171420E+00
         21   -1    0    0  501  502  0.00000000000E+00  0.00000000000E+00  0.46706202590E+03  0.46706202590E+03  0.00000000000E+00 0. -1.
         21   -1    0    0  502  503 -0.00000000000E+00 -0.00000000000E+00 -0.74158438323E+02  0.74158438323E+02  0.00000000000E+00 0. -1.
         -6    2    1    2    0  503 -0.10023065122E+01  0.35698012747E+02  0.10969591258E+03  0.20760489111E+03  0.17260140453E+03 0.  0.
        -24    2    3    3    0    0  0.63095772968E+02  0.44442297304E+02  0.67637938297E+02  0.13030036662E+03  0.80293838427E+02 0.  0.
          6    2    1    2  501    0  0.10023065122E+01 -0.35698012747E+02  0.28320767499E+03  0.33361557311E+03  0.17267718643E+03 0.  0.
         24    2    5    5    0    0 -0.53087969056E+02  0.16353784607E+02  0.12322302110E+03  0.15683229618E+03  0.79540414052E+02 0.  0.
          5    1    5    5  501    0  0.54090275568E+02 -0.52051797355E+02  0.15998465390E+03  0.17678327693E+03  0.47000000000E+01 0. -1.
        -13    1    6    6    0    0 -0.66222712481E+02 -0.17532832261E+00  0.11763266864E+03  0.13499230764E+03  0.00000000000E+00 0.  1.
         14    1    6    6    0    0  0.13134743425E+02  0.16529112930E+02  0.55903524517E+01  0.21839988545E+02  0.00000000000E+00 0. -1.
         -5    1    3    3    0  503 -0.64098079480E+02 -0.87442845571E+01  0.42057974288E+02  0.77304524490E+02  0.47000000000E+01 0.  1.
         11    1    4    4    0    0 -0.12398332586E+02 -0.21047183509E+01 -0.69915689068E+01  0.14388555383E+02  0.00000000000E+00 0. -1.
        -12    1    4    4    0    0  0.75494105554E+02  0.46547015655E+02  0.74629507204E+02  0.11591181124E+03  0.00000000000E+00 0.  1.
</event>
<event>
12    1  0.8421768E-002  0.1917813E+03  0.7818608E-02  0.1157174E+00
         21   -1    0    0  503  502  0.00000000000E+00  0.00000000000E+00  0.24286222360E+03  0.24286222360E+03  0.00000000000E+00 0. -1.
         21   -1    0    0  501  503 -0.00000000000E+00 -0.00000000000E+00 -0.45190756770E+03  0.45190756770E+03  0.00000000000E+00 0.  1.
          6    2    1    2  501    0 -0.70185268754E+02  0.45135202281E+02 -0.38842039225E+03  0.43318640604E+03  0.17267571580E+03 0.  0.
         24    2    3    3    0    0 -0.74392692917E+00  0.55745629713E+02 -0.11390926041E+03  0.14979068866E+03  0.79710740447E+02 0.  0.
         -6    2    1    2    0  502  0.70185268754E+02 -0.45135202281E+02  0.17937504816E+03  0.26158338525E+03  0.17113532979E+03 0.  0.
        -24    2    5    5    0    0  0.30594529606E+01  0.14905456265E+02  0.26341782681E+02  0.83954485103E+02  0.78249173639E+02 0.  0.
          5    1    3    3  501    0 -0.69441341825E+02 -0.10610427432E+02 -0.27451113185E+03  0.28339571738E+03  0.47000000000E+01 0. -1.
        -11    1    4    4    0    0  0.75237975745E+01  0.58073510506E+02 -0.12364303478E+03  0.13680913786E+03  0.00000000000E+00 0.  1.
         12    1    4    4    0    0 -0.82677245036E+01 -0.23278807928E+01  0.97337743752E+01  0.12981550795E+02  0.00000000000E+00 0. -1.
         -5    1    5    5    0  502  0.67125815793E+02 -0.60040658547E+02  0.15303326548E+03  0.17762890015E+03  0.47000000000E+01 0.  1.
         13    1    6    6    0    0 -0.56462306730E+01 -0.19178573218E+02  0.41178720674E+02  0.45775371411E+02  0.00000000000E+00 0. -1.
        -14    1    6    6    0    0  0.87056836336E+01  0.34084029483E+02 -0.14836937993E+02  0.38179113692E+02  0.00000000000E+00 0.  1.
</event>
<event>
12    1  0.8421768E-002  0.2048050E+03  0.7818608E-02  0.1146254E+00
         21   -1    0    0  501  502  0.00000000000E+00  0.00000000000E+00  0.34917212692E+03  0.34917212692E+03  0.00000000000E+00 0. -1.
         21   -1    0    0  502  503 -0.00000000000E+00 -0.00000000000E+00 -0.14745519740E+03  0.14745519740E+03  0.00000000000E+00 0. -1.
         -6    2    1    2    0  503 -0.11175308164E+03 -0.77748108233E+01  0.21102634300E+03  0.29407003770E+03  0.17145224026E+03 0.  0.
        -24    2    3    3    0    0 -0.12603520479E+03 -0.54073043657E+02  0.15454340728E+03  0.21950518382E+03  0.74095169166E+02 0.  0.
          6    2    1    2  501    0  0.11175308164E+03  0.77748108233E+01 -0.93094134833E+01  0.20255728662E+03  0.16850397694E+03 0.  0.
         24    2    5    5    0    0  0.97433288320E+02  0.59788423795E+02 -0.77773269881E+01  0.14838247971E+03  0.94281345860E+02 0.  0.
          5    1    5    5  501    0  0.14319793319E+02 -0.52013612972E+02 -0.15320864952E+01  0.54174806914E+02  0.47000000000E+01 0. -1.
        -11    1    6    6    0    0  0.15077612570E+02  0.26422599126E+02 -0.43105171143E+02  0.52759301783E+02  0.00000000000E+00 0.  1.
         12    1    6    6    0    0  0.82355675751E+02  0.33365824669E+02  0.35327844155E+02  0.95623177927E+02  0.00000000000E+00 0. -1.
         -5    1    3    3    0  503  0.14282123155E+02  0.46298232834E+02  0.56482935723E+02  0.74564853874E+02  0.47000000000E+01 0.  1.
         11    1    4    4    0    0 -0.11939908199E+03 -0.20076721726E+02  0.12430905833E+03  0.17352797330E+03  0.00000000000E+00 0. -1.
        -12    1    4    4    0    0 -0.66361228002E+01 -0.33996321931E+02  0.30234348947E+02  0.45977210517E+02  0.00000000000E+00 0.  1.
</event>
<event>
12    1  0.8421768E-002  0.2406471E+03  0.7818608E-02  0.1119580E+00
         21   -1    0    0  503  502  0.00000000000E+00  0.00000000000E+00  0.64483696338E+03  0.64483696338E+03  0.00000000000E+00 0.  1.
         21   -1    0    0  501  503 -0.00000000000E+00 -0.00000000000E+00 -0.20342530513E+03  0.20342530513E+03  0.00000000000E+00 0. -1.
          6    2    1    2  501    0 -0.96530813216E+02  0.13734556814E+03 -0.96681090485E+02  0.25934195710E+03  0.17242103836E+03 0.  0.
         24    2    3    3    0    0  0.20538573156E+02  0.45342980477E+02 -0.72311821818E+01  0.85580357613E+02  0.69237914090E+02 0.  0.
         -6    2    1    2    0  502  0.96530813216E+02 -0.13734556814E+03  0.53809274873E+03  0.58892031140E+03  0.17059110163E+03 0.  0.
        -24    2    5    5    0    0  0.12849594408E+03 -0.89710972313E+02  0.34614180090E+03  0.38852549938E+03  0.81108884483E+02 0.  0.
          5    1    3    3  501    0 -0.11706938637E+03  0.92002587661E+02 -0.89449908303E+02  0.17376159949E+03  0.47000000000E+01 0. -1.
        -13    1    4    4    0    0  0.17977511872E+01 -0.18274800978E+02  0.25605586786E+01  0.18540677465E+02  0.00000000000E+00 0.  1.
         14    1    4    4    0    0  0.18740821968E+02  0.63617781455E+02 -0.97917408604E+01  0.67039680148E+02  0.00000000000E+00 0. -1.
         -5    1    5    5    0  502 -0.31965130864E+02 -0.47634595825E+02  0.19195094783E+03  0.20039481202E+03  0.47000000000E+01 0.  1.
         13    1    6    6    0    0  0.91069789665E+02 -0.97464642691E+02  0.22576718979E+03  0.26222869246E+03  0.00000000000E+00 0. -1.
        -14    1    6    6    0    0  0.37426154415E+02  0.77536703777E+01  0.12037461111E+03  0.12629680692E+03  0.00000000000E+00 0.  1.
</event>
<event>
12    1  0.8421768E-002  0.1936539E+03  0.7818608E-02  0.1155614E+00
         21   -1    0    0  501  502  0.00000000000E+00  0.00000000000E+00  0.41040016693E+03  0.41040016693E+03  0.00000000000E+00 0. -1.
         21   -1    0    0  502  503 -0.00000000000E+00 -0.00000000000E+00 -0.11673228190E+03  0.11673228190E+03  0.00000000000E+00 0. -1.
         -6    2    1    2    0  503 -0.70635848426E+02  0.49211877681E+02  0.21375265661E+02  0.19299911040E+03  0.17140747546E+03 0.  0.
        -24    2    3    3    0    0 -0.23518693504E+02  0.39351695536E+02  0.76255414209E+02  0.11984741743E+03  0.80292156418E+02 0.  0.
          6    2    1    2  501    0  0.70635848426E+02 -0.49211877681E+02  0.27229261937E+03  0.33413333844E+03  0.17346638089E+03 0.  0.
         24    2    5    5    0    0  0.94382991931E+02  0.14891911799E+02  0.17607124967E+03  0.21600686114E+03  0.80795797518E+02 0.  0.
          5    1    5    5  501    0 -0.23747143505E+02 -0.64103789480E+02  0.96221369704E+02  0.11812647729E+03  0.47000000000E+01 0. -1.
        -13    1    6    6    0    0  0.66490080921E+02 -0.25941719353E+02  0.75262912652E+02  0.10372275394E+03  0.00000000000E+00 0.  1.
         14    1    6    6    0    0  0.27892911010E+02  0.40833631152E+02  0.10080833702E+03  0.11228410720E+03  0.00000000000E+00 0. -1.
         -5    1    3    3    0  503 -0.47117154922E+02  0.98601821443E+01 -0.54880148547E+02  0.73151692971E+02  0.47000000000E+01 0.  1.
         11    1    4    4    0    0 -0.35022915341E+02  0.11063003745E+02 -0.10343629556E+01  0.36743224649E+02  0.00000000000E+00 0. -1.
        -12    1    4    4    0    0  0.11504221837E+02  0.28288691792E+02  0.77289777164E+02  0.83104192779E+02  0.00000000000E+00 0.  1.
</event>
<event>
12    1  0.8421768E-002  0.1856915E+03  0.7818608E-02  0.1162719E+00
         21   -1    0    0  501  502  0.00000000000E+00  0.00000000000E+00  0.21953069349E+03  0.21953069349E+03  0.00000000000E+00 0.  1.
         21   -1    0    0  502  503 -0.00000000000E+00 -0.00000000000E+00 -0.19870604333E+03  0.19870604333E+03  0.00000000000E+00 0.  1.
         -6    2    1    2    0  503  0.67986188136E+02 -0.63377122229E+01 -0.86580225700E+02  0.20488402578E+03  0.17268190457E+03 0.  0.
        -24    2    3    3    0    0 -0.23599843682E+02  0.19427256414E+02 -0.84275990539E+01  0.81669749481E+02  0.75263222366E+02 0.  0.
          6    2    1    2  501    0 -0.67986188136E+02  0.63377122229E+01  0.10740487586E+03  0.21335271103E+03  0.17123458638E+03 0.  0.
         24    2    5    5    0    0 -0.80574983748E+02 -0.24085459300E+02  0.16782244346E+02  0.11681982294E+03  0.79327107293E+02 0.  0.
          5    1    5    5  501    0  0.12588795612E+02  0.30423171523E+02  0.90622631510E+02  0.96532888087E+02  0.47000000000E+01 0. -1.
        -13    1    6    6    0    0 -0.65548587770E+02  0.14939529359E+02  0.29053245005E+02  0.73238636944E+02  0.00000000000E+00 0.  1.
         14    1    6    6    0    0 -0.15026395978E+02 -0.39024988659E+02 -0.12271000659E+02  0.43581185999E+02  0.00000000000E+00 0. -1.
         -5    1    3    3    0  503  0.91586031818E+02 -0.25764968637E+02 -0.78152626646E+02  0.12321427630E+03  0.47000000000E+01 0.  1.
         11    1    4    4    0    0  0.45830202726E+01 -0.12157035042E+02  0.24706112429E+02  0.27913967242E+02  0.00000000000E+00 0. -1.
        -12    1    4    4    0    0 -0.28182863955E+02  0.31584291457E+02 -0.33133711483E+02  0.53755782239E+02  0.00000000000E+00 0.  1.
</event>
<event>
12    1  0.8421768E-002  0.2194421E+03  0.7818608E-02  0.1134777E+00
         21   -1    0    0  501  502  0.00000000000E+00  0.00000000000E+00  0.88947351229E+03  0.88947351229E+03  0.00000000000E+00 0. -1.
         21   -1    0    0  502  503 -0.00000000000E+00 -0.00000000000E+00 -0.15380050973E+03  0.15380050973E+03  0.00000000000E+00 0.  1.
         -6    2    1    2    0  503 -0.13400399743E+03 -0.18837642232E+01 -0.54126316674E+02  0.22355589603E+03  0.17054899765E+03 0.  0.
        -24    2    3    3    0    0 -0.44510766135E+01  0.21812564582E+02 -0.32761990434E+02  0.90049342906E+02  0.80869871299E+02 0.  0.
          6    2    1    2  501    0  0.13400399743E+03  0.18837642232E+01  0.78979931923E+03  0.81971812599E+03  0.17376484546E+03 0.  0.
         24    2    5    5    0    0  0.98000132457E+02 -0.59260301541E+02  0.62053118430E+03  0.63611892508E+03  0.80452015846E+02 0.  0.
          5    1    5    5  501    0  0.36003864976E+02  0.61144065764E+02  0.16926813493E+03  0.18359920091E+03  0.47000000000E+01 0. -1.
        -13    1    6    6    0    0  0.54647717520E+02 -0.22130597917E+02  0.13590418953E+03  0.14814211125E+03  0.00000000000E+00 0.  1.
         14    1    6    6    0    0  0.43352414936E+02 -0.37129703624E+02  0.48462699478E+03  0.48797681383E+03  0.00000000000E+00 0. -1.
         -5    1    3    3    0  503 -0.12955292082E+03 -0.23696328806E+02 -0.21364326240E+02  0.13350655312E+03  0.47000000000E+01 0.  1.
         13    1    4    4    0    0 -0.58461472325E+01  0.21854581267E+02  0.24166832823E+02  0.33103413246E+02  0.00000000000E+00 0. -1.
        -14    1    4    4    0    0  0.13950706190E+01 -0.42016684872E-01 -0.56928823257E+02  0.56945929660E+02  0.00000000000E+00 0.  1.
</event>
<event>
12    1  0.8421768E-002  0.2304821E+03  0.7818608E-02  0.1126597E+00
         21   -1    0    0  503  502  0.00000000000E+00  0.00000000000E+00  0.19254923761E+02  0.19254923761E+02  0.00000000000E+00 0. -1.
         21   -1    0    0  501  503 -0.00000000000E+00 -0.00000000000E+00 -0.27812238383E+04  0.27812238383E+04  0.00000000000E+00 0. -1.
          6    2    1    2  501    0  0.64383332303E+02 -0.13873166229E+03 -0.12031440758E+04  0.12247069329E+04  0.17017554686E+03 0.  0.
         24    2    3    3    0    0  0.92293000189E+02 -0.85355224739E+02 -0.10442951270E+04  0.10547567279E+04  0.78459737911E+02 0.  0.
         -6    2    1    2    0  502 -0.64383332303E+02  0.13873166229E+03 -0.15588248387E+04  0.15757718291E+04  0.17242474336E+03 0.  0.
        -24    2    5    5    0    0 -0.41484138340E+01  0.13067218004E+03 -0.69518657070E+03  0.70998528002E+03  0.60846542985E+02 0.  0.
          5    1    3    3  501    0 -0.27909667885E+02 -0.53376437555E+02 -0.15884894881E+03  0.16995020502E+03  0.47000000000E+01 0. -1.
        -11    1    4    4    0    0  0.31587225091E+02 -0.49890518017E+01 -0.51323739249E+03  0.51423269487E+03  0.00000000000E+00 0.  1.
         12    1    4    4    0    0  0.60705775098E+02 -0.80366172937E+02 -0.53105773455E+03  0.54052403305E+03  0.00000000000E+00 0. -1.
         -5    1    5    5    0  502 -0.60234918470E+02  0.80594822551E+01 -0.86363826801E+03  0.86578654912E+03  0.47000000000E+01 0.  1.
         13    1    6    6    0    0 -0.43354786493E+01  0.90991511662E+02 -0.59973994856E+03  0.60661870847E+03  0.00000000000E+00 0. -1.
        -14    1    6    6    0    0  0.18706481533E+00  0.39680668377E+02 -0.95446622138E+02  0.10336657155E+03  0.00000000000E+00 0.  1.
</event>
<event>
12    1  0.8421768E-002  0.1723381E+03  0.7818608E-02  0.1175487E+00
         21   -1    0    0  501  502  0.00000000000E+00  0.00000000000E+00  0.17425962859E+02  0.17425962859E+02  0.00000000000E+00 0.  1.
         21   -1    0    0  502  503 -0.00000000000E+00 -0.00000000000E+00 -0.17045574179E+04  0.17045574179E+04  0.00000000000E+00 0.  1.
         -6    2    1    2    0  503 -0.45385203332E+01 -0.14924518621E+02 -0.87589759890E+03  0.89269088920E+03  0.17163065132E+03 0.  0.
        -24    2    3    3    0    0 -0.33001237022E+02 -0.67530637673E+02 -0.61856087073E+03  0.62845271695E+03  0.81766729074E+02 0.  0.
          6    2    1    2  501    0  0.45385203332E+01  0.14924518621E+02 -0.81123385616E+03  0.82929249158E+03  0.17141274104E+03 0.  0.
         24    2    5    5    0    0  0.55633792936E+02  0.14304987936E+02 -0.29444471025E+03  0.30996193978E+03  0.77967718472E+02 0.  0.
          5    1    5    5  501    0 -0.51095272603E+02  0.61953068476E+00 -0.51678914591E+03  0.51933055180E+03  0.47000000000E+01 0. -1.
        -13    1    6    6    0    0  0.24658289866E+02 -0.17093725390E+01 -0.25922292439E+03  0.26039868998E+03  0.00000000000E+00 0.  1.
         14    1    6    6    0    0  0.30975503070E+02  0.16014360475E+02 -0.35221785855E+02  0.49563249800E+02  0.00000000000E+00 0. -1.
         -5    1    3    3    0  503  0.28462716689E+02  0.52606119052E+02 -0.25733672817E+03  0.26423817224E+03  0.47000000000E+01 0.  1.
         11    1    4    4    0    0  0.13314841439E+02 -0.69001049395E+01 -0.31819031928E+03  0.31854352252E+03  0.00000000000E+00 0. -1.
        -12    1    4    4    0    0 -0.46316078461E+02 -0.60630532733E+02 -0.30037055144E+03  0.30990919444E+03  0.00000000000E+00 0.  1.
</event>
<event>
12    1  0.8421768E-002  0.2074815E+03  0.7818608E-02  0.1143834E+00
         21   -1    0    0  503  502  0.00000000000E+00  0.00000000000E+00  0.26614936628E+03  0.26614936628E+03  0.00000000000E+00 0.  1.
         21   -1    0    0  501  503 -0.00000000000E+00 -0.00000000000E+00 -0.31142536011E+03  0.31142536011E+03  0.00000000000E+00 0.  1.
          6    2    1    2  501    0 -0.10252522495E+03 -0.48936785512E+02 -0.22354736072E+03  0.30499504168E+03  0.17361544355E+03 0.  0.
         24    2    3    3    0    0 -0.78099107815E+02 -0.10134384247E+03 -0.17538712249E+03  0.22959853405E+03  0.74731513124E+02 0.  0.
         -6    2    1    2    0  502  0.10252522495E+03  0.48936785512E+02  0.17827136689E+03  0.27257968470E+03  0.17208362366E+03 0.  0.
        -24    2    5    5    0    0  0.19276178014E+02  0.38486988034E+01  0.15967202480E+03  0.17598069451E+03  0.71327875441E+02 0.  0.
          5    1    3    3  501    0 -0.24426117139E+02  0.52407056957E+02 -0.48160238228E+02  0.75396507635E+02  0.47000000000E+01 0. -1.
        -11    1    4    4    0    0 -0.62606717646E+02 -0.53426217220E+02 -0.15454815121E+03  0.17509738097E+03  0.00000000000E+00 0.  1.
         12    1    4    4    0    0 -0.15492390169E+02 -0.47917625249E+02 -0.20838971281E+02  0.54501153077E+02  0.00000000000E+00 0. -1.
         -5    1    5    5    0  502  0.83249046940E+02  0.45088086709E+02  0.18599342083E+02  0.96598990188E+02  0.47000000000E+01 0.  1.
         11    1    6    6    0    0 -0.17205250588E+02 -0.21993063142E+02  0.45721972360E+02  0.53574380357E+02  0.00000000000E+00 0. -1.
        -12    1    6    6    0    0  0.36481428602E+02  0.25841761945E+02  0.11395005244E+03  0.12240631415E+03  0.00000000000E+00 0.  1.
</event>
<event>
12    1  0.8421768E-002  0.1894186E+03  0.7818608E-02  0.1159853E+00
         21   -1    0    0  501  502  0.00000000000E+00  0.00000000000E+00  0.63302939979E+02  0.63302939979E+02  0.00000000000E+00 0. -1.
         21   -1    0    0  502  503 -0.00000000000E+00 -0.00000000000E+00 -0.60888795169E+03  0.60888795169E+03  0.00000000000E+00 0. -1.
         -6    2    1    2    0  503 -0.41143784977E+02 -0.57859710656E+02 -0.36977619216E+03  0.41375683315E+03  0.17152179900E+03 0.  0.
        -24    2    3    3    0    0 -0.54905036027E+02 -0.10096593245E+03 -0.27888046888E+03  0.31211215351E+03  0.80193503170E+02 0.  0.
          6    2    1    2  501    0  0.41143784977E+02  0.57859710656E+02 -0.17580881955E+03  0.25843405852E+03  0.17560997811E+03 0.  0.
         24    2    5    5    0    0 -0.19039095020E+02 -0.19722201455E+02 -0.48668463122E+02  0.97724095029E+02  0.80186826083E+02 0.  0.
          5    1    5    5  501    0  0.60182879997E+02  0.77581912112E+02 -0.12714035643E+03  0.16070996349E+03  0.47000000000E+01 0. -1.
        -13    1    6    6    0    0  0.30608130709E+02 -0.99499429952E+01 -0.89741464361E+01  0.33412487716E+02  0.00000000000E+00 0.  1.
         14    1    6    6    0    0 -0.49647225729E+02 -0.97722584603E+01 -0.39694316686E+02  0.64311607313E+02  0.00000000000E+00 0. -1.
         -5    1    3    3    0  503  0.13761251050E+02  0.43106221798E+02 -0.90895723284E+02  0.10164467964E+03  0.47000000000E+01 0.  1.
         13    1    4    4    0    0 -0.24456465380E+02 -0.10683447153E+02 -0.13020749295E+02  0.29695027432E+02  0.00000000000E+00 0. -1.
        -14    1    4    4    0    0 -0.30448570647E+02 -0.90282485302E+02 -0.26585971958E+03  0.28241712608E+03  0.00000000000E+00 0.  1.
</event>
<event>
12    1  0.8421768E-002  0.1925328E+03  0.7818608E-02  0.1158164E+00
         21   -1    0    0  503  502  0.00000000000E+00  0.00000000000E+00  0.42343155513E+03  0.42343155513E+03  0.00000000000E+00 0.  1.
         21   -1    0    0  501  503 -0.00000000000E+00 -0.00000000000E+00 -0.10194385504E+03  0.10194385504E+03  0.00000000000E+00 0.  1.
          6    2    1    2  501    0 -0.75166877608E+02  0.29774186902E+01  0.52525119096E+02  0.19956898957E+03  0.17722857825E+03 0.  0.
         24    2    3    3    0    0 -0.16934592333E+02 -0.48250951248E+02 -0.10224005874E+02  0.99694630397E+02  0.84967960550E+02 0.  0.
         -6    2    1    2    0  502  0.75166877608E+02 -0.29774186902E+01  0.26896258099E+03  0.32580642061E+03  0.16777970445E+03 0.  0.
        -24    2    5    5    0    0 -0.24885112200E+02 -0.62309389501E+01  0.11184247082E+03  0.13944707666E+03  0.79237967535E+02 0.  0.
          5    1    3    3  501    0 -0.58232285275E+02  0.51228369938E+02  0.62749124970E+02  0.99874359169E+02  0.47000000000E+01 0. -1.
        -11    1    4    4    0    0  0.33427537350E+02 -0.10455315303E+02  0.36594816525E+01  0.35215134209E+02  0.00000000000E+00 0.  1.
         12    1    4    4    0    0 -0.50362129683E+02 -0.37795635945E+02 -0.13883487527E+02  0.64479496188E+02  0.00000000000E+00 0. -1.
         -5    1    5    5    0  502  0.10005198981E+03  0.32535202599E+01  0.15712011017E+03  0.18635934395E+03  0.47000000000E+01 0.  1.
         11    1    6    6    0    0 -0.11796000036E+02 -0.42822462652E+02  0.58711911451E+02  0.73620632099E+02  0.00000000000E+00 0. -1.
        -12    1    6    6    0    0 -0.13089112164E+02  0.36591523702E+02  0.53130559370E+02  0.65826444557E+02  0.00000000000E+00 0.  1.
</event>
<event>
12    1  0.8421768E-002  0.2146297E+03  0.7818608E-02  0.1138027E+00
         21   -1    0    0  503  502  0.00000000000E+00  0.00000000000E+00  0.79514280066E+02  0.79514280066E+02  0.00000000000E+00 0. -1.
         21   -1    0    0  501  503 -0.00000000000E+00 -0.00000000000E+00 -0.58267162622E+03  0.58267162622E+03  0.00000000000E+00 0.  1.
          6    2    1    2  501    0 -0.89704592653E+02  0.92905232587E+02 -0.28007123174E+03  0.35261633824E+03  0.17093885151E+03 0.  0.
         24    2    3    3    0    0 -0.66283015618E+01  0.25021703585E+02 -0.72712818222E+02  0.11910093123E+03  0.90707540228E+02 0.  0.
         -6    2    1    2    0  502  0.89704592653E+02 -0.92905232587E+02 -0.22308611442E+03  0.30956956805E+03  0.17142813898E+03 0.  0.
        -24    2    5    5    0    0  0.76800865284E+02 -0.10375890285E+03 -0.93328368502E+02  0.17863648987E+03  0.80848799108E+02 0.  0.
          5    1    3    3  501    0 -0.83076291091E+02  0.67883529002E+02 -0.20735841352E+03  0.23351540701E+03  0.47000000000E+01 0. -1.
        -11    1    4    4    0    0  0.20626796217E+02 -0.75293260666E+00 -0.78479116704E+02  0.81148033792E+02  0.00000000000E+00 0.  1.
         12    1    4    4    0    0 -0.27255097779E+02  0.25774636191E+02  0.57662984819E+01  0.37952897438E+02  0.00000000000E+00 0. -1.
         -5    1    5    5    0  502  0.12903727369E+02  0.10853670261E+02 -0.12975774591E+03  0.13093307818E+03  0.47000000000E+01 0.  1.
         13    1    6    6    0    0  0.92327300168E+02 -0.96162456652E+02 -0.73127893161E+02  0.15205011405E+03  0.00000000000E+00 0. -1.
        -14    1    6    6    0    0 -0.15526434884E+02 -0.75964461958E+01 -0.20200475341E+02  0.26586375816E+02  0.00000000000E+00 0.  1.
</event>
<event>
12    1  0.8421768E-002  0.2178964E+03  0.7818608E-02  0.1135553E+00
         21   -1    0    0  501  502  0.00000000000E+00  0.00000000000E+00  0.32505062892E+02  0.32505062892E+02  0.00000000000E+00 0. -1.
         21   -1    0    0  502  503 -0.00000000000E+00 -0.00000000000E+00 -0.14779704477E+04  0.14779704477E+04  0.00000000000E+00 0.  1.
         -6    2    1    2    0  503 -0.12078812481E+03  0.56599965464E+02 -0.81260278223E+03  0.84130977637E+03  0.17229489530E+03 0.  0.
        -24    2    3    3    0    0 -0.53799110529E+02  0.12492468860E+02 -0.18795611326E+03  0.21151731028E+03  0.79760052434E+02 0.  0.
          6    2    1    2  501    0  0.12078812481E+03 -0.56599965464E+02 -0.63286260258E+03  0.66916573422E+03  0.17168103834E+03 0.  0.
         24    2    5    5    0    0  0.10854984780E+03 -0.14659698909E+02 -0.59759277578E+03  0.61282026355E+03  0.80209560017E+02 0.  0.
          5    1    5    5  501    0  0.12238277009E+02 -0.41940266555E+02 -0.35269826796E+02  0.56345470671E+02  0.47000000000E+01 0. -1.
        -13    1    6    6    0    0  0.15753271652E+02 -0.37087447214E+02 -0.17747470049E+03  0.18199152074E+03  0.00000000000E+00 0.  1.
         14    1    6    6    0    0  0.92796576151E+02  0.22427748305E+02 -0.42011807529E+03  0.43082874280E+03  0.00000000000E+00 0. -1.
         -5    1    3    3    0  503 -0.66989014284E+02  0.44107496605E+02 -0.62464666898E+03  0.62979246610E+03  0.47000000000E+01 0.  1.
         11    1    4    4    0    0 -0.59381871656E+02 -0.36883236048E+01 -0.18476184666E+03  0.19410499838E+03  0.00000000000E+00 0. -1.
        -12    1    4    4    0    0  0.55827611271E+01  0.16180792464E+02 -0.31942665910E+01  0.17412311898E+02  0.00000000000E+00 0.  1.
</event>
<event>
12    1  0.8421768E-002  0.1994689E+03  0.7818608E-02  0.1150339E+00
         21   -1    0    0  501  502  0.00000000000E+00  0.00000000000E+00  0.75041307814E+03  0.75041307814E+03  0.00000000000E+00 0.  1.
         21   -1    0    0  502  503 -0.00000000000E+00 -0.00000000000E+00 -0.72193245726E+02  0.72193245726E+02  0.00000000000E+00 0. -1.
         -6    2    1    2    0  503 -0.41916007762E+02 -0.90925697642E+02  0.12655258825E+03  0.23622745723E+03  0.17252078066E+03 0.  0.
        -24    2    3    3    0    0  0.34882834491E+02 -0.12897098673E+02  0.63518171685E+02  0.10980771154E+03  0.81486367469E+02 0.  0.
          6    2    1    2  501    0  0.41916007762E+02  0.90925697642E+02  0.55166724416E+03  0.58637886663E+03  0.17169447503E+03 0.  0.
         24    2    5    5    0    0  0.29665661834E+02  0.12617738081E+03  0.35672480656E+03  0.38784071887E+03  0.79793813502E+02 0.  0.
          5    1    5    5  501    0  0.12250345929E+02 -0.35251683171E+02  0.19494243760E+03  0.19853814776E+03  0.47000000000E+01 0. -1.
        -11    1    6    6    0    0 -0.56061449046E+01  0.75987216680E+02  0.27675660296E+03  0.28705348498E+03  0.00000000000E+00 0.  1.
         12    1    6    6    0    0  0.35271806738E+02  0.50190164134E+02  0.79968203601E+02  0.10078723388E+03  0.00000000000E+00 0. -1.
         -5    1    3    3    0  503 -0.76798842253E+02 -0.78028598969E+02  0.63034416567E+02  0.12641974569E+03  0.47000000000E+01 0.  1.
         11    1    4    4    0    0  0.10433589487E+02  0.84890816039E+01 -0.17760154887E+02  0.22278855394E+02  0.00000000000E+00 0. -1.
        -12    1    4    4    0    0  0.24449245004E+02 -0.21386180277E+02  0.81278326571E+02  0.87528856147E+02  0.00000000000E+00 0.  1.
</event>
<event>
12    1  0.8421768E-002  0.2687417E+03  0.7818608E-02  0.1102295E+00
         21   -1    0    0  501  502  0.00000000000E+00  0.00000000000E+00  0.22562157457E+03  0.22562157457E+03  0.00000000000E+00 0. -1.
         21   -1    0    0  502  503 -0.00000000000E+00 -0.00000000000E+00 -0.32746341372E+03  0.32746341372E+03  0.00000000000E+00 0. -1.
         -6    2    1    2    0  503  0.36307007325E+02  0.20356294308E+03 -0.98494635038E+02  0.28432243791E+03  0.16846953728E+03 0.  0.
        -24    2    3    3    0    0  0.24202802672E+02  0.17211732182E+03 -0.13519555066E+03  0.23427859639E+03  0.79990472432E+02 0.  0.
          6    2    1    2  501    0 -0.36307007325E+02 -0.20356294308E+03 -0.33472041088E+01  0.26876255039E+03  0.17165673345E+03 0.  0.
         24    2    5    5    0    0 -0.67445274163E+02 -0.90948956499E+02 -0.42231117647E+02  0.14553288526E+03  0.81091156732E+02 0.  0.
          5    1    5    5  501    0  0.31138266838E+02 -0.11261398658E+03  0.38883913538E+02  0.12322966512E+03  0.47000000000E+01 0. -1.
        -11    1    6    6    0    0 -0.69463243383E+02 -0.63662465345E+02  0.11658523004E+01  0.94230626055E+02  0.00000000000E+00 0.  1.
         12    1    6    6    0    0  0.20179692199E+01 -0.27286491154E+02 -0.43396969947E+02  0.51302259208E+02  0.00000000000E+00 0. -1.
         -5    1    3    3    0  503  0.12104204653E+02  0.31445621254E+02  0.36700915621E+02  0.50043841517E+02  0.47000000000E+01 0.  1.
         13    1    4    4    0    0 -0.35892099818E+01  0.14948660948E+03 -0.12985160656E+03  0.19804183540E+03  0.00000000000E+00 0. -1.
        -14    1    4    4    0    0  0.27792012654E+02  0.22630712343E+02 -0.53439440972E+01  0.36236760990E+02  0.00000000000E+00 0.  1.
</event>
<event>
12    1  0.8421768E-002  0.1805760E+03  0.7818608E-02  0.1167964E+00
         21   -1    0    0  501  502  0.00000000000E+00  0.00000000000E+00  0.60775642029E+02  0.60775642029E+02  0.00000000000E+00 0.  1.
         21   -1    0    0  502  503 -0.00000000000E+00 -0.00000000000E+00 -0.98762024074E+03  0.98762024074E+03  0.00000000000E+00 0.  1.
         -6    2    1    2    0  503 -0.28161094971E+02 -0.36492649133E+02 -0.82313713285E+03  0.84271136475E+03  0.17459365418E+03 0.  0.
        -24    2    3    3    0    0  0.23858961742E+02 -0.75709778074E+02 -0.58747245527E+03  0.59816280155E+03  0.79835023026E+02 0.  0.
          6    2    1    2  501    0  0.28161094971E+02  0.36492649133E+02 -0.10370746585E+03  0.20568451802E+03  0.17154043770E+03 0.  0.
         24    2    5    5    0    0 -0.54137975677E+01 -0.19220810642E+02 -0.59358868374E+01  0.88157352340E+02  0.85660581677E+02 0.  0.
          5    1    5    5  501    0  0.33574892539E+02  0.55713459775E+02 -0.97771579017E+02  0.11752716568E+03  0.47000000000E+01 0. -1.
        -13    1    6    6    0    0  0.36390287368E+02 -0.35310583045E+01 -0.19571842882E+02  0.41470211252E+02  0.00000000000E+00 0.  1.
         14    1    6    6    0    0 -0.41804084936E+02 -0.15689752337E+02  0.13635956045E+02  0.46687141088E+02  0.00000000000E+00 0. -1.
         -5    1    3    3    0  503 -0.52020056713E+02  0.39217128941E+02 -0.23566467758E+03  0.24454856320E+03  0.47000000000E+01 0.  1.
         13    1    4    4    0    0  0.41129793795E+02 -0.38417632854E+02 -0.47672659488E+03  0.48003731180E+03  0.00000000000E+00 0. -1.
        -14    1    4    4    0    0 -0.17270832053E+02 -0.37292145220E+02 -0.11074586039E+03  0.11812548975E+03  0.00000000000E+00 0.  1.
</event>
<event>
12    1  0.8421768E-002  0.1747961E+03  0.7818608E-02  0.1173155E+00
         21   -1    0    0  501  502  0.00000000000E+00  0.00000000000E+00  0.18815751121E+03  0.18815751121E+03  0.00000000000E+00 0. -1.
         21   -1    0    0  502  503 -0.00000000000E+00 -0.00000000000E+00 -0.59590024019E+03  0.59590024019E+03  0.00000000000E+00 0. -1.
         -6    2    1    2    0  503 -0.30538892298E+02 -0.20118907865E+02 -0.53869451618E+03  0.56634393028E+03  0.17092767831E+03 0.  0.
        -24    2    3    3    0    0 -0.33276290662E+02  0.21486014728E+02 -0.50410516213E+03  0.51196584327E+03  0.80112732059E+02 0.  0.
          6    2    1    2  501    0  0.30538892298E+02  0.20118907865E+02  0.13095178720E+03  0.21771382111E+03  0.17003982750E+03 0.  0.
         24    2    5    5    0    0  0.25670822393E+02  0.30313764677E+02  0.38378910987E+01  0.90012349738E+02  0.80681957376E+02 0.  0.
          5    1    5    5  501    0  0.48680699046E+01 -0.10194856812E+02  0.12711389610E+03  0.12770147137E+03  0.47000000000E+01 0. -1.
        -11    1    6    6    0    0  0.47942721348E+02  0.40148779273E+01  0.19808788339E+02  0.52028952233E+02  0.00000000000E+00 0.  1.
         12    1    6    6    0    0 -0.22271898955E+02  0.26298886749E+02 -0.15970897240E+02  0.37983397504E+02  0.00000000000E+00 0. -1.
         -5    1    3    3    0  503  0.27373983642E+01 -0.41604922593E+02 -0.34589354042E+02  0.54378087010E+02  0.47000000000E+01 0.  1.
         13    1    4    4    0    0 -0.38772155353E+02 -0.22609779078E+02 -0.26188239276E+03  0.26570071467E+03  0.00000000000E+00 0. -1.
        -14    1    4    4    0    0  0.54958646904E+01  0.44095793807E+02 -0.24222276938E+03  0.24626512860E+03  0.00000000000E+00 0.  1.
</event>
<event>
12    1  0.8421768E-002  0.2036452E+03  0.7818608E-02  0.1149127E+00
         21   -1    0    0  503  502  0.00000000000E+00  0.00000000000E+00  0.22509663348E+03  0.22509663348E+03  0.00000000000E+00 0. -1.
         21   -1    0    0  501  503 -0.00000000000E+00 -0.00000000000E+00 -0.18143969152E+03  0.18143969152E+03  0.00000000000E+00 0. -1.
          6    2    1    2  501    0  0.10376252965E+02 -0.86646247477E+02  0.63442674763E+02  0.21329875126E+03  0.18400039533E+03 0.  0.
         24    2    3    3    0    0  0.37189265940E+02 -0.12644969396E+03  0.40874605107E+02  0.16005722814E+03  0.81086474421E+02 0.  0.
         -6    2    1    2    0  502 -0.10376252965E+02  0.86646247477E+02 -0.19785732798E+02  0.19323757374E+03  0.17127184782E+03 0.  0.
        -24    2    5    5    0    0 -0.56451364186E+02  0.10123968897E+03 -0.56886938032E+01  0.14267374361E+03  0.82989184459E+02 0.  0.
          5    1    3    3  501    0 -0.26813012975E+02  0.39803446481E+02  0.22568069656E+02  0.53241523124E+02  0.47000000000E+01 0. -1.
        -13    1    4    4    0    0 -0.20352710673E+02 -0.18791648598E+02  0.24332572551E+02  0.36870489226E+02  0.00000000000E+00 0.  1.
         14    1    4    4    0    0  0.57541976613E+02 -0.10765804536E+03  0.16542032556E+02  0.12318673891E+03  0.00000000000E+00 0. -1.
         -5    1    5    5    0  502  0.46075111221E+02 -0.14593441497E+02 -0.14097038994E+02  0.50563830128E+02  0.47000000000E+01 0.  1.
         11    1    6    6    0    0 -0.22886967564E+02 -0.22567400325E+01 -0.22973108915E+02  0.32506459251E+02  0.00000000000E+00 0. -1.
        -12    1    6    6    0    0 -0.33564396622E+02  0.10349642901E+03  0.17284415112E+02  0.11016728436E+03  0.00000000000E+00 0.  1.
</event>
<event>
12    1  0.8421768E-002  0.1890665E+03  0.7818608E-02  0.1159313E+00
         21   -1    0    0  503  502  0.00000000000E+00  0.00000000000E+00  0.10994258871E+03  0.10994258871E+03  0.00000000000E+00 0.  1.
         21   -1    0    0  501  503 -0.00000000000E+00 -0.00000000000E+00 -0.32648712066E+03  0.32648712066E+03  0.00000000000E+00 0.  1.
          6    2    1    2  501    0 -0.75812937368E+02 -0.18457249233E+02 -0.93949074437E+02  0.21109483847E+03  0.17218109861E+03 0.  0.
         24    2    3    3    0    0 -0.76877288360E+02  0.27358941357E+02 -0.11611284131E+02  0.11674518094E+03  0.82680023073E+02 0.  0.
         -6    2    1    2    0  502  0.75812937368E+02  0.18457249233E+02 -0.12259545751E+03  0.22533487089E+03  0.17221465187E+03 0.  0.
        -24    2    5    5    0    0  0.70562660999E+02 -0.47903195382E+02 -0.10021672218E+03  0.15494899300E+03  0.81804607284E+02 0.  0.
          5    1    3    3  501    0  0.10643509918E+01 -0.45816190590E+02 -0.82337790306E+02  0.94349657528E+02  0.47000000000E+01 0. -1.
        -13    1    4    4    0    0 -0.46378060992E+02  0.31402415721E+02  0.31132640698E+02  0.64080243222E+02  0.00000000000E+00 0.  1.
         14    1    4    4    0    0 -0.30499227368E+02 -0.40434743638E+01 -0.42743924829E+02  0.52664937717E+02  0.00000000000E+00 0. -1.
         -5    1    5    5    0  502  0.52502763695E+01  0.66360444616E+02 -0.22378735328E+02  0.70385877891E+02  0.47000000000E+01 0.  1.
         11    1    6    6    0    0  0.46016083949E+02 -0.22306169382E+02 -0.27283326321E+01  0.51210242857E+02  0.00000000000E+00 0. -1.
        -12    1    6    6    0    0  0.24546577049E+02 -0.25597026001E+02 -0.97488389551E+02  0.10373875015E+03  0.00000000000E+00 0.  1.
</event>
<event>
12    1  0.8421768E-002  0.2046866E+03  0.7818608E-02  0.1145882E+00
         21   -1    0    0  503  502  0.00000000000E+00  0.00000000000E+00  0.12348119140E+03  0.12348119140E+03  0.00000000000E+00 0.  1.
         21   -1    0    0  501  503 -0.00000000000E+00 -0.00000000000E+00 -0.34045420143E+03  0.34045420143E+03  0.00000000000E+00 0.  1.
          6    2    1    2  501    0 -0.89279880819E+02  0.65766231212E+02 -0.93217063259E+02  0.22474480650E+03  0.17182756728E+03 0.  0.
         24    2    3    3    0    0 -0.12123245760E+03  0.65948782626E+02 -0.43291014322E+02  0.16528304694E+03  0.79986392452E+02 0.  0.
         -6    2    1    2    0  502  0.89279880819E+02 -0.65766231212E+02 -0.12375594678E+03  0.23919058633E+03  0.17204798151E+03 0.  0.
        -24    2    5    5    0    0  0.65677814953E+02 -0.44802277067E+02 -0.18030670726E+01  0.11313052226E+03  0.80463933589E+02 0.  0.
          5    1    3    3  501    0  0.31952576781E+02 -0.18255141396E+00 -0.49926048938E+02  0.59461759564E+02  0.47000000000E+01 0. -1.
        -11    1    4    4    0    0 -0.12265075315E+03  0.78706535077E+02 -0.44538141565E+02  0.15238625911E+03  0.00000000000E+00 0.  1.
         12    1    4    4    0    0  0.14182955459E+01 -0.12757752452E+02  0.12471272430E+01  0.12896787826E+02  0.00000000000E+00 0. -1.
         -5    1    5    5    0  502  0.23602065866E+02 -0.20963954144E+02 -0.12195287970E+03  0.12606006407E+03  0.47000000000E+01 0.  1.
         13    1    6    6    0    0  0.26198164156E+02  0.15202857064E+02 -0.23233011038E+02  0.38173858463E+02  0.00000000000E+00 0. -1.
        -14    1    6    6    0    0  0.39479650798E+02 -0.60005134131E+02  0.21429943966E+02  0.74956663797E+02  0.00000000000E+00 0.  1.
</event>
<event>
12    1  0.8421768E-002  0.1720573E+03  0.7818608E-02  0.1176707E+00
         21   -1    0    0  501  502  0.00000000000E+00  0.00000000000E+00  0.10195692891E+03  0.10195692891E+03  0.00000000000E+00 0. -1.
         21   -1    0    0  502  503 -0.00000000000E+00 -0.00000000000E+00 -0.30124126475E+03  0.30124126475E+03  0.00000000000E+00 0. -1.
         -6    2    1    2    0  503  0.21272492442E+00 -0.15981521526E+02 -0.14686011410E+03  0.22333153980E+03  0.16749217675E+03 0.  0.
        -24    2    3    3    0    0  0.94499188929E+01 -0.73688962428E+02 -0.90377196779E+02  0.14191971979E+03  0.80335577531E+02 0.  0.
          6    2    1    2  501    0 -0.21272492442E+00  0.15981521526E+02 -0.52424221745E+02  0.17986665386E+03  0.17131333825E+03 0.  0.
         24    2    5    5    0    0 -0.43240166905E+02  0.73741814600E+00  0.21027120159E+02  0.93258726517E+02  0.79904908923E+02 0.  0.
          5    1    5    5  501    0  0.43027441980E+02  0.15244103380E+02 -0.73451341904E+02  0.86607927343E+02  0.47000000000E+01 0. -1.
        -11    1    6    6    0    0 -0.50000464187E+02  0.18299247233E+02 -0.12608940258E+02  0.54716489678E+02  0.00000000000E+00 0.  1.
         12    1    6    6    0    0  0.67602972825E+01 -0.17561829087E+02  0.33636060417E+02  0.38542236839E+02  0.00000000000E+00 0. -1.
         -5    1    3    3    0  503 -0.92371939685E+01  0.57707440902E+02 -0.56482917323E+02  0.81411820009E+02  0.47000000000E+01 0.  1.
         13    1    4    4    0    0 -0.32836244764E+02 -0.31494149499E+02 -0.58808529727E+02  0.74354176692E+02  0.00000000000E+00 0. -1.
        -14    1    4    4    0    0  0.42286163657E+02 -0.42194812930E+02 -0.31568667052E+02  0.67565543100E+02  0.00000000000E+00 0.  1.
</event>
<event>
12    1  0.8421768E-002  0.2108334E+03  0.7818608E-02  0.1140942E+00
         21   -1    0    0  503  502  0.00000000000E+00  0.00000000000E+00  0.73292599818E+03  0.73292599818E+03  0.00000000000E+00 0. -1.
         21   -1    0    0  501  503 -0.00000000000E+00 -0.00000000000E+00 -0.16008478307E+03  0.16008478307E+03  0.00000000000E+00 0.  1.
          6    2    1    2  501    0  0.35638497474E+02  0.11626612475E+03 -0.65615889691E+02  0.22064317777E+03  0.17201759401E+03 0.  0.
         24    2    3    3    0    0  0.39477344129E+02  0.11323157643E+03  0.97953812917E+01  0.14492729424E+03  0.80796785344E+02 0.  0.
         -6    2    1    2    0  502 -0.35638497474E+02 -0.11626612475E+03  0.63845710480E+03  0.67236760348E+03  0.17222893274E+03 0.  0.
        -24    2    5    5    0    0  0.98258293540E+01 -0.32225473347E+02  0.47400802469E+03  0.48211664802E+03  0.81350026294E+02 0.  0.
          5    1    3    3  501    0 -0.38388466549E+01  0.30345483269E+01 -0.75411270982E+02  0.75715883528E+02  0.47000000000E+01 0. -1.
        -13    1    4    4    0    0  0.61361980045E+01  0.13457832329E+01 -0.22852682745E+02  0.23700404366E+02  0.00000000000E+00 0.  1.
         14    1    4    4    0    0  0.33341146124E+02  0.11188579319E+03  0.32648064037E+02  0.12122688988E+03  0.00000000000E+00 0. -1.
         -5    1    5    5    0  502 -0.45464326828E+02 -0.84040651408E+02  0.16444908012E+03  0.19025095546E+03  0.47000000000E+01 0.  1.
         11    1    6    6    0    0  0.44136993141E+00 -0.58661053979E+02  0.27892946541E+03  0.28503150832E+03  0.00000000000E+00 0. -1.
        -12    1    6    6    0    0  0.93844594226E+01  0.26435580632E+02  0.19507855928E+03  0.19708513970E+03  0.00000000000E+00 0.  1.
</event>
<event>
12    1  0.8421768E-002  0.1939039E+03  0.7818608E-02  0.1155276E+00
         21   -1    0    0  501  502  0.00000000000E+00  0.00000000000E+00  0.38511285916E+03  0.38511285916E+03  0.00000000000E+00 0. -1.
         21   -1    0    0  502  503 -0.00000000000E+00 -0.00000000000E+00 -0.98318555270E+02  0.98318555270E+02  0.00000000000E+00 0.  1.
         -6    2    1    2    0  503 -0.41084705631E+02  0.73245347861E+02  0.17219416785E+03  0.25932522349E+03  0.17477387126E+03 0.  0.
        -24    2    3    3    0    0 -0.85142476720E+02  0.56412791803E+02  0.16807476272E+03  0.21174916191E+03  0.78466153757E+02 0.  0.
          6    2    1    2  501    0  0.41084705631E+02 -0.73245347861E+02  0.11460013604E+03  0.22410619095E+03  0.17331347212E+03 0.  0.
         24    2    5    5    0    0  0.80817130453E+02 -0.91227481025E+02  0.71046525388E+02  0.16229171290E+03  0.80231723385E+02 0.  0.
          5    1    5    5  501    0 -0.39732424822E+02  0.17982133164E+02  0.43553610651E+02  0.61814478046E+02  0.47000000000E+01 0. -1.
        -13    1    6    6    0    0  0.10562789512E+02 -0.56707920447E+02  0.16888959793E+01  0.57707998867E+02  0.00000000000E+00 0.  1.
         14    1    6    6    0    0  0.70254340941E+02 -0.34519560578E+02  0.69357629409E+02  0.10458371403E+03  0.00000000000E+00 0. -1.
         -5    1    3    3    0  503  0.44057771089E+02  0.16832556057E+02  0.41194051370E+01  0.47576061580E+02  0.47000000000E+01 0.  1.
         13    1    4    4    0    0 -0.40880770899E+02  0.68522095339E+02  0.12796082733E+03  0.15079949705E+03  0.00000000000E+00 0. -1.
        -14    1    4    4    0    0 -0.44261705821E+02 -0.12109303536E+02  0.40113935386E+02  0.60949664859E+02  0.00000000000E+00 0.  1.
</event>
<event>
12    1  0.8421768E-002  0.2178312E+03  0.7818608E-02  0.1136018E+00
         21   -1    0    0  503  502  0.00000000000E+00  0.00000000000E+00  0.57002464332E+02  0.57002464332E+02  0.00000000000E+00 0.  1.
         21   -1    0    0  501  503 -0.00000000000E+00 -0.00000000000E+00 -0.82366738889E+03  0.82366738889E+03  0.00000000000E+00 0. -1.
          6    2    1    2  501    0  0.54706623844E+02  0.11873037473E+03 -0.40394743761E+03  0.45893786237E+03  0.17424325692E+03 0.  0.
         24    2    3    3    0    0  0.21747196011E+02 -0.10534349505E+02 -0.15582802223E+03  0.17719147445E+03  0.80811713573E+02 0.  0.
         -6    2    1    2    0  502 -0.54706623844E+02 -0.11873037473E+03 -0.36271748694E+03  0.42173199086E+03  0.17089230585E+03 0.  0.
        -24    2    5    5    0    0 -0.60769307520E+02 -0.14032964359E+03 -0.35941853831E+03  0.39857475418E+03  0.79339973394E+02 0.  0.
          5    1    3    3  501    0  0.32959427833E+02  0.12926472424E+03 -0.24811941538E+03  0.28174638792E+03  0.47000000000E+01 0. -1.
        -13    1    4    4    0    0  0.39430510007E+02  0.10422828885E+00 -0.29643725652E+02  0.49330786062E+02  0.00000000000E+00 0.  1.
         14    1    4    4    0    0 -0.17683313996E+02 -0.10638577794E+02 -0.12618429658E+03  0.12786068839E+03  0.00000000000E+00 0. -1.
         -5    1    5    5    0  502  0.60626836764E+01  0.21599268857E+02 -0.32989486338E+01  0.23157236679E+02  0.47000000000E+01 0.  1.
         11    1    6    6    0    0  0.21948292999E+01 -0.57663389251E+02 -0.20097343230E+03  0.20909376898E+03  0.00000000000E+00 0. -1.
        -12    1    6    6    0    0 -0.62964136820E+02 -0.82666254341E+02 -0.15844510601E+03  0.18948098519E+03  0.00000000000E+00 0.  1.
</event>
<event>
12    1  0.8421768E-002  0.2070855E+03  0.7818608E-02  0.1144496E+00
         21   -1    0    0  503  502  0.00000000000E+00  0.00000000000E+00  0.10239989666E+04  0.10239989666E+04  0.00000000000E+00 0.  1.
         21   -1    0    0  501  503 -0.00000000000E+00 -0.00000000000E+00 -0.47129488708E+02  0.47129488708E+02  0.00000000000E+00 0.  1.
          6    2    1    2  501    0 -0.10775315568E+03 -0.18612595042E+02  0.30288427570E+03  0.36691047323E+03  0.17586142170E+03 0.  0.
         24    2    3    3    0    0  0.13141626991E+02  0.35092936850E+01  0.15832406242E+03  0.17710880910E+03  0.78204884889E+02 0.  0.
         -6    2    1    2    0  502  0.10775315568E+03  0.18612595042E+02  0.67398520220E+03  0.70421798209E+03  0.17236514224E+03 0.  0.
        -24    2    5    5    0    0  0.94797435523E+02 -0.48883007416E+02  0.49430665843E+03  0.51178623801E+03  0.78803417810E+02 0.  0.
          5    1    3    3  501    0 -0.12089478267E+03 -0.22121888727E+02  0.14456021328E+03  0.18980166412E+03  0.47000000000E+01 0. -1.
        -13    1    4    4    0    0  0.50153577082E+01  0.99597432886E+01 -0.58600264431E+01  0.12597230221E+02  0.00000000000E+00 0.  1.
         14    1    4    4    0    0  0.81262692824E+01 -0.64504496037E+01  0.16418408886E+03  0.16451157888E+03  0.00000000000E+00 0. -1.
         -5    1    5    5    0  502  0.12955720159E+02  0.67495602458E+02  0.17967854377E+03  0.19243174407E+03  0.47000000000E+01 0.  1.
         11    1    6    6    0    0  0.66213912279E+02 -0.87050756627E+01  0.15305529022E+03  0.16699096499E+03  0.00000000000E+00 0. -1.
        -12    1    6    6    0    0  0.28583523244E+02 -0.40177931753E+02  0.34125136820E+03  0.34479527303E+03  0.00000000000E+00 0.  1.
</event>
<event>
12    1  0.8421768E-002  0.2235824E+03  0.7818608E-02  0.1131300E+00
         21   -1    0    0  503  502  0.00000000000E+00  0.00000000000E+00  0.51309248775E+03  0.51309248775E+03  0.00000000000E+00 0. -1.
         21   -1    0    0  501  503 -0.00000000000E+00 -0.00000000000E+00 -0.10148122814E+03  0.10148122814E+03  0.00000000000E+00 0. -1.
          6    2    1    2  501    0  0.13633673340E+03  0.39447943414E+02  0.26844366403E+03  0.34935808226E+03  0.17275770248E+03 0.  0.
         24    2    3    3    0    0  0.11821197132E+02  0.21515235774E+02  0.50788643102E+02  0.97919225056E+02  0.80037755437E+02 0.  0.
         -6    2    1    2    0  502 -0.13633673340E+03 -0.39447943414E+02  0.14316759558E+03  0.26521563363E+03  0.17233260510E+03 0.  0.
        -24    2    5    5    0    0 -0.12982293833E+03 -0.15500328240E+02  0.40151436653E+02  0.15914802877E+03  0.81373839200E+02 0.  0.
          5    1    3    3  501    0  0.12451553627E+03  0.17932707640E+02  0.21765502093E+03  0.25143885720E+03  0.47000000000E+01 0. -1.
        -11    1    4    4    0    0 -0.57608127899E+01  0.54538876520E+01  0.68047902551E+02  0.68508750508E+02  0.00000000000E+00 0.  1.
         12    1    4    4    0    0  0.17582009922E+02  0.16061348122E+02 -0.17259259449E+02  0.29410474548E+02  0.00000000000E+00 0. -1.
         -5    1    5    5    0  502 -0.65137950773E+01 -0.23947615173E+02  0.10301615893E+03  0.10606760485E+03  0.47000000000E+01 0.  1.
         13    1    6    6    0    0 -0.75948746240E+01 -0.27104147618E+02 -0.44950639358E+01  0.28504780975E+02  0.00000000000E+00 0. -1.
        -14    1    6    6    0    0 -0.12222806370E+03  0.11603819378E+02  0.44646500589E+02  0.13064324780E+03  0.00000000000E+00 0.  1.
</event>
<event>
12    1  0.8421768E-002  0.2092721E+03  0.7818608E-02  0.1142598E+00
         21   -1    0    0  503  502  0.00000000000E+00  0.00000000000E+00  0.15933263169E+04  0.15933263169E+04  0.00000000000E+00 0.  1.
         21   -1    0    0  501  503 -0.00000000000E+00 -0.00000000000E+00 -0.28371992938E+02  0.28371992938E+02  0.00000000000E+00 0. -1.
          6    2    1    2  501    0 -0.60472183914E+02  0.10320740377E+03  0.61280909347E+03  0.64682633748E+03  0.16893984905E+03 0.  0.
         24    2    3    3    0    0 -0.92852561640E+02  0.86052913267E+02  0.33850358087E+03  0.37004416745E+03  0.79506663329E+02 0.  0.
         -6    2    1    2    0  502  0.60472183914E+02 -0.10320740377E+03  0.95214523046E+03  0.97487197232E+03  0.17171537298E+03 0.  0.
        -24    2    5    5    0    0 -0.21179803032E+02 -0.80642852049E+01  0.41087821899E+03  0.41925400314E+03  0.80245819527E+02 0.  0.
          5    1    3    3  501    0  0.32380377725E+02  0.17154490507E+02  0.27430551260E+03  0.27678217003E+03  0.47000000000E+01 0. -1.
        -13    1    4    4    0    0 -0.73555781849E+02  0.38124923069E+02  0.12207491890E+03  0.14753388976E+03  0.00000000000E+00 0.  1.
         14    1    4    4    0    0 -0.19296779790E+02  0.47927990198E+02  0.21642866197E+03  0.22251027769E+03  0.00000000000E+00 0. -1.
         -5    1    5    5    0  502  0.81651986946E+02 -0.95143118569E+02  0.54126701146E+03  0.55561796918E+03  0.47000000000E+01 0.  1.
         13    1    6    6    0    0  0.24168947414E+01 -0.39285564396E+02  0.27668766839E+03  0.27947318797E+03  0.00000000000E+00 0. -1.
        -14    1    6    6    0    0 -0.23596697774E+02  0.31221279191E+02  0.13419055060E+03  0.13978081517E+03  0.00000000000E+00 0.  1.
</event>
<event>
12    1  0.8421768E-002  0.2086365E+03  0.7818608E-02  0.1142720E+00
         21   -1    0    0  503  502  0.00000000000E+00  0.00000000000E+00  0.40844139232E+03  0.40844139232E+03  0.00000000000E+00 0.  1.
         21   -1    0    0  501  503 -0.00000000000E+00 -0.00000000000E+00 -0.20701932875E+03  0.20701932875E+03  0.00000000000E+00 0.  1.
          6    2    1    2  501    0 -0.16272263970E+02 -0.11674348134E+03  0.31521007495E+03  0.37781203202E+03  0.17172860328E+03 0.  0.
         24    2    3    3    0    0 -0.79165149574E+01  0.99186024570E+01  0.13093826162E+03  0.15400118957E+03  0.80065524099E+02 0.  0.
         -6    2    1    2    0  502  0.16272263970E+02  0.11674348134E+03 -0.11378801138E+03  0.23764868904E+03  0.17214924008E+03 0.  0.
        -24    2    5    5    0    0 -0.17674883747E+02  0.11683390955E+03 -0.13572628635E+03  0.19695722896E+03  0.80049742651E+02 0.  0.
          5    1    3    3  501    0 -0.83557490124E+01 -0.12666208380E+03  0.18427181333E+03  0.22381084246E+03  0.47000000000E+01 0. -1.
        -13    1    4    4    0    0 -0.20949755456E+02  0.11075200182E+02  0.13738572546E+03  0.13941445360E+03  0.00000000000E+00 0.  1.
         14    1    4    4    0    0  0.13033240499E+02 -0.11565977245E+01 -0.64474638425E+01  0.14586735968E+02  0.00000000000E+00 0. -1.
         -5    1    5    5    0  502  0.33947147717E+02 -0.90428207505E-01  0.21938274966E+02  0.40691460085E+02  0.47000000000E+01 0.  1.
         13    1    6    6    0    0 -0.18182892891E+02  0.49810615032E+02 -0.92607332778E+01  0.53828209561E+02  0.00000000000E+00 0. -1.
        -14    1    6    6    0    0  0.50800914376E+00  0.67023294515E+02 -0.12646555307E+03  0.14312901940E+03  0.00000000000E+00 0.  1.
</event>
<event>
12    1  0.8421768E-002  0.2836635E+03  0.7818608E-02  0.1095049E+00
         21   -1    0    0  501  502  0.00000000000E+00  0.00000000000E+00  0.12027295177E+03  0.12027295177E+03  0.00000000000E+00 0.  1.
         21   -1    0    0  502  503 -0.00000000000E+00 -0.00000000000E+00 -0.65835524454E+03  0.65835524454E+03  0.00000000000E+00 0. -1.
         -6    2    1    2    0  503  0.21322899022E+03  0.78882397822E-01 -0.32691002566E+03  0.43282233199E+03  0.18707858697E+03 0.  0.
        -24    2    3    3    0    0  0.12984259322E+03 -0.74705580544E+02 -0.21834948937E+03  0.27676629353E+03  0.80517444984E+02 0.  0.
          6    2    1    2  501    0 -0.21322899022E+03 -0.78882397822E-01 -0.21117226711E+03  0.34580586432E+03  0.17181781314E+03 0.  0.
         24    2    5    5    0    0 -0.12059367293E+03  0.44856408167E+02 -0.18581019763E+03  0.23966535878E+03  0.79744111708E+02 0.  0.
          5    1    5    5  501    0 -0.92635317292E+02 -0.44935290564E+02 -0.25362069473E+02  0.10614050554E+03  0.47000000000E+01 0. -1.
        -11    1    6    6    0    0 -0.13841663512E+02  0.15494351719E+02  0.27958113589E+01  0.20963853298E+02  0.00000000000E+00 0.  1.
         12    1    6    6    0    0 -0.10675200941E+03  0.29362056448E+02 -0.18860600899E+03  0.21870150548E+03  0.00000000000E+00 0. -1.
         -5    1    3    3    0  503  0.83386397002E+02  0.74784462942E+02 -0.10856053629E+03  0.15605603846E+03  0.47000000000E+01 0.  1.
         11    1    4    4    0    0  0.30330452121E+01  0.11468160059E+02 -0.39259979676E+02  0.41012974320E+02  0.00000000000E+00 0. -1.
        -12    1    4    4    0    0  0.12680954800E+03 -0.86173740603E+02 -0.17908950970E+03  0.23575331921E+03  0.00000000000E+00 0.  1.
</event>
<event>
12    1  0.8421768E-002  0.1991155E+03  0.7818608E-02  0.1150987E+00
         21   -1    0    0  501  502  0.00000000000E+00  0.00000000000E+00  0.11831537308E+03  0.11831537308E+03  0.00000000000E+00 0.  1.
         21   -1    0    0  502  503 -0.00000000000E+00 -0.00000000000E+00 -0.38094062369E+03  0.38094062369E+03  0.00000000000E+00 0.  1.
         -6    2    1    2    0  503  0.53563618656E+02 -0.79922260309E+02 -0.22086943562E+03  0.29580932167E+03  0.17164853119E+03 0.  0.
        -24    2    3    3    0    0 -0.27678392868E+02 -0.67272090980E+02 -0.16280525319E+03  0.19504310460E+03  0.79023000014E+02 0.  0.
          6    2    1    2  501    0 -0.53563618656E+02  0.79922260309E+02 -0.41755814991E+02  0.20344667510E+03  0.17432834706E+03 0.  0.
         24    2    5    5    0    0 -0.47186421837E+02 -0.21350148934E+02 -0.37904109862E+02  0.10179189093E+03  0.79009368110E+02 0.  0.
          5    1    5    5  501    0 -0.63771968195E+01  0.10127240924E+03 -0.38517051292E+01  0.10165478418E+03  0.47000000000E+01 0. -1.
        -11    1    6    6    0    0 -0.49977376389E+02 -0.39508614046E+02 -0.47457994583E+01  0.63884202641E+02  0.00000000000E+00 0.  1.
         12    1    6    6    0    0  0.27909545519E+01  0.18158465112E+02 -0.33158310404E+02  0.37907688288E+02  0.00000000000E+00 0. -1.
         -5    1    3    3    0  503  0.81242011524E+02 -0.12650169330E+02 -0.58064182426E+02  0.10076621706E+03  0.47000000000E+01 0.  1.
         11    1    4    4    0    0 -0.26328667445E+02 -0.70712117456E+02 -0.72429234359E+02  0.10459156885E+03  0.00000000000E+00 0. -1.
        -12    1    4    4    0    0 -0.13497254230E+01  0.34400264759E+01 -0.90376018831E+02  0.90451535756E+02  0.00000000000E+00 0.  1.
</event>
<event>
12    1  0.8421768E-002  0.1770492E+03  0.7818608E-02  0.1170823E+00
         21   -1    0    0  501  502  0.00000000000E+00  0.00000000000E+00  0.47380854982E+03  0.47380854982E+03  0.00000000000E+00 0. -1.
         21   -1    0    0  502  503 -0.00000000000E+00 -0.00000000000E+00 -0.59746749467E+03  0.59746749467E+03  0.00000000000E+00 0. -1.
         -6    2    1    2    0  503 -0.31908372875E+02  0.27708979194E+02 -0.56704760781E+03  0.59404495402E+03  0.17193163201E+03 0.  0.
        -24    2    3    3    0    0  0.13259234204E+02  0.65427560377E+02 -0.46663163198E+03  0.47756206988E+03  0.76575960167E+02 0.  0.
          6    2    1    2  501    0  0.31908372875E+02 -0.27708979194E+02  0.44338866296E+03  0.47723109047E+03  0.17137699810E+03 0.  0.
         24    2    5    5    0    0  0.85724686746E+01 -0.19697149472E+02  0.88236214827E+02  0.12119161898E+03  0.80251566887E+02 0.  0.
          5    1    5    5  501    0  0.23335904201E+02 -0.80118297223E+01  0.35515244814E+03  0.35603947149E+03  0.47000000000E+01 0. -1.
        -11    1    6    6    0    0  0.27408134184E+02 -0.41339653486E+02  0.74199275218E+02  0.89250799507E+02  0.00000000000E+00 0.  1.
         12    1    6    6    0    0 -0.18835665509E+02  0.21642504014E+02  0.14036939610E+02  0.31940819475E+02  0.00000000000E+00 0. -1.
         -5    1    3    3    0  503 -0.45167607079E+02 -0.37718581182E+02 -0.10041597583E+03  0.11648288414E+03  0.47000000000E+01 0.  1.
         11    1    4    4    0    0 -0.14192849250E+02  0.57405215488E+02 -0.17905902201E+03  0.18857075356E+03  0.00000000000E+00 0. -1.
        -12    1    4    4    0    0  0.27452083453E+02  0.80223448887E+01 -0.28757260997E+03  0.28899131632E+03  0.00000000000E+00 0.  1.
</event>
<event>
12    1  0.8421768E-002  0.1922533E+03  0.7818608E-02  0.1156862E+00
         21   -1    0    0  503  502  0.00000000000E+00  0.00000000000E+00  0.63237174099E+03  0.63237174099E+03  0.00000000000E+00 0.  1.
         21   -1    0    0  501  503 -0.00000000000E+00 -0.00000000000E+00 -0.93757861483E+02  0.93757861483E+02  0.00000000000E+00 0.  1.
          6    2    1    2  501    0  0.27334260845E+02 -0.77633641614E+02  0.43908223980E+02  0.19538010323E+03  0.17167209580E+03 0.  0.
         24    2    3    3    0    0  0.81352515472E+01 -0.28679566451E+02  0.91085588920E+02  0.12457828690E+03  0.79589353607E+02 0.  0.
         -6    2    1    2    0  502 -0.27334260845E+02  0.77633641614E+02  0.49470565553E+03  0.53074949925E+03  0.17374464370E+03 0.  0.
        -24    2    5    5    0    0 -0.26165781927E+02 -0.52443563484E+01  0.37782585315E+03  0.38738595405E+03  0.81261003349E+02 0.  0.
          5    1    3    3  501    0  0.19199009298E+02 -0.48954075163E+02 -0.47177364940E+02  0.70801816331E+02  0.47000000000E+01 0. -1.
        -11    1    4    4    0    0  0.31342447734E+02 -0.27631239598E+02  0.13996825472E+02  0.44065242027E+02  0.00000000000E+00 0.  1.
         12    1    4    4    0    0 -0.23207196186E+02 -0.10483268528E+01  0.77088763448E+02  0.80513044868E+02  0.00000000000E+00 0. -1.
         -5    1    5    5    0  502 -0.11684789176E+01  0.82877997962E+02  0.11687980238E+03  0.14336354520E+03  0.47000000000E+01 0.  1.
         11    1    6    6    0    0  0.17363020289E+02 -0.22293590409E+02  0.62212150632E+02  0.68328839688E+02  0.00000000000E+00 0. -1.
        -12    1    6    6    0    0 -0.43528802216E+02  0.17049234061E+02  0.31561370252E+03  0.31905711436E+03  0.00000000000E+00 0.  1.
</event>
<event>
12    1  0.8421768E-002  0.2120927E+03  0.7818608E-02  0.1140976E+00
         21   -1    0    0  501  502  0.00000000000E+00  0.00000000000E+00  0.41331153806E+03  0.41331153806E+03  0.00000000000E+00 0. -1.
         21   -1    0    0  502  503 -0.00000000000E+00 -0.00000000000E+00 -0.11690334168E+03  0.11690334168E+03  0.00000000000E+00 0. -1.
         -6    2    1    2    0  503  0.59511149953E+02  0.97834558530E+02  0.65966397321E+02  0.21702683237E+03  0.17215081348E+03 0.  0.
        -24    2    3    3    0    0 -0.32783848770E+01  0.26856567563E+02  0.87530320120E+02  0.11972578586E+03  0.77075831689E+02 0.  0.
          6    2    1    2  501    0 -0.59511149953E+02 -0.97834558530E+02  0.23044179906E+03  0.31318804738E+03  0.17852213435E+03 0.  0.
         24    2    5    5    0    0 -0.19199062953E+02  0.23545822183E+02  0.10445888922E+03  0.13359950445E+03  0.77551004442E+02 0.  0.
          5    1    5    5  501    0 -0.40312087000E+02 -0.12138038071E+03  0.12598290984E+03  0.17958854293E+03  0.47000000000E+01 0. -1.
        -11    1    6    6    0    0 -0.30682536566E+02  0.19340707352E+02  0.90120583979E+01  0.37372425765E+02  0.00000000000E+00 0.  1.
         12    1    6    6    0    0  0.11483473613E+02  0.42051148315E+01  0.95446830827E+02  0.96227078683E+02  0.00000000000E+00 0. -1.
         -5    1    3    3    0  503  0.62789534830E+02  0.70977990966E+02 -0.21563922798E+02  0.97301046511E+02  0.47000000000E+01 0.  1.
         13    1    4    4    0    0  0.66561824390E+01 -0.76528913029E+01  0.82899274888E+02  0.83517431036E+02  0.00000000000E+00 0. -1.
        -14    1    4    4    0    0 -0.99345673160E+01  0.34509458866E+02  0.46310452319E+01  0.36208354822E+02  0.00000000000E+00 0.  1.
</event>
<event>
12    1  0.8421768E-002  0.1738194E+03  0.7818608E-02  0.1173973E+00
         21   -1    0    0  503  502  0.00000000000E+00  0.00000000000E+00  0.10424120113E+03  0.10424120113E+03  0.00000000000E+00 0.  1.
         21   -1    0    0  501  503 -0.00000000000E+00 -0.00000000000E+00 -0.28969475844E+03  0.28969475844E+03  0.00000000000E+00 0.  1.
          6    2    1    2  501    0 -0.20242565793E+02  0.16231114205E+02 -0.97741392181E+02  0.19923975328E+03  0.17166796149E+03 0.  0.
         24    2    3    3    0    0  0.48423635346E+02 -0.21176608062E+02 -0.46344899496E+02  0.10554837521E+03  0.78735713697E+02 0.  0.
         -6    2    1    2    0  502  0.20242565793E+02 -0.16231114205E+02 -0.87712165127E+02  0.19469620630E+03  0.17187198229E+03 0.  0.
        -24    2    5    5    0    0 -0.20848862250E+02  0.34193806329E+01  0.14113243923E+02  0.83048764167E+02  0.79066720904E+02 0.  0.
          5    1    3    3  501    0 -0.68666201139E+02  0.37407722267E+02 -0.51396492686E+02  0.93691378069E+02  0.47000000000E+01 0. -1.
        -11    1    4    4    0    0  0.30432013776E+02 -0.40192018232E+02  0.21281627246E+01  0.50458248767E+02  0.00000000000E+00 0.  1.
         12    1    4    4    0    0  0.17991621570E+02  0.19015410170E+02 -0.48473062220E+02  0.55090126444E+02  0.00000000000E+00 0. -1.
         -5    1    5    5    0  502  0.41091428044E+02 -0.19650494838E+02 -0.10182540905E+03  0.11164744213E+03  0.47000000000E+01 0.  1.
         13    1    6    6    0    0 -0.10076630892E+02 -0.25032159465E+02  0.36417971861E+02  0.45325667916E+02  0.00000000000E+00 0. -1.
        -14    1    6    6    0    0 -0.10772231358E+02  0.28451540098E+02 -0.22304727938E+02  0.37723096251E+02  0.00000000000E+00 0.  1.
</event>
<event>
12    1  0.8421768E-002  0.1941213E+03  0.7818608E-02  0.1155151E+00
         21   -1    0    0  503  502  0.00000000000E+00  0.00000000000E+00  0.15966027497E+03  0.15966027497E+03  0.00000000000E+00 0.  1.
         21   -1    0    0  501  503 -0.00000000000E+00 -0.00000000000E+00 -0.27701709205E+03  0.27701709205E+03  0.00000000000E+00 0.  1.
          6    2    1    2  501    0  0.44391842728E+02  0.74470860955E+02 -0.14486038868E+03  0.24221398176E+03  0.17368516321E+03 0.  0.
         24    2    3    3    0    0  0.76284666703E+02  0.10256755144E+03 -0.12321698736E+03  0.19428587875E+03  0.78899453250E+02 0.  0.
         -6    2    1    2    0  502 -0.44391842728E+02 -0.74470860955E+02  0.27503571599E+02  0.19446338526E+03  0.17188082186E+03 0.  0.
        -24    2    5    5    0    0 -0.29198946771E+02  0.12538957407E+02  0.53640977266E+02  0.10223114277E+03  0.81018813646E+02 0.  0.
          5    1    3    3  501    0 -0.31892823975E+02 -0.28096690487E+02 -0.21643401317E+02  0.47928103009E+02  0.47000000000E+01 0. -1.
        -11    1    4    4    0    0  0.57509109219E+02  0.13501488646E+02 -0.44739970275E+02  0.74102987653E+02  0.00000000000E+00 0.  1.
         12    1    4    4    0    0  0.18775557483E+02  0.89066062797E+02 -0.78477017086E+02  0.12018289109E+03  0.00000000000E+00 0. -1.
         -5    1    5    5    0  502 -0.15192895956E+02 -0.87009818363E+02 -0.26137405666E+02  0.92232242486E+02  0.47000000000E+01 0.  1.
         13    1    6    6    0    0  0.29580398787E+01  0.14729095984E+02 -0.18135590739E+02  0.23549860294E+02  0.00000000000E+00 0. -1.
        -14    1    6    6    0    0 -0.32156986650E+02 -0.21901385765E+01  0.71776568005E+02  0.78681282475E+02  0.00000000000E+00 0.  1.
</event>
<event>
12    1  0.8421768E-002  0.2640646E+03  0.7818608E-02  0.1105883E+00
         21   -1    0    0  501  502  0.00000000000E+00  0.00000000000E+00  0.50265002136E+02  0.50265002136E+02  0.00000000000E+00 0. -1.
         21   -1    0    0  502  503 -0.00000000000E+00 -0.00000000000E+00 -0.17415695823E+04  0.17415695823E+04  0.00000000000E+00 0.  1.
         -6    2    1    2    0  503 -0.12664728454E+03  0.15606526729E+03 -0.12818467088E+04  0.13087631984E+04  0.17127236311E+03 0.  0.
        -24    2    3    3    0    0 -0.64382351952E+02  0.77392467982E+02 -0.38758476757E+03  0.40887829428E+03  0.82612505946E+02 0.  0.
          6    2    1    2  501    0  0.12664728454E+03 -0.15606526729E+03 -0.40945787136E+03  0.48307138600E+03  0.15907958140E+03 0.  0.
         24    2    5    5    0    0  0.32960997048E+02 -0.11058930859E+03 -0.30318681029E+03  0.33420630714E+03  0.80344205117E+02 0.  0.
          5    1    5    5  501    0  0.93686287494E+02 -0.45475958702E+02 -0.10627106107E+03  0.14886507886E+03  0.47000000000E+01 0. -1.
        -13    1    6    6    0    0  0.48314977166E+02 -0.50226778663E+02 -0.21666354244E+03  0.22759647831E+03  0.00000000000E+00 0.  1.
         14    1    6    6    0    0 -0.15353980117E+02 -0.60362529928E+02 -0.86523267852E+02  0.10660982884E+03  0.00000000000E+00 0. -1.
         -5    1    3    3    0  503 -0.62264932591E+02  0.78672799311E+02 -0.89426194121E+03  0.89988490412E+03  0.47000000000E+01 0.  1.
         11    1    4    4    0    0 -0.61165113066E+02  0.94568046494E+02 -0.32901220198E+03  0.34775467721E+03  0.00000000000E+00 0. -1.
        -12    1    4    4    0    0 -0.32172388857E+01 -0.17175578512E+02 -0.58572565591E+02  0.61123617065E+02  0.00000000000E+00 0.  1.
</event>
<event>
12    1  0.8421768E-002  0.1861944E+03  0.7818608E-02  0.1161974E+00
         21   -1    0    0  503  502  0.00000000000E+00  0.00000000000E+00  0.45735754188E+03  0.45735754188E+03  0.00000000000E+00 0.  1.
         21   -1    0    0  501  503 -0.00000000000E+00 -0.00000000000E+00 -0.75765191008E+02  0.75765191008E+02  0.00000000000E+00 0.  1.
          6    2    1    2  501    0  0.52612314726E+02 -0.45317262640E+02  0.18600898589E+03  0.26318759165E+03  0.17276184651E+03 0.  0.
         24    2    3    3    0    0 -0.32382559179E+02 -0.52431625246E+02  0.94341124762E+02  0.13788863112E+03  0.79468995877E+02 0.  0.
         -6    2    1    2    0  502 -0.52612314726E+02  0.45317262640E+02  0.19558336498E+03  0.26993514124E+03  0.17259900888E+03 0.  0.
        -24    2    5    5    0    0 -0.33279382552E+02  0.12715530535E+02  0.17574800998E+02  0.87875332238E+02  0.78383661346E+02 0.  0.
          5    1    3    3  501    0  0.84994873905E+02  0.71143626060E+01  0.91667861126E+02  0.12529896053E+03  0.47000000000E+01 0. -1.
        -11    1    4    4    0    0  0.17560794964E+02  0.96961753457E+01  0.12463816747E+02  0.23616605684E+02  0.00000000000E+00 0.  1.
         12    1    4    4    0    0 -0.49943354143E+02 -0.62127800592E+02  0.81877308014E+02  0.11427202544E+03  0.00000000000E+00 0. -1.
         -5    1    5    5    0  502 -0.19332932175E+02  0.32601732105E+02  0.17800856398E+03  0.18205980900E+03  0.47000000000E+01 0.  1.
         13    1    6    6    0    0  0.94117554891E+01  0.32904870122E+02 -0.65500937980E+01  0.34845592948E+02  0.00000000000E+00 0. -1.
        -14    1    6    6    0    0 -0.42691138041E+02 -0.20189339587E+02  0.24124894796E+02  0.53029739290E+02  0.00000000000E+00 0.  1.
</event>
<event>
12    1  0.8421768E-002  0.2249680E+03  0.7818608E-02  0.1130386E+00
         21   -1    0    0  501  502  0.00000000000E+00  0.00000000000E+00  0.13764484963E+03  0.13764484963E+03  0.00000000000E+00 0. -1.
         21   -1    0    0  502  503 -0.00000000000E+00 -0.00000000000E+00 -0.46534405728E+03  0.46534405728E+03  0.00000000000E+00 0. -1.
         -6    2    1    2    0  503  0.11086630777E+03  0.91660538559E+02 -0.30269508859E+03  0.37663559037E+03  0.17186348870E+03 0.  0.
        -24    2    3    3    0    0  0.13469663382E+03  0.11091394276E+03 -0.27515089123E+03  0.33517053495E+03  0.78652327951E+02 0.  0.
          6    2    1    2  501    0 -0.11086630777E+03 -0.91660538559E+02 -0.25004119060E+02  0.22635331654E+03  0.17296712234E+03 0.  0.
         24    2    5    5    0    0 -0.75164695567E+02  0.39958853563E+01  0.27290265251E+02  0.11154238857E+03  0.77661105522E+02 0.  0.
          5    1    5    5  501    0 -0.35701612202E+02 -0.95656423915E+02 -0.52294384311E+02  0.11481092797E+03  0.47000000000E+01 0. -1.
        -13    1    6    6    0    0 -0.35049800328E+01  0.31020802527E+02  0.38819426309E+01  0.31458616515E+02  0.00000000000E+00 0.  1.
         14    1    6    6    0    0 -0.71659715534E+02 -0.27024917171E+02  0.23408322620E+02  0.80083772054E+02  0.00000000000E+00 0. -1.
         -5    1    3    3    0  503 -0.23830326050E+02 -0.19253404200E+02 -0.27544197362E+02  0.41465055423E+02  0.47000000000E+01 0.  1.
         11    1    4    4    0    0  0.10306742056E+03  0.70443286872E+02 -0.24661244401E+03  0.27641064991E+03  0.00000000000E+00 0. -1.
        -12    1    4    4    0    0  0.31629213262E+02  0.40470655887E+02 -0.28538447221E+02  0.58759885035E+02  0.00000000000E+00 0.  1.
</event>
<event>
12    1  0.8421768E-002  0.1745342E+03  0.7818608E-02  0.1173361E+00
         21   -1    0    0  503  502  0.00000000000E+00  0.00000000000E+00  0.12135023896E+04  0.12135023896E+04  0.00000000000E+00 0. -1.
         21   -1    0    0  501  503 -0.00000000000E+00 -0.00000000000E+00 -0.47848511018E+02  0.47848511018E+02  0.00000000000E+00 0. -1.
          6    2    1    2  501    0  0.25429140022E+02 -0.33112700401E+01  0.14767777678E+03  0.22862829447E+03  0.17263998843E+03 0.  0.
         24    2    3    3    0    0  0.60794648726E+02  0.39032199622E+01  0.16082931188E+03  0.18992660268E+03  0.80590460997E+02 0.  0.
         -6    2    1    2    0  502 -0.25429140022E+02  0.33112700401E+01  0.10179761018E+04  0.10327226061E+04  0.17199718528E+03 0.  0.
        -24    2    5    5    0    0  0.11452168053E+02  0.25351438988E+02  0.93854460993E+03  0.94229334190E+03  0.79226950823E+02 0.  0.
          5    1    3    3  501    0 -0.35365508704E+02 -0.72144900023E+01 -0.13151535103E+02  0.38701691791E+02  0.47000000000E+01 0. -1.
        -11    1    4    4    0    0  0.38835011819E+02 -0.21558120284E+02  0.27092658381E+02  0.52028096556E+02  0.00000000000E+00 0.  1.
         12    1    4    4    0    0  0.21959636907E+02  0.25461340246E+02  0.13373665350E+03  0.13789850612E+03  0.00000000000E+00 0. -1.
         -5    1    5    5    0  502 -0.36881308075E+02 -0.22040168948E+02  0.79431491846E+02  0.90429264231E+02  0.47000000000E+01 0.  1.
         13    1    6    6    0    0 -0.32475459970E+02 -0.10124848180E+01  0.39995880616E+03  0.40127637266E+03  0.00000000000E+00 0. -1.
        -14    1    6    6    0    0  0.43927628024E+02  0.26363923806E+02  0.53858580377E+03  0.54101696924E+03  0.00000000000E+00 0.  1.
</event>
<event>
12    1  0.8421768E-002  0.1732196E+03  0.7818608E-02  0.1174596E+00
         21   -1    0    0  501  502  0.00000000000E+00  0.00000000000E+00  0.63925577665E+02  0.63925577665E+02  0.00000000000E+00 0. -1.
         21   -1    0    0  502  503 -0.00000000000E+00 -0.00000000000E+00 -0.80423813013E+03  0.80423813013E+03  0.00000000000E+00 0. -1.
         -6    2    1    2    0  503 -0.28436591110E+01 -0.13785398807E+02 -0.65070257024E+03  0.67336384951E+03  0.17264679346E+03 0.  0.
        -24    2    3    3    0    0 -0.33901401986E+02  0.51570874710E+02 -0.37300873172E+03  0.38635865124E+03  0.79552707527E+02 0.  0.
          6    2    1    2  501    0  0.28436591110E+01  0.13785398807E+02 -0.89609982226E+02  0.19479985829E+03  0.17239174068E+03 0.  0.
         24    2    5    5    0    0  0.20359654662E+02  0.23508319137E+02  0.92114194738E+01  0.93858763019E+02  0.88076447136E+02 0.  0.
          5    1    5    5  501    0 -0.17515995551E+02 -0.97229203298E+01 -0.98821401699E+02  0.10094109527E+03  0.47000000000E+01 0. -1.
        -13    1    6    6    0    0  0.58242428208E+01 -0.27115823411E+02 -0.19470075281E+02  0.33886184723E+02  0.00000000000E+00 0.  1.
         14    1    6    6    0    0  0.14535411841E+02  0.50624142547E+02  0.28681494755E+02  0.59972578295E+02  0.00000000000E+00 0. -1.
         -5    1    3    3    0  503  0.31057742875E+02 -0.65356273517E+02 -0.27769383853E+03  0.28700519827E+03  0.47000000000E+01 0.  1.
         11    1    4    4    0    0  0.65402257146E+01  0.21202780241E+02 -0.27661280184E+03  0.27750130555E+03  0.00000000000E+00 0. -1.
        -12    1    4    4    0    0 -0.40441627701E+02  0.30368094469E+02 -0.96395929880E+02  0.10885734569E+03  0.00000000000E+00 0.  1.
</event>
<event>
12    1  0.8421768E-002  0.2174905E+03  0.7818608E-02  0.1135989E+00
         21   -1    0    0  501  502  0.00000000000E+00  0.00000000000E+00  0.39745860282E+02  0.39745860282E+02  0.00000000000E+00 0.  1.
         21   -1    0    0  502  503 -0.00000000000E+00 -0.00000000000E+00 -0.11877393093E+04  0.11877393093E+04  0.00000000000E+00 0. -1.
         -6    2    1    2    0  503 -0.35695727989E+01 -0.13216500413E+03 -0.60801093880E+03  0.64534839634E+03  0.17122184670E+03 0.  0.
        -24    2    3    3    0    0 -0.57761443053E+02 -0.75720390292E+02 -0.26334881815E+03  0.29188436614E+03  0.82303835671E+02 0.  0.
          6    2    1    2  501    0  0.35695727989E+01  0.13216500413E+03 -0.53998251021E+03  0.58213677324E+03  0.17268984120E+03 0.  0.
         24    2    5    5    0    0 -0.56346632835E+02  0.12214546991E+03 -0.37251461985E+03  0.40392923394E+03  0.79355057628E+02 0.  0.
          5    1    5    5  501    0  0.59916205634E+02  0.10019534222E+02 -0.16746789036E+03  0.17820753930E+03  0.47000000000E+01 0. -1.
        -13    1    6    6    0    0 -0.69432417193E+02  0.66247371948E+02 -0.26832473614E+03  0.28496971571E+03  0.00000000000E+00 0.  1.
         14    1    6    6    0    0  0.13085784358E+02  0.55898097960E+02 -0.10418988371E+03  0.11895951822E+03  0.00000000000E+00 0. -1.
         -5    1    3    3    0  503  0.54191870254E+02 -0.56444613838E+02 -0.34466212065E+03  0.35346403020E+03  0.47000000000E+01 0.  1.
         13    1    4    4    0    0 -0.17846289645E+02 -0.33549258677E+02 -0.20875076041E+03  0.21218134410E+03  0.00000000000E+00 0. -1.
        -14    1    4    4    0    0 -0.39915153408E+02 -0.42171131615E+02 -0.54598057736E+02  0.79703022037E+02  0.00000000000E+00 0.  1.
</event>
<event>
12    1  0.8421768E-002  0.1988420E+03  0.7818608E-02  0.1151199E+00
         21   -1    0    0  501  502  0.00000000000E+00  0.00000000000E+00  0.28365287414E+03  0.28365287414E+03  0.00000000000E+00 0. -1.
         21   -1    0    0  502  503 -0.00000000000E+00 -0.00000000000E+00 -0.27363121015E+03  0.27363121015E+03  0.00000000000E+00 0. -1.
         -6    2    1    2    0  503  0.64067917142E+01  0.95046434722E+02 -0.19130540325E+03  0.27431634065E+03  0.17197914322E+03 0.  0.
        -24    2    3    3    0    0 -0.49841060377E+01  0.13327075208E+03 -0.14284920652E+03  0.21138030972E+03  0.80559325095E+02 0.  0.
          6    2    1    2  501    0 -0.64067917142E+01 -0.95046434722E+02  0.20132706724E+03  0.28296774364E+03  0.17453734329E+03 0.  0.
         24    2    5    5    0    0 -0.21738545447E+02 -0.13365203698E+03  0.14942259217E+03  0.21632226569E+03  0.78312069541E+02 0.  0.
          5    1    5    5  501    0  0.15331753733E+02  0.38605602259E+02  0.51904475067E+02  0.66645477944E+02  0.47000000000E+01 0. -1.
        -11    1    6    6    0    0 -0.26120642054E+02 -0.48892185369E+02  0.15133858026E+02  0.57461007564E+02  0.00000000000E+00 0.  1.
         12    1    6    6    0    0  0.43820966066E+01 -0.84759851612E+02  0.13428873414E+03  0.15886125813E+03  0.00000000000E+00 0. -1.
         -5    1    3    3    0  503  0.11390897752E+02 -0.38224317355E+02 -0.48456196729E+02  0.62936030938E+02  0.47000000000E+01 0. -1.
         13    1    4    4    0    0  0.31758280077E+02  0.10412265024E+03 -0.97400194546E+02  0.14607160074E+03  0.00000000000E+00 0. -1.
        -14    1    4    4    0    0 -0.36742386114E+02  0.29148101838E+02 -0.45449011976E+02  0.65308708973E+02  0.00000000000E+00 0.  1.
</event>
<event>
12    1  0.8421768E-002  0.1915718E+03  0.7818608E-02  0.1157885E+00
         21   -1    0    0  501  502  0.00000000000E+00  0.00000000000E+00  0.59971129329E+03  0.59971129329E+03  0.00000000000E+00 0. -1.
         21   -1    0    0  502  503 -0.00000000000E+00 -0.00000000000E+00 -0.63670741160E+02  0.63670741160E+02  0.00000000000E+00 0. -1.
         -6    2    1    2    0  503  0.55615805522E+02  0.57988834721E+02  0.19105625686E+03  0.27055913242E+03  0.17390781488E+03 0.  0.
        -24    2    3    3    0    0 -0.36618760533E+02  0.44052346393E+02  0.95775051920E+02  0.13713485091E+03  0.79696699541E+02 0.  0.
          6    2    1    2  501    0 -0.55615805522E+02 -0.57988834721E+02  0.34498429527E+03  0.39282290203E+03  0.16982298313E+03 0.  0.
         24    2    5    5    0    0 -0.35084284367E+02 -0.55907223612E+02  0.35446449323E+03  0.36963151097E+03  0.81399338334E+02 0.  0.
          5    1    5    5  501    0 -0.20531521154E+02 -0.20816111093E+01 -0.94801979612E+01  0.23191391056E+02  0.47000000000E+01 0. -1.
        -13    1    6    6    0    0 -0.58763908009E+02 -0.25788532417E+02  0.25740572569E+03  0.26528466391E+03  0.00000000000E+00 0.  1.
         14    1    6    6    0    0  0.23679623642E+02 -0.30118691194E+02  0.97058767539E+02  0.10434684706E+03  0.00000000000E+00 0. -1.
         -5    1    3    3    0  503  0.92234566055E+02  0.13936488328E+02  0.95281204944E+02  0.13342428152E+03  0.47000000000E+01 0.  1.
         13    1    4    4    0    0 -0.56256230620E+02  0.76491247802E+01  0.56482563347E+02  0.80084658679E+02  0.00000000000E+00 0. -1.
        -14    1    4    4    0    0  0.19637470087E+02  0.36403221613E+02  0.39292488573E+02  0.57050192229E+02  0.00000000000E+00 0.  1.
</event>
<event>
12    1  0.8421768E-002  0.1751478E+03  0.7818608E-02  0.1173230E+00
         21   -1    0    0  503  502  0.00000000000E+00  0.00000000000E+00  0.38701749406E+03  0.38701749406E+03  0.00000000000E+00 0.  1.
         21   -1    0    0  501  503 -0.00000000000E+00 -0.00000000000E+00 -0.88091788927E+02  0.88091788927E+02  0.00000000000E+00 0.  1.
          6    2    1    2  501    0  0.61043549033E+01  0.40031616669E+02  0.70478326651E+02  0.18879608935E+03  0.17040239243E+03 0.  0.
         24    2    3    3    0    0  0.10044572171E+02  0.67211142010E+02  0.10174056462E+03  0.14691925288E+03  0.81338141966E+02 0.  0.
         -6    2    1    2    0  502 -0.61043549033E+01 -0.40031616669E+02  0.22844737848E+03  0.28631319363E+03  0.16777141184E+03 0.  0.
        -24    2    5    5    0    0 -0.19031134297E+02  0.19776360226E+02  0.50783557226E+02  0.98348784478E+02  0.79625531253E+02 0.  0.
          5    1    3    3  501    0 -0.39402172674E+01 -0.27179525341E+02 -0.31262237969E+02  0.41876836470E+02  0.47000000000E+01 0. -1.
        -13    1    4    4    0    0 -0.64078147444E-01  0.16581288434E+02 -0.13018397398E+02  0.21081316443E+02  0.00000000000E+00 0.  1.
         14    1    4    4    0    0  0.10108650318E+02  0.50629853576E+02  0.11475896202E+03  0.12583793644E+03  0.00000000000E+00 0. -1.
         -5    1    5    5    0  502  0.12926779393E+02 -0.59807976895E+02  0.17766382125E+03  0.18796440915E+03  0.47000000000E+01 0.  1.
         11    1    6    6    0    0  0.17952770126E+02 -0.76845442234E+01 -0.10113680775E+02  0.21991832891E+02  0.00000000000E+00 0. -1.
        -12    1    6    6    0    0 -0.36983904422E+02  0.27460904450E+02  0.60897238000E+02  0.76356951587E+02  0.00000000000E+00 0.  1.
</event>
<event>
12    1  0.8421768E-002  0.1715065E+03  0.7818608E-02  0.1176651E+00
         21   -1    0    0  503  502  0.00000000000E+00  0.00000000000E+00  0.15222311887E+04  0.15222311887E+04  0.00000000000E+00 0. -1.
         21   -1    0    0  501  503 -0.00000000000E+00 -0.00000000000E+00 -0.21445213451E+02  0.21445213451E+02  0.00000000000E+00 0. -1.
          6    2    1    2  501    0 -0.17803324161E+02  0.28833325166E+01  0.99931429122E+03  0.10136874116E+04  0.16913853435E+03 0.  0.
         24    2    3    3    0    0 -0.20684503622E+00 -0.61713961007E+02  0.52671660889E+03  0.53634779898E+03  0.80186779639E+02 0.  0.
         -6    2    1    2    0  502  0.17803324161E+02 -0.28833325166E+01  0.50147168403E+03  0.52998899057E+03  0.17055558708E+03 0.  0.
        -24    2    5    5    0    0  0.25423516295E+02 -0.60741894281E+02  0.23320714062E+03  0.25540997508E+03  0.80701623478E+02 0.  0.
          5    1    3    3  501    0 -0.17596479125E+02  0.64597293524E+02  0.47259768233E+03  0.47733961260E+03  0.47000000000E+01 0. -1.
        -11    1    4    4    0    0 -0.77824879115E+01 -0.64443793921E+02  0.21638108027E+03  0.22590781658E+03  0.00000000000E+00 0.  1.
         12    1    4    4    0    0  0.75756428753E+01  0.27298329140E+01  0.31033552862E+03  0.31043998240E+03  0.00000000000E+00 0. -1.
         -5    1    5    5    0  502 -0.76201921338E+01  0.57858561764E+02  0.26826454340E+03  0.27457901549E+03  0.47000000000E+01 0.  1.
         11    1    6    6    0    0  0.17763879688E+02 -0.20486380342E+02  0.10682589941E+02  0.29143866060E+02  0.00000000000E+00 0. -1.
        -12    1    6    6    0    0  0.76596366070E+01 -0.40255513939E+02  0.22252455068E+03  0.22626610902E+03  0.00000000000E+00 0.  1.
</event>
<event>
12    1  0.8421768E-002  0.1929186E+03  0.7818608E-02  0.1156121E+00
         21   -1    0    0  501  502  0.00000000000E+00  0.00000000000E+00  0.24348107745E+03  0.24348107745E+03  0.00000000000E+00 0.  1.
         21   -1    0    0  502  503 -0.00000000000E+00 -0.00000000000E+00 -0.24693894612E+03  0.24693894612E+03  0.00000000000E+00 0.  1.
         -6    2    1    2    0  503 -0.51436898970E+02 -0.65079799825E+02 -0.15384283148E+03  0.24581168593E+03  0.17284279915E+03 0.  0.
        -24    2    3    3    0    0  0.16503821448E+02 -0.88234080395E+02 -0.89238076880E+02  0.14912701022E+03  0.78853038911E+02 0.  0.
          6    2    1    2  501    0  0.51436898970E+02  0.65079799825E+02  0.15038496282E+03  0.24460833764E+03  0.17417366874E+03 0.  0.
         24    2    5    5    0    0  0.73196193593E+02  0.10159328228E+03  0.11445395843E+03  0.18875291373E+03  0.82759144990E+02 0.  0.
          5    1    5    5  501    0 -0.21759294624E+02 -0.36513482460E+02  0.35931004389E+02  0.55855423911E+02  0.47000000000E+01 0. -1.
        -13    1    6    6    0    0  0.62527235176E+02  0.10087140385E+03  0.59482658514E+02  0.13275120307E+03  0.00000000000E+00 0.  1.
         14    1    6    6    0    0  0.10668958417E+02  0.72187843415E+00  0.54971299913E+02  0.56001710655E+02  0.00000000000E+00 0. -1.
         -5    1    3    3    0  503 -0.67940720417E+02  0.23154280571E+02 -0.64604754605E+02  0.96684675710E+02  0.47000000000E+01 0.  1.
         11    1    4    4    0    0  0.31669081883E+02 -0.46928992665E+01 -0.11527983395E+02  0.34027172259E+02  0.00000000000E+00 0. -1.
        -12    1    4    4    0    0 -0.15165260435E+02 -0.83541181129E+02 -0.77710093485E+02  0.11509983796E+03  0.00000000000E+00 0.  1.
</event>
<event>
12    1  0.8421768E-002  0.2029315E+03  0.7818608E-02  0.1147790E+00
         21   -1    0    0  503  502  0.00000000000E+00  0.00000000000E+00  0.19264918032E+03  0.19264918032E+03  0.00000000000E+00 0. -1.
         21   -1    0    0  501  503 -0.00000000000E+00 -0.00000000000E+00 -0.57055949164E+03  0.57055949164E+03  0.00000000000E+00 0. -1.
          6    2    1    2  501    0  0.10009810269E+03  0.38022833793E+02 -0.49220317571E+03  0.53239567562E+03  0.17238278100E+03 0.  0.
         24    2    3    3    0    0 -0.43614117576E+01 -0.12218646820E+02 -0.14605549605E+03  0.16732540475E+03  0.80605619578E+02 0.  0.
         -6    2    1    2    0  502 -0.10009810269E+03 -0.38022833793E+02  0.11429286439E+03  0.23081299634E+03  0.16954767582E+03 0.  0.
        -24    2    5    5    0    0 -0.55575987335E+02  0.32800801675E+02  0.10364115834E+03  0.14635143740E+03  0.80701118745E+02 0.  0.
          5    1    3    3  501    0  0.10445951445E+03  0.50241480613E+02 -0.34614767967E+03  0.36507027087E+03  0.47000000000E+01 0. -1.
        -13    1    4    4    0    0  0.15580814513E+02  0.31650444240E+01  0.29806893259E+01  0.16176025345E+02  0.00000000000E+00 0.  1.
         14    1    4    4    0    0 -0.19942226271E+02 -0.15383691244E+02 -0.14903618537E+03  0.15114937941E+03  0.00000000000E+00 0. -1.
         -5    1    5    5    0  502 -0.44522115354E+02 -0.70823635468E+02  0.10651706052E+02  0.84461558939E+02  0.47000000000E+01 0.  1.
         13    1    6    6    0    0 -0.33447898719E+02  0.52747394446E+02  0.35169199685E+02  0.71679300750E+02  0.00000000000E+00 0. -1.
        -14    1    6    6    0    0 -0.22128088616E+02 -0.19946592771E+02  0.68471958657E+02  0.74672136646E+02  0.00000000000E+00 0.  1.
</event>
<event>
12    1  0.8421768E-002  0.1956079E+03  0.7818608E-02  0.1154771E+00
         21   -1    0    0  503  502  0.00000000000E+00  0.00000000000E+00  0.19980713694E+03  0.19980713694E+03  0.00000000000E+00 0. -1.
         21   -1    0    0  501  503 -0.00000000000E+00 -0.00000000000E+00 -0.27388321128E+03  0.27388321128E+03  0.00000000000E+00 0. -1.
          6    2    1    2  501    0  0.64380795590E+02 -0.46385952667E+02 -0.17089914615E+03  0.25543094862E+03  0.17245842373E+03 0.  0.
         24    2    3    3    0    0  0.78005747180E+02 -0.50353724370E+02 -0.46879411210E+02  0.13051350720E+03  0.78839724857E+02 0.  0.
         -6    2    1    2    0  502 -0.64380795590E+02  0.46385952667E+02  0.96823071806E+02  0.21825939960E+03  0.17879014188E+03 0.  0.
        -24    2    5    5    0    0 -0.48454277366E+01  0.62845076682E+02  0.11521062761E+03  0.15364086513E+03  0.79743619747E+02 0.  0.
          5    1    3    3  501    0 -0.13624951591E+02  0.39677717030E+01 -0.12401973494E+03  0.12491744142E+03  0.47000000000E+01 0. -1.
        -13    1    4    4    0    0  0.86995523199E+02 -0.28062607020E+02 -0.53063436082E+02  0.10569512391E+03  0.00000000000E+00 0.  1.
         14    1    4    4    0    0 -0.89897760187E+01 -0.22291117350E+02  0.61840248725E+01  0.24818383292E+02  0.00000000000E+00 0. -1.
         -5    1    5    5    0  502 -0.59535367853E+02 -0.16459124015E+02 -0.18387555805E+02  0.64618534471E+02  0.47000000000E+01 0.  1.
         13    1    6    6    0    0  0.34861345999E+02  0.24333431612E+02  0.29933694119E+02  0.51994763030E+02  0.00000000000E+00 0. -1.
        -14    1    6    6    0    0 -0.39706773735E+02  0.38511645070E+02  0.85276933491E+02  0.10164610210E+03  0.00000000000E+00 0.  1.
</event>
<event>
12    1  0.8421768E-002  0.2027333E+03  0.7818608E-02  0.1147497E+00
         21   -1    0    0  501  502  0.00000000000E+00  0.00000000000E+00  0.16596375534E+03  0.16596375534E+03  0.00000000000E+00 0. -1.
         21   -1    0    0  502  503 -0.00000000000E+00 -0.00000000000E+00 -0.28737891118E+03  0.28737891118E+03  0.00000000000E+00 0. -1.
         -6    2    1    2    0  503 -0.59966297627E+02  0.91202484813E+02 -0.14523382518E+03  0.24921495782E+03  0.17059126923E+03 0.  0.
        -24    2    3    3    0    0 -0.14056140585E+02  0.99004886155E+02 -0.46465230423E+02  0.13991744963E+03  0.86129742256E+02 0.  0.
          6    2    1    2  501    0  0.59966297627E+02 -0.91202484813E+02  0.23818669340E+02  0.20412770871E+03  0.17084186362E+03 0.  0.
         24    2    5    5    0    0  0.42235107810E+02 -0.12520918799E+03 -0.77590657717E+01  0.15422686395E+03  0.79149083212E+02 0.  0.
          5    1    5    5  501    0  0.17731189817E+02  0.34006703174E+02  0.31577735112E+02  0.49900844761E+02  0.47000000000E+01 0. -1.
        -13    1    6    6    0    0  0.45582218470E+02 -0.62839436918E+02 -0.36129133883E+02  0.85626209702E+02  0.00000000000E+00 0.  1.
         14    1    6    6    0    0 -0.33471106603E+01 -0.62369751070E+02  0.28370068111E+02  0.68600654246E+02  0.00000000000E+00 0. -1.
         -5    1    3    3    0  503 -0.45910157042E+02 -0.78024013415E+01 -0.98768594758E+02  0.10929750819E+03  0.47000000000E+01 0.  1.
         11    1    4    4    0    0 -0.57946387854E+01  0.86487396632E+02 -0.70402415991E+02  0.11166981594E+03  0.00000000000E+00 0. -1.
        -12    1    4    4    0    0 -0.82615017999E+01  0.12517489522E+02  0.23937185568E+02  0.28247633686E+02  0.00000000000E+00 0.  1.
</event>
<event>
12    1  0.8421768E-002  0.1792184E+03  0.7818608E-02  0.1169432E+00
         21   -1    0    0  501  502  0.00000000000E+00  0.00000000000E+00  0.16945198142E+02  0.16945198142E+02  0.00000000000E+00 0. -1.
         21   -1    0    0  502  503 -0.00000000000E+00 -0.00000000000E+00 -0.22279469972E+04  0.22279469972E+04  0.00000000000E+00 0. -1.
         -6    2    1    2    0  503 -0.27707748892E+02 -0.15784977888E+01 -0.15535307903E+04  0.15634324621E+04  0.17347315714E+03 0.  0.
        -24    2    3    3    0    0 -0.39771181932E+02 -0.45884158607E+02 -0.13877620806E+04  0.13913572660E+04  0.79399914882E+02 0.  0.
          6    2    1    2  501    0  0.27707748892E+02  0.15784977888E+01 -0.65747100874E+03  0.68145973319E+03  0.17705657180E+03 0.  0.
         24    2    5    5    0    0 -0.24246675710E+02  0.31146944357E+02 -0.56091555608E+03  0.56779971072E+03  0.78817618709E+02 0.  0.
          5    1    5    5  501    0  0.51954424602E+02 -0.29568446568E+02 -0.96555452663E+02  0.11366002247E+03  0.47000000000E+01 0. -1.
        -13    1    6    6    0    0 -0.22843671917E+02 -0.16765657065E+02 -0.36528875711E+03  0.36638613057E+03  0.00000000000E+00 0.  1.
         14    1    6    6    0    0 -0.14030037925E+01  0.47912601422E+02 -0.19562679897E+03  0.20141358015E+03  0.00000000000E+00 0. -1.
         -5    1    3    3    0  503  0.12063433040E+02  0.44305660818E+02 -0.16576870976E+03  0.17207519615E+03  0.47000000000E+01 0.  1.
         13    1    4    4    0    0 -0.30682849829E+02 -0.72429410479E+01 -0.16698381307E+03  0.16993378503E+03  0.00000000000E+00 0. -1.
        -14    1    4    4    0    0 -0.90883321030E+01 -0.38641217559E+02 -0.12207782675E+04  0.12214234810E+04  0.00000000000E+00 0.  1.
</event>
<event>
12    1  0.8421768E-002  0.2216733E+03  0.7818608E-02  0.1132700E+00
         21   -1    0    0  501  502  0.00000000000E+00  0.00000000000E+00  0.46649950521E+03  0.46649950521E+03  0.00000000000E+00 0.  1.
         21   -1    0    0  502  503 -0.00000000000E+00 -0.00000000000E+00 -0.90274594585E+03  0.90274594585E+03  0.00000000000E+00 0.  1.
         -6    2    1    2    0  503  0.88181837618E+02  0.10704347835E+03 -0.86164346239E+03  0.88970136560E+03  0.17292981502E+03 0.  0.
        -24    2    3    3    0    0  0.22123195650E+01  0.51245685830E+02 -0.62106266989E+03  0.62815718309E+03  0.78940433614E+02 0.  0.
          6    2    1    2  501    0 -0.88181837618E+02 -0.10704347835E+03  0.42539702174E+03  0.47954408547E+03  0.17252698646E+03 0.  0.
         24    2    5    5    0    0 -0.16622229730E+01 -0.11048354530E+02  0.24292729430E+03  0.25589704446E+03  0.79654239857E+02 0.  0.
          5    1    5    5  501    0 -0.86519614645E+02 -0.95995123822E+02  0.18246972744E+03  0.22364704100E+03  0.47000000000E+01 0. -1.
        -11    1    6    6    0    0 -0.22989003446E+02  0.12039907182E+02  0.20501221543E+03  0.20664816021E+03  0.00000000000E+00 0.  1.
         12    1    6    6    0    0  0.21326780473E+02 -0.23088261713E+02  0.37915078868E+02  0.49248884249E+02  0.00000000000E+00 0. -1.
         -5    1    3    3    0  503  0.85969518053E+02  0.55797792522E+02 -0.24058079250E+03  0.26154418251E+03  0.47000000000E+01 0.  1.
         11    1    4    4    0    0 -0.21983742407E+02 -0.97698586312E+01 -0.94274777737E+02  0.97295779895E+02  0.00000000000E+00 0. -1.
        -12    1    4    4    0    0  0.24196061972E+02  0.61015544462E+02 -0.52678789215E+03  0.53086140319E+03  0.00000000000E+00 0.  1.
</event>
<event>
12    1  0.8421768E-002  0.2053720E+03  0.7818608E-02  0.1147504E+00
         21   -1    0    0  503  502  0.00000000000E+00  0.00000000000E+00  0.65618230926E+03  0.65618230926E+03  0.00000000000E+00 0. -1.
         21   -1    0    0  501  503 -0.00000000000E+00 -0.00000000000E+00 -0.24731436132E+03  0.24731436132E+03  0.00000000000E+00 0. -1.
          6    2    1    2  501    0 -0.10376682706E+03  0.42491476691E+02 -0.18895814897E+03  0.27137823780E+03  0.15927299176E+03 0.  0.
         24    2    3    3    0    0 -0.24490952782E+02 -0.25931889741E+02 -0.50591984017E+02  0.97787607530E+02  0.75700711133E+02 0.  0.
         -6    2    1    2    0  502  0.10376682706E+03 -0.42491476691E+02  0.59782609690E+03  0.63211843277E+03  0.17205984693E+03 0.  0.
        -24    2    5    5    0    0  0.11659198177E+03 -0.74568977028E+02  0.54694927376E+03  0.57044192384E+03  0.84239289277E+02 0.  0.
          5    1    3    3  501    0 -0.79275874279E+02  0.68423366432E+02 -0.13836616495E+03  0.17359063027E+03  0.47000000000E+01 0. -1.
        -11    1    4    4    0    0  0.11315187356E+02  0.94381167607E+01  0.10897344173E+02  0.18326582412E+02  0.00000000000E+00 0.  1.
         12    1    4    4    0    0 -0.35806140139E+02 -0.35370006502E+02 -0.61489328190E+02  0.79461025118E+02  0.00000000000E+00 0. -1.
         -5    1    5    5    0  502 -0.12825154711E+02  0.32077500337E+02  0.50876823136E+02  0.61676508929E+02  0.47000000000E+01 0.  1.
         11    1    6    6    0    0  0.84228501261E+02 -0.21885081273E+02  0.42379378384E+03  0.43263676269E+03  0.00000000000E+00 0. -1.
        -12    1    6    6    0    0  0.32363480512E+02 -0.52683895755E+02  0.12315548993E+03  0.13780516116E+03  0.00000000000E+00 0.  1.
</event>
<event>
12    1  0.8421768E-002  0.1783182E+03  0.7818608E-02  0.1169453E+00
         21   -1    0    0  501  502  0.00000000000E+00  0.00000000000E+00  0.73281836328E+02  0.73281836328E+02  0.00000000000E+00 0. -1.
         21   -1    0    0  502  503 -0.00000000000E+00 -0.00000000000E+00 -0.91754820264E+03  0.91754820264E+03  0.00000000000E+00 0. -1.
         -6    2    1    2    0  503  0.43819989735E+02 -0.99266638951E+01 -0.78188986639E+03  0.80196579407E+03  0.17256489079E+03 0.  0.
        -24    2    3    3    0    0  0.73671000499E+02  0.42560628415E+02 -0.58371442531E+03  0.59474225741E+03  0.75874890620E+02 0.  0.
          6    2    1    2  501    0 -0.43819989735E+02  0.99266638951E+01 -0.62376499918E+02  0.18886424490E+03  0.17251128978E+03 0.  0.
         24    2    5    5    0    0 -0.57811356177E+02 -0.53327823219E+02 -0.28754638967E+02  0.11572459759E+03  0.79870793109E+02 0.  0.
          5    1    5    5  501    0  0.13991366442E+02  0.63254487115E+02 -0.33621860951E+02  0.73139647312E+02  0.47000000000E+01 0. -1.
        -11    1    6    6    0    0 -0.11905852327E+02 -0.41737606122E+02 -0.47913642759E+02  0.64649008089E+02  0.00000000000E+00 0.  1.
         12    1    6    6    0    0 -0.45905503851E+02 -0.11590217098E+02  0.19159003792E+02  0.51075589497E+02  0.00000000000E+00 0. -1.
         -5    1    3    3    0  503 -0.29851010764E+02 -0.52487292310E+02 -0.19817544108E+03  0.20722353666E+03  0.47000000000E+01 0.  1.
         11    1    4    4    0    0  0.34391983366E+02  0.21022597352E+02 -0.85578850444E+02  0.94596499737E+02  0.00000000000E+00 0. -1.
        -12    1    4    4    0    0  0.39279017133E+02  0.21538031063E+02 -0.49813557487E+03  0.50014575767E+03  0.00000000000E+00 0.  1.
</event>
<event>
12    1  0.8421768E-002  0.1796975E+03  0.7818608E-02  0.1168823E+00
         21   -1    0    0  501  502  0.00000000000E+00  0.00000000000E+00  0.90627928258E+03  0.90627928258E+03  0.00000000000E+00 0. -1.
         21   -1    0    0  502  503 -0.00000000000E+00 -0.00000000000E+00 -0.11532009673E+03  0.11532009673E+03  0.00000000000E+00 0. -1.
         -6    2    1    2    0  503 -0.44841738659E+02  0.15235720888E+02 -0.31696754136E+02  0.17954594125E+03  0.17026201009E+03 0.  0.
        -24    2    3    3    0    0 -0.60993518807E+02 -0.12225473380E+01  0.37348558230E+02  0.10660007259E+03  0.79037691745E+02 0.  0.
          6    2    1    2  501    0  0.44841738659E+02 -0.15235720888E+02  0.82265593998E+03  0.84205343806E+03  0.17334442084E+03 0.  0.
         24    2    5    5    0    0  0.62797909585E+02  0.32513355159E+02  0.32966316970E+03  0.34640602316E+03  0.79489821462E+02 0.  0.
          5    1    5    5  501    0 -0.17956170925E+02 -0.47749076046E+02  0.49299277028E+03  0.49564741489E+03  0.47000000000E+01 0. -1.
        -13    1    6    6    0    0  0.23095071288E+02 -0.25189014810E+02  0.14321130590E+03  0.14723228900E+03  0.00000000000E+00 0.  1.
         14    1    6    6    0    0  0.39702838297E+02  0.57702369968E+02  0.18645186380E+03  0.19917373417E+03  0.00000000000E+00 0. -1.
         -5    1    3    3    0  503  0.16151780147E+02  0.16458268226E+02 -0.69045312365E+02  0.72945868660E+02  0.47000000000E+01 0.  1.
         11    1    4    4    0    0 -0.18377101928E+02  0.36651996330E+02  0.57136434565E+01  0.41397251500E+02  0.00000000000E+00 0. -1.
        -12    1    4    4    0    0 -0.42616416879E+02 -0.37874543668E+02  0.31634914773E+02  0.65202821092E+02  0.00000000000E+00 0.  1.
</event>
<event>
12    1  0.8421768E-002  0.1782367E+03  0.7818608E-02  0.1169572E+00
         21   -1    0    0  501  502  0.00000000000E+00  0.00000000000E+00  0.17473692690E+03  0.17473692690E+03  0.00000000000E+00 0. -1.
         21   -1    0    0  502  503 -0.00000000000E+00 -0.00000000000E+00 -0.19007301505E+03  0.19007301505E+03  0.00000000000E+00 0. -1.
         -6    2    1    2    0  503  0.45414204813E+02 -0.26242912922E+02 -0.46203632448E+02  0.18412793838E+03  0.17034430299E+03 0.  0.
        -24    2    3    3    0    0 -0.40851760035E+02 -0.10323584338E+02 -0.19333688432E+02  0.92262136224E+02  0.79768838406E+02 0.  0.
          6    2    1    2  501    0 -0.45414204813E+02  0.26242912922E+02  0.30867544305E+02  0.18068200357E+03  0.17012360402E+03 0.  0.
         24    2    5    5    0    0 -0.19832948688E+02 -0.50755417862E+02  0.88994101029E+01  0.96492737458E+02  0.79134003979E+02 0.  0.
          5    1    5    5  501    0 -0.25581256125E+02  0.76998330785E+02  0.21968134202E+02  0.84189266115E+02  0.47000000000E+01 0. -1.
        -11    1    6    6    0    0 -0.11548007208E+02 -0.52413514745E+02  0.38278698359E+02  0.65922619384E+02  0.00000000000E+00 0.  1.
         12    1    6    6    0    0 -0.82849414797E+01  0.16580968826E+01 -0.29379288256E+02  0.30570118073E+02  0.00000000000E+00 0. -1.
         -5    1    3    3    0  503  0.86265964848E+02 -0.15919328584E+02 -0.26869944016E+02  0.91865802153E+02  0.47000000000E+01 0.  1.
         13    1    4    4    0    0 -0.22895282702E+02 -0.45359042882E+02 -0.12164620763E+02  0.52245715034E+02  0.00000000000E+00 0. -1.
        -14    1    4    4    0    0 -0.17956477333E+02  0.35035458544E+02 -0.71690676697E+01  0.40016421189E+02  0.00000000000E+00 0.  1.
</event>
<event>
12    1  0.8421768E-002  0.1737993E+03  0.7818608E-02  0.1174587E+00
         21   -1    0    0  501  502  0.00000000000E+00  0.00000000000E+00  0.86797235126E+03  0.86797235126E+03  0.00000000000E+00 0. -1.
         21   -1    0    0  502  503 -0.00000000000E+00 -0.00000000000E+00 -0.18080080073E+03  0.18080080073E+03  0.00000000000E+00 0. -1.
         -6    2    1    2    0  503  0.81386438041E+01 -0.14542292995E+02 -0.12797132547E+03  0.21583063122E+03  0.17299851276E+03 0.  0.
        -24    2    3    3    0    0 -0.41864750517E+02  0.35288047007E+02 -0.39416750676E+02  0.10248423760E+03  0.77145545075E+02 0.  0.
          6    2    1    2  501    0 -0.81386438041E+01  0.14542292995E+02  0.81514287600E+03  0.83294252078E+03  0.17046295437E+03 0.  0.
         24    2    5    5    0    0 -0.20886787853E+02  0.57214113766E+02  0.31634046505E+03  0.33213384011E+03  0.80820079151E+02 0.  0.
          5    1    5    5  501    0  0.12748144049E+02 -0.42671820771E+02  0.49880241095E+03  0.50080868067E+03  0.47000000000E+01 0. -1.
        -13    1    6    6    0    0 -0.39733839351E+02  0.54800588019E+01  0.19204703680E+03  0.19619091054E+03  0.00000000000E+00 0.  1.
         14    1    6    6    0    0  0.18847051498E+02  0.51734054964E+02  0.12429342826E+03  0.13594292957E+03  0.00000000000E+00 0. -1.
         -5    1    3    3    0  503  0.50003394321E+02 -0.49830340002E+02 -0.88554574799E+02  0.11334639362E+03  0.47000000000E+01 0.  1.
         13    1    4    4    0    0 -0.58336128078E+02  0.24034724704E+02 -0.49442373649E+02  0.80158094680E+02  0.00000000000E+00 0. -1.
        -14    1    4    4    0    0  0.16471377561E+02  0.11253322303E+02  0.10025622973E+02  0.22326142918E+02  0.00000000000E+00 0.  1.
</event>
<event>
12    1  0.8421768E-002  0.1739883E+03  0.7818608E-02  0.1173891E+00
         21   -1    0    0  503  502  0.00000000000E+00  0.00000000000E+00  0.18116655829E+03  0.18116655829E+03  0.00000000000E+00 0.  1.
         21   -1    0    0  501  503 -0.00000000000E+00 -0.00000000000E+00 -0.22119224460E+03  0.22119224460E+03  0.00000000000E+00 0.  1.
          6    2    1    2  501    0 -0.42883834626E+01 -0.21032825981E+02 -0.11996484924E+03  0.21088502524E+03  0.17210508074E+03 0.  0.
         24    2    3    3    0    0 -0.35608401412E+02  0.20354767642E+02 -0.12519737995E+02  0.91468031645E+02  0.80792215941E+02 0.  0.
         -6    2    1    2    0  502  0.42883834626E+01  0.21032825981E+02  0.79939162932E+02  0.19147377765E+03  0.17265910852E+03 0.  0.
        -24    2    5    5    0    0  0.18168949965E+02  0.66194684868E+02  0.10526534117E+02  0.10737581891E+03  0.81895735661E+02 0.  0.
          5    1    3    3  501    0  0.31320017949E+02 -0.41387593624E+02 -0.10744511124E+03  0.11941699360E+03  0.47000000000E+01 0. -1.
        -13    1    4    4    0    0 -0.23601781696E+02 -0.30380210029E+02 -0.53598846073E+01  0.38842368924E+02  0.00000000000E+00 0.  1.
         14    1    4    4    0    0 -0.12006619716E+02  0.50734977671E+02 -0.71598533876E+01  0.52625662721E+02  0.00000000000E+00 0. -1.
         -5    1    5    5    0  502 -0.13880566502E+02 -0.45161858887E+02  0.69412628814E+02  0.84097958736E+02  0.47000000000E+01 0.  1.
         11    1    6    6    0    0 -0.20234662676E+02 -0.79313466907E+01 -0.53819401044E+01  0.22390022627E+02  0.00000000000E+00 0. -1.
        -12    1    6    6    0    0  0.38403612641E+02  0.74126031559E+02  0.15908474222E+02  0.84985796288E+02  0.00000000000E+00 0.  1.
</event>
<event>
12    1  0.8421768E-002  0.2246744E+03  0.7818608E-02  0.1130526E+00
         21   -1    0    0  501  502  0.00000000000E+00  0.00000000000E+00  0.11858346023E+04  0.11858346023E+04  0.00000000000E+00 0.  1.
         21   -1    0    0  502  503 -0.00000000000E+00 -0.00000000000E+00 -0.45314922251E+02  0.45314922251E+02  0.00000000000E+00 0. -1.
         -6    2    1    2    0  503  0.14515673809E+03 -0.41193249735E+01  0.72466444764E+03  0.75869437837E+03  0.17143847479E+03 0.  0.
        -24    2    3    3    0    0  0.10458295800E+03  0.62851359674E+02  0.50422725267E+03  0.52471585124E+03  0.78700150466E+02 0.  0.
          6    2    1    2  501    0 -0.14515673809E+03  0.41193249735E+01  0.41585523240E+03  0.47245514618E+03  0.17085328029E+03 0.  0.
         24    2    5    5    0    0 -0.16285457295E+03  0.51872765810E+01  0.41642779981E+03  0.45410380528E+03  0.79054625086E+02 0.  0.
          5    1    5    5  501    0  0.17697834863E+02 -0.10679516075E+01 -0.57256740251E+00  0.18351340902E+02  0.47000000000E+01 0. -1.
        -13    1    6    6    0    0 -0.85754532452E+02  0.35390180397E+02  0.27490547983E+03  0.29013673939E+03  0.00000000000E+00 0.  1.
         14    1    6    6    0    0 -0.77100040497E+02 -0.30202903816E+02  0.14152231997E+03  0.16396706588E+03  0.00000000000E+00 0. -1.
         -5    1    3    3    0  503  0.40573780083E+02 -0.66970684648E+02  0.22043719497E+03  0.23397852713E+03  0.47000000000E+01 0.  1.
         11    1    4    4    0    0  0.28103591919E+02  0.43818826617E+01  0.32164278070E+02  0.42936622575E+02  0.00000000000E+00 0. -1.
        -12    1    4    4    0    0  0.76479366085E+02  0.58469477012E+02  0.47206297460E+03  0.48177922866E+03  0.00000000000E+00 0.  1.
</event>
<event>
12    1  0.8421768E-002  0.1857716E+03  0.7818608E-02  0.1162335E+00
         21   -1    0    0  501  502  0.00000000000E+00  0.00000000000E+00  0.71629869916E+02  0.71629869916E+02  0.00000000000E+00 0. -1.
         21   -1    0    0  502  503 -0.00000000000E+00 -0.00000000000E+00 -0.11622224597E+04  0.11622224597E+04  0.00000000000E+00 0. -1.
         -6    2    1    2    0  503 -0.68466714184E+02 -0.10137725285E+02 -0.10173406681E+04  0.10341602793E+04  0.17238034619E+03 0.  0.
        -24    2    3    3    0    0  0.10691551995E+01  0.30060299303E+02 -0.74836858602E+03  0.75341272492E+03  0.81672693440E+02 0.  0.
          6    2    1    2  501    0  0.68466714184E+02  0.10137725285E+02 -0.73251921687E+02  0.19969205038E+03  0.17239665464E+03 0.  0.
         24    2    5    5    0    0 -0.74544358387E+01 -0.31595014958E+02 -0.72601215558E+02  0.11292710327E+03  0.80173440545E+02 0.  0.
          5    1    5    5  501    0  0.75921150023E+02  0.41732740243E+02 -0.65070612866E+00  0.86764947112E+02  0.47000000000E+01 0. -1.
        -11    1    6    6    0    0  0.34587705121E+01  0.24456174128E+02 -0.40448824966E+02  0.47393828581E+02  0.00000000000E+00 0.  1.
         12    1    6    6    0    0 -0.10913206351E+02 -0.56051189087E+02 -0.32152390592E+02  0.65533274691E+02  0.00000000000E+00 0. -1.
         -5    1    3    3    0  503 -0.69535869383E+02 -0.40198024587E+02 -0.26897208211E+03  0.28074755434E+03  0.47000000000E+01 0.  1.
         11    1    4    4    0    0 -0.78677151154E+01 -0.22514573283E+02 -0.42564023060E+03  0.42630788505E+03  0.00000000000E+00 0. -1.
        -12    1    4    4    0    0  0.89368703149E+01  0.52574872586E+02 -0.32272835542E+03  0.32710483987E+03  0.00000000000E+00 0.  1.
</event>
<event>
12    1  0.8421768E-002  0.1881667E+03  0.7818608E-02  0.1160409E+00
         21   -1    0    0  501  502  0.00000000000E+00  0.00000000000E+00  0.23686374500E+02  0.23686374500E+02  0.00000000000E+00 0.  1.
         21   -1    0    0  502  503 -0.00000000000E+00 -0.00000000000E+00 -0.21968260330E+04  0.21968260330E+04  0.00000000000E+00 0.  1.
         -6    2    1    2    0  503  0.18761853735E+02  0.69348240891E+02 -0.17161393321E+04  0.17262897887E+04  0.17257184472E+03 0.  0.
        -24    2    3    3    0    0 -0.53238657247E+02  0.12591063101E+02 -0.88127210769E+03  0.88639049517E+03  0.77811905537E+02 0.  0.
          6    2    1    2  501    0 -0.18761853735E+02 -0.69348240891E+02 -0.45700032642E+03  0.49422261886E+03  0.17391237153E+03 0.  0.
         24    2    5    5    0    0  0.15638486948E+02 -0.10650406963E+03 -0.36826102056E+03  0.39194508734E+03  0.80106760670E+02 0.  0.
          5    1    5    5  501    0 -0.34400340683E+02  0.37155828741E+02 -0.88739305861E+02  0.10227753152E+03  0.47000000000E+01 0. -1.
        -13    1    6    6    0    0 -0.18562064102E+02 -0.94583546901E+02 -0.23896293579E+03  0.25767010353E+03  0.00000000000E+00 0.  1.
         14    1    6    6    0    0  0.34200551050E+02 -0.11920522730E+02 -0.12929808477E+03  0.13427498381E+03  0.00000000000E+00 0. -1.
         -5    1    3    3    0  503  0.72000510982E+02  0.56757177790E+02 -0.83486722443E+03  0.83989929351E+03  0.47000000000E+01 0.  1.
         13    1    4    4    0    0 -0.34022651249E+02 -0.27730639898E+02 -0.59902881459E+03  0.60063470587E+03  0.00000000000E+00 0. -1.
        -14    1    4    4    0    0 -0.19216005998E+02  0.40321702999E+02 -0.28224329309E+03  0.28575578930E+03  0.00000000000E+00 0.  1.
</event>
<event>
12    1  0.8421768E-002  0.1731353E+03  0.7818608E-02  0.1174681E+00
         21   -1    0    0  503  502  0.00000000000E+00  0.00000000000E+00  0.75361721966E+02  0.75361721966E+02  0.00000000000E+00 0. -1.
         21   -1    0    0  501  503 -0.00000000000E+00 -0.00000000000E+00 -0.41844983682E+03  0.41844983682E+03  0.00000000000E+00 0. -1.
          6    2    1    2  501    0 -0.36701036448E+01  0.17577756652E+02 -0.11599879008E+03  0.20840236886E+03  0.17220157043E+03 0.  0.
         24    2    3    3    0    0 -0.68404325190E+02  0.29683671565E+02 -0.57721759410E+02  0.12033776236E+03  0.74760306835E+02 0.  0.
         -6    2    1    2    0  502  0.36701036448E+01 -0.17577756652E+02 -0.22708932477E+03  0.28540918992E+03  0.17194882110E+03 0.  0.
        -24    2    5    5    0    0 -0.52926269557E+02 -0.21894938664E+02 -0.87714387647E+02  0.13484607817E+03  0.84906258016E+02 0.  0.
          5    1    3    3  501    0  0.64734221545E+02 -0.12105914913E+02 -0.58277030670E+02  0.88064606504E+02  0.47000000000E+01 0. -1.
        -11    1    4    4    0    0 -0.81591824397E+01 -0.22617351861E+02 -0.23189830546E+02  0.33404866472E+02  0.00000000000E+00 0.  1.
         12    1    4    4    0    0 -0.60245142750E+02  0.52301023426E+02 -0.34531928865E+02  0.86932895888E+02  0.00000000000E+00 0. -1.
         -5    1    5    5    0  502  0.56596373202E+02  0.43171820119E+01 -0.13937493713E+03  0.15056311175E+03  0.47000000000E+01 0.  1.
         11    1    6    6    0    0 -0.28515003582E+02 -0.54350577476E+02 -0.58762783044E+02  0.84971497411E+02  0.00000000000E+00 0. -1.
        -12    1    6    6    0    0 -0.24411265975E+02  0.32455638812E+02 -0.28951604603E+02  0.49874580763E+02  0.00000000000E+00 0.  1.
</event>
<event>
12    1  0.8421768E-002  0.2255127E+03  0.7818608E-02  0.1129921E+00
         21   -1    0    0  501  502  0.00000000000E+00  0.00000000000E+00  0.12899998757E+03  0.12899998757E+03  0.00000000000E+00 0.  1.
         21   -1    0    0  502  503 -0.00000000000E+00 -0.00000000000E+00 -0.39983616183E+03  0.39983616183E+03  0.00000000000E+00 0.  1.
         -6    2    1    2    0  503 -0.61172650670E+02 -0.13240745264E+03 -0.16901000113E+03  0.28181615932E+03  0.17199459431E+03 0.  0.
        -24    2    3    3    0    0 -0.10118914259E+03 -0.88150355999E+02 -0.75108984162E+02  0.17046311170E+03  0.73529484603E+02 0.  0.
          6    2    1    2  501    0  0.61172650670E+02  0.13240745264E+03 -0.10182617313E+03  0.24701999008E+03  0.17139568040E+03 0.  0.
         24    2    5    5    0    0 -0.28896223954E+02  0.74119706882E+02 -0.78998640368E+02  0.13723360780E+03  0.79142625826E+02 0.  0.
          5    1    5    5  501    0  0.90068874624E+02  0.58287745753E+02 -0.22827532765E+02  0.10978638228E+03  0.47000000000E+01 0. -1.
        -11    1    6    6    0    0 -0.27715648280E+02  0.81154203067E+02 -0.34939664932E+02  0.92600982827E+02  0.00000000000E+00 0.  1.
         12    1    6    6    0    0 -0.11805756740E+01 -0.70344961842E+01 -0.44058975436E+02  0.44632624972E+02  0.00000000000E+00 0. -1.
         -5    1    3    3    0  503  0.40016491921E+02 -0.44257096637E+02 -0.93901016968E+02  0.11135304763E+03  0.47000000000E+01 0.  1.
         13    1    4    4    0    0 -0.26750910382E+02 -0.31264475710E+01  0.10276534886E+02  0.28826950063E+02  0.00000000000E+00 0. -1.
        -14    1    4    4    0    0 -0.74438232210E+02 -0.85023908428E+02 -0.85385519049E+02  0.14163616163E+03  0.00000000000E+00 0.  1.
</event>
<event>
12    1  0.8421768E-002  0.2272707E+03  0.7818608E-02  0.1128853E+00
         21   -1    0    0  503  502  0.00000000000E+00  0.00000000000E+00  0.98873234471E+03  0.98873234471E+03  0.00000000000E+00 0.  1.
         21   -1    0    0  501  503 -0.00000000000E+00 -0.00000000000E+00 -0.94309390368E+02  0.94309390368E+02  0.00000000000E+00 0. -1.
          6    2    1    2  501    0  0.12868726805E+03 -0.68940249393E+02  0.83180146244E+02  0.24056511140E+03  0.17216116040E+03 0.  0.
         24    2    3    3    0    0  0.15439415736E+03 -0.29042837371E+02  0.52213136682E+02  0.18369953899E+03  0.79613232271E+02 0.  0.
         -6    2    1    2    0  502 -0.12868726805E+03  0.68940249393E+02  0.81124280810E+03  0.84247662367E+03  0.17418035712E+03 0.  0.
        -24    2    5    5    0    0 -0.13059394701E+03  0.10645602649E+03  0.62103060304E+03  0.64853374056E+03  0.80804320234E+02 0.  0.
          5    1    3    3  501    0 -0.25706889313E+02 -0.39897412022E+02  0.30967009562E+02  0.56865572409E+02  0.47000000000E+01 0. -1.
        -11    1    4    4    0    0  0.35132286646E+02  0.14042800784E+02 -0.14374582308E+02  0.40473527588E+02  0.00000000000E+00 0.  1.
         12    1    4    4    0    0  0.11926187072E+03 -0.43085638155E+02  0.66587718990E+02  0.14322601140E+03  0.00000000000E+00 0. -1.
         -5    1    5    5    0  502  0.19066789561E+01 -0.37515777101E+02  0.19021220506E+03  0.19394288311E+03  0.47000000000E+01 0.  1.
         13    1    6    6    0    0 -0.77438812693E+02  0.10524406558E+03  0.49010906141E+03  0.50722773497E+03  0.00000000000E+00 0. -1.
        -14    1    6    6    0    0 -0.53155134314E+02  0.12119609094E+01  0.13092154163E+03  0.14130600559E+03  0.00000000000E+00 0.  1.
</event>
<event>
12    1  0.8421768E-002  0.1978613E+03  0.7818608E-02  0.1151969E+00
         21   -1    0    0  501  502  0.00000000000E+00  0.00000000000E+00  0.26264268442E+02  0.26264268442E+02  0.00000000000E+00 0.  1.
         21   -1    0    0  502  503 -0.00000000000E+00 -0.00000000000E+00 -0.16995579085E+04  0.16995579085E+04  0.00000000000E+00 0. -1.
         -6    2    1    2    0  503  0.82403426572E+02  0.44540440575E+02 -0.11530537192E+04  0.11699068196E+04  0.17428399724E+03 0.  0.
        -24    2    3    3    0    0  0.45553502177E+02  0.30655539597E+02 -0.28310921707E+03  0.29905882245E+03  0.79186279284E+02 0.  0.
          6    2    1    2  501    0 -0.82403426572E+02 -0.44540440575E+02 -0.52023992088E+03  0.55591535734E+03  0.17209919723E+03 0.  0.
         24    2    5    5    0    0 -0.49544347993E+02 -0.54708734813E+02 -0.15738180703E+03  0.19140031781E+03  0.80108428964E+02 0.  0.
          5    1    5    5  501    0 -0.32859078579E+02  0.10168294238E+02 -0.36285811385E+03  0.36451503953E+03  0.47000000000E+01 0. -1.
        -13    1    6    6    0    0  0.51045928882E+00 -0.33296537830E+02 -0.10757510609E+02  0.34994914411E+02  0.00000000000E+00 0.  1.
         14    1    6    6    0    0 -0.50054807282E+02 -0.21412196983E+02 -0.14662429642E+03  0.15640540340E+03  0.00000000000E+00 0. -1.
         -5    1    3    3    0  503  0.36849924395E+02  0.13884900978E+02 -0.86994450212E+03  0.87084799717E+03  0.47000000000E+01 0.  1.
         13    1    4    4    0    0  0.13724309877E+02 -0.84369364736E+01 -0.20786490237E+03  0.20848826397E+03  0.00000000000E+00 0. -1.
        -14    1    4    4    0    0  0.31829192300E+02  0.39092476070E+02 -0.75244314707E+02  0.90570558481E+02  0.00000000000E+00 0.  1.
</event>
<event>
12    1  0.8421768E-002  0.1841859E+03  0.7818608E-02  0.1163879E+00
         21   -1    0    0  501  502  0.00000000000E+00  0.00000000000E+00  0.19693708376E+03  0.19693708376E+03  0.00000000000E+00 0. -1.
         21   -1    0    0  502  503 -0.00000000000E+00 -0.00000000000E+00 -0.30311642568E+03  0.30311642568E+03  0.00000000000E+00 0. -1.
         -6    2    1    2    0  503 -0.52933539042E+02  0.37845274200E+02 -0.21751021648E+03  0.28483499467E+03  0.17200597542E+03 0.  0.
        -24    2    3    3    0    0 -0.95446052111E+02 -0.11388649537E+02 -0.14641514139E+03  0.18835757392E+03  0.69293086385E+02 0.  0.
          6    2    1    2  501    0  0.52933539042E+02 -0.37845274200E+02  0.11133087456E+03  0.21521851477E+03  0.17230850569E+03 0.  0.
         24    2    5    5    0    0  0.49925464207E+02 -0.91228879736E+02  0.76032430900E+02  0.15097734433E+03  0.78727171156E+02 0.  0.
          5    1    5    5  501    0  0.30080748354E+01  0.53383605536E+02  0.35298443660E+02  0.64241170436E+02  0.47000000000E+01 0. -1.
        -13    1    6    6    0    0 -0.55693861995E+01 -0.16208008700E+02 -0.13377687831E+02  0.21741208346E+02  0.00000000000E+00 0.  1.
         14    1    6    6    0    0  0.55494850406E+02 -0.75020871037E+02  0.89410118731E+02  0.12923613598E+03  0.00000000000E+00 0. -1.
         -5    1    3    3    0  503  0.42512513068E+02  0.49233923737E+02 -0.71095075086E+02  0.96477420755E+02  0.47000000000E+01 0.  1.
         13    1    4    4    0    0 -0.90317779276E+02  0.11872741897E+02 -0.13242952847E+03  0.16073532052E+03  0.00000000000E+00 0. -1.
        -14    1    4    4    0    0 -0.51282728343E+01 -0.23261391433E+02 -0.13985612930E+02  0.27622253396E+02  0.00000000000E+00 0.  1.
</event>
<event>
12    1  0.8421768E-002  0.1918490E+03  0.7818608E-02  0.1156928E+00
         21   -1    0    0  503  502  0.00000000000E+00  0.00000000000E+00  0.17597483813E+04  0.17597483813E+04  0.00000000000E+00 0. -1.
         21   -1    0    0  501  503 -0.00000000000E+00 -0.00000000000E+00 -0.47150167434E+02  0.47150167434E+02  0.00000000000E+00 0. -1.
          6    2    1    2  501    0  0.29090407521E+02 -0.78148195534E+02  0.18216537840E+03  0.26455670966E+03  0.17277915171E+03 0.  0.
         24    2    3    3    0    0  0.13896262648E+02 -0.47588558001E+02  0.20376568818E+03  0.22389448067E+03  0.78425160672E+02 0.  0.
         -6    2    1    2    0  502 -0.29090407521E+02  0.78148195534E+02  0.15304328355E+04  0.15423418391E+04  0.17216356289E+03 0.  0.
        -24    2    5    5    0    0 -0.49903352813E+02 -0.79373710565E+01  0.66864836122E+03  0.67600560323E+03  0.85671454748E+02 0.  0.
          5    1    3    3  501    0  0.15194144873E+02 -0.30559637533E+02 -0.21600309779E+02  0.40662228998E+02  0.47000000000E+01 0. -1.
        -11    1    4    4    0    0 -0.11257826925E+02 -0.57997192686E+02  0.17302204066E+03  0.18283063086E+03  0.00000000000E+00 0.  1.
         12    1    4    4    0    0  0.25154089573E+02  0.10408634685E+02  0.30743647516E+02  0.41063849805E+02  0.00000000000E+00 0. -1.
         -5    1    5    5    0  502  0.20812945292E+02  0.86085566591E+02  0.86178447427E+03  0.86633623586E+03  0.47000000000E+01 0.  1.
         11    1    6    6    0    0 -0.26724474315E+02  0.17405760413E+02  0.58090997867E+03  0.58178480673E+03  0.00000000000E+00 0. -1.
        -12    1    6    6    0    0 -0.23178878499E+02 -0.25343131469E+02  0.87738382544E+02  0.94220796497E+02  0.00000000000E+00 0.  1.
</event>
<event>
12    1  0.8421768E-002  0.1968418E+03  0.7818608E-02  0.1152599E+00
         21   -1    0    0  501  502  0.00000000000E+00  0.00000000000E+00  0.17009084820E+03  0.17009084820E+03  0.00000000000E+00 0.  1.
         21   -1    0    0  502  503 -0.00000000000E+00 -0.00000000000E+00 -0.33559843931E+03  0.33559843931E+03  0.00000000000E+00 0.  1.
         -6    2    1    2    0  503 -0.40362711520E+02  0.86085935918E+02 -0.22654026421E+03  0.29960269555E+03  0.17146820996E+03 0.  0.
        -24    2    3    3    0    0 -0.82610386956E+01  0.63147877317E+01 -0.18954664258E+03  0.20587665049E+03  0.79681517298E+02 0.  0.
          6    2    1    2  501    0  0.40362711520E+02 -0.86085935918E+02  0.61032673107E+02  0.20608659196E+03  0.17235648916E+03 0.  0.
         24    2    5    5    0    0  0.16466777318E+02 -0.79528249949E+02  0.93553127357E+02  0.16493214067E+03  0.10887849233E+03 0.  0.
          5    1    5    5  501    0  0.23895934203E+02 -0.65576859689E+01 -0.32520454251E+02  0.41154451294E+02  0.47000000000E+01 0. -1.
        -11    1    6    6    0    0 -0.44697728275E+02 -0.49519129056E+02  0.56249395849E+02  0.87258384060E+02  0.00000000000E+00 0.  1.
         12    1    6    6    0    0  0.61164505593E+02 -0.30009120893E+02  0.37303731509E+02  0.77673756609E+02  0.00000000000E+00 0. -1.
         -5    1    3    3    0  503 -0.32101672825E+02  0.79771148186E+02 -0.36993621632E+02  0.93726045060E+02  0.47000000000E+01 0.  1.
         13    1    4    4    0    0  0.74166646590E+01 -0.35011438679E+02 -0.75103186772E+02  0.83194329232E+02  0.00000000000E+00 0. -1.
        -14    1    4    4    0    0 -0.15677703355E+02  0.41326226411E+02 -0.11444345580E+03  0.12268232125E+03  0.00000000000E+00 0.  1.
</event>
<event>
12    1  0.8421768E-002  0.2163147E+03  0.7818608E-02  0.1136662E+00
         21   -1    0    0  501  502  0.00000000000E+00  0.00000000000E+00  0.81884424507E+02  0.81884424507E+02  0.00000000000E+00 0.  1.
         21   -1    0    0  502  503 -0.00000000000E+00 -0.00000000000E+00 -0.85227733158E+03  0.85227733158E+03  0.00000000000E+00 0.  1.
         -6    2    1    2    0  503  0.60728781970E+02 -0.11601249844E+03 -0.65332142413E+03  0.68819880371E+03  0.17216801516E+03 0.  0.
        -24    2    3    3    0    0 -0.26685937837E+02 -0.21819316235E+02 -0.28866145126E+03  0.30153011526E+03  0.80042208399E+02 0.  0.
          6    2    1    2  501    0 -0.60728781970E+02  0.11601249844E+03 -0.11707148294E+03  0.24596295237E+03  0.17217769040E+03 0.  0.
         24    2    5    5    0    0 -0.59091692613E+02  0.66805567140E+02  0.68998563068E+01  0.11249016450E+03  0.68202765013E+02 0.  0.
          5    1    5    5  501    0 -0.16370893569E+01  0.49206931296E+02 -0.12397133924E+03  0.13347278787E+03  0.47000000000E+01 0. -1.
        -11    1    6    6    0    0 -0.66187714058E+02  0.26924271193E+02  0.34272003326E+00  0.71455212046E+02  0.00000000000E+00 0.  1.
         12    1    6    6    0    0  0.70960214453E+01  0.39881295947E+02  0.65571362736E+01  0.41034952454E+02  0.00000000000E+00 0. -1.
         -5    1    3    3    0  503  0.87414719807E+02 -0.94193182200E+02 -0.36465997287E+03  0.38666868845E+03  0.47000000000E+01 0.  1.
         13    1    4    4    0    0 -0.41865687479E+02 -0.18691654144E+02 -0.79333890512E+02  0.91629579867E+02  0.00000000000E+00 0. -1.
        -14    1    4    4    0    0  0.15179749642E+02 -0.31276620910E+01 -0.20932756075E+03  0.20990053540E+03  0.00000000000E+00 0.  1.
</event>
<event>
12    1  0.8421768E-002  0.2855245E+03  0.7818608E-02  0.1092858E+00
         21   -1    0    0  503  502  0.00000000000E+00  0.00000000000E+00  0.34763560154E+03  0.34763560154E+03  0.00000000000E+00 0.  1.
         21   -1    0    0  501  503 -0.00000000000E+00 -0.00000000000E+00 -0.28477652207E+03  0.28477652207E+03  0.00000000000E+00 0. -1.
          6    2    1    2  501    0 -0.21835806083E+03  0.61007432232E+02 -0.10257280666E+03  0.30338990052E+03  0.17355719966E+03 0.  0.
         24    2    3    3    0    0 -0.23918197736E+03  0.51271424038E+02 -0.76849052526E+02  0.26857285179E+03  0.79930110894E+02 0.  0.
         -6    2    1    2    0  502  0.21835806083E+03 -0.61007432232E+02  0.16543188612E+03  0.32902222309E+03  0.17171419518E+03 0.  0.
        -24    2    5    5    0    0  0.15688251130E+03 -0.98312132231E+02  0.78041930228E+02  0.21575272931E+03  0.78621241623E+02 0.  0.
          5    1    3    3  501    0  0.20823916536E+02  0.97360081941E+01 -0.25723754130E+02  0.34817048726E+02  0.47000000000E+01 0. -1.
        -11    1    4    4    0    0 -0.19395749883E+03  0.62627712041E+02 -0.36815237681E+02  0.20711615918E+03  0.00000000000E+00 0.  1.
         12    1    4    4    0    0 -0.45224478531E+02 -0.11356288003E+02 -0.40033814845E+02  0.61456692611E+02  0.00000000000E+00 0. -1.
         -5    1    5    5    0  502  0.61475549527E+02  0.37304699998E+02  0.87389955890E+02  0.11326949378E+03  0.47000000000E+01 0.  1.
         13    1    6    6    0    0  0.53894620112E+02  0.15683977755E+01  0.33847553436E+01  0.54023573719E+02  0.00000000000E+00 0. -1.
        -14    1    6    6    0    0  0.10298789119E+03 -0.99880530006E+02  0.74657174884E+02  0.16172915559E+03  0.00000000000E+00 0.  1.
</event>
<event>
12    1  0.8421768E-002  0.1806110E+03  0.7818608E-02  0.1167290E+00
         21   -1    0    0  503  502  0.00000000000E+00  0.00000000000E+00  0.90205109772E+02  0.90205109772E+02  0.00000000000E+00 0.  1.
         21   -1    0    0  501  503 -0.00000000000E+00 -0.00000000000E+00 -0.41524960054E+03  0.41524960054E+03  0.00000000000E+00 0.  1.
          6    2    1    2  501    0  0.83409798036E+01  0.39630184309E+02 -0.25375960199E+03  0.31128503714E+03  0.17568242738E+03 0.  0.
         24    2    3    3    0    0 -0.34155840920E+02  0.25823098009E+02 -0.25054024313E+03  0.26623984122E+03  0.79245099314E+02 0.  0.
         -6    2    1    2    0  502 -0.83409798036E+01 -0.39630184309E+02 -0.71284888781E+02  0.19416967318E+03  0.17601194039E+03 0.  0.
        -24    2    5    5    0    0 -0.22021098043E+02  0.27389015078E+02 -0.87743664185E+02  0.12365939018E+03  0.79734605210E+02 0.  0.
          5    1    3    3  501    0  0.42496820724E+02  0.13807086300E+02 -0.32193588602E+01  0.45045195917E+02  0.47000000000E+01 0. -1.
        -13    1    4    4    0    0 -0.52883625113E+01 -0.14693985503E+02 -0.17558019441E+03  0.17627332372E+03  0.00000000000E+00 0.  1.
         14    1    4    4    0    0 -0.28867478409E+02  0.40517083512E+02 -0.74960048721E+02  0.89966517495E+02  0.00000000000E+00 0. -1.
         -5    1    5    5    0  502  0.13680118239E+02 -0.67019199387E+02  0.16458775403E+02  0.70510283004E+02  0.47000000000E+01 0.  1.
         13    1    6    6    0    0 -0.26905633240E+02 -0.18397053324E+02 -0.64070254076E+02  0.71884366370E+02  0.00000000000E+00 0. -1.
        -14    1    6    6    0    0  0.48845351975E+01  0.45786068402E+02 -0.23673410109E+02  0.51775023805E+02  0.00000000000E+00 0.  1.
</event>
<event>
12    1  0.8421768E-002  0.2211427E+03  0.7818608E-02  0.1133070E+00
         21   -1    0    0  501  502  0.00000000000E+00  0.00000000000E+00  0.13251752198E+03  0.13251752198E+03  0.00000000000E+00 0. -1.
         21   -1    0    0  502  503 -0.00000000000E+00 -0.00000000000E+00 -0.64750512694E+03  0.64750512694E+03  0.00000000000E+00 0.  1.
         -6    2    1    2    0  503  0.24926576149E+02  0.13711476349E+03 -0.51334459373E+03  0.55887384356E+03  0.17145118410E+03 0.  0.
        -24    2    3    3    0    0  0.58439890855E+02  0.99036910895E+02 -0.23461363265E+03  0.27552581764E+03  0.87449351061E+02 0.  0.
          6    2    1    2  501    0 -0.24926576149E+02 -0.13711476349E+03 -0.16430112279E+01  0.22114880536E+03  0.17170411196E+03 0.  0.
         24    2    5    5    0    0 -0.75048991451E+02 -0.68397206330E+02 -0.27197766517E+02  0.13221346539E+03  0.80188234651E+02 0.  0.
          5    1    5    5  501    0  0.50122415302E+02 -0.68717557155E+02  0.25554755289E+02  0.88935339967E+02  0.47000000000E+01 0. -1.
        -13    1    6    6    0    0 -0.43642753106E+02  0.64719339780E+01  0.59470136218E+01  0.44519016152E+02  0.00000000000E+00 0.  1.
         14    1    6    6    0    0 -0.31406238345E+02 -0.74869140308E+02 -0.33144780138E+02  0.87694449242E+02  0.00000000000E+00 0. -1.
         -5    1    3    3    0  503 -0.33513314706E+02  0.38077852591E+02 -0.27873096109E+03  0.28334802591E+03  0.47000000000E+01 0.  1.
         11    1    4    4    0    0  0.48470981271E+02  0.42659836347E+02 -0.48361418308E+02  0.80672947407E+02  0.00000000000E+00 0. -1.
        -12    1    4    4    0    0  0.99689095840E+01  0.56377074548E+02 -0.18625221434E+03  0.19485287024E+03  0.00000000000E+00 0.  1.
</event>
<event>
12    1  0.8421768E-002  0.2770339E+03  0.7818608E-02  0.1097367E+00
         21   -1    0    0  503  502  0.00000000000E+00  0.00000000000E+00  0.63468483042E+02  0.63468483042E+02  0.00000000000E+00 0. -1.
         21   -1    0    0  501  503 -0.00000000000E+00 -0.00000000000E+00 -0.12080754127E+04  0.12080754127E+04  0.00000000000E+00 0.  1.
          6    2    1    2  501    0 -0.17585519599E+03 -0.12762318672E+03 -0.58288543017E+03  0.64537060172E+03  0.17185767692E+03 0.  0.
         24    2    3    3    0    0 -0.12725023430E+03 -0.15329360279E+03 -0.51739008681E+03  0.55973683172E+03  0.76949776330E+02 0.  0.
         -6    2    1    2    0  502  0.17585519599E+03  0.12762318672E+03 -0.56172149946E+03  0.62617329399E+03  0.17131615048E+03 0.  0.
        -24    2    5    5    0    0  0.20247526287E+03  0.11279287324E+03 -0.51299459601E+03  0.56851076475E+03  0.79514588466E+02 0.  0.
          5    1    3    3  501    0 -0.48604961681E+02  0.25670416070E+02 -0.65495343360E+02  0.85633769992E+02  0.47000000000E+01 0. -1.
        -11    1    4    4    0    0 -0.62486702863E+02 -0.92548794883E+02 -0.18871400844E+03  0.21927800722E+03  0.00000000000E+00 0.  1.
         12    1    4    4    0    0 -0.64763531442E+02 -0.60744807903E+02 -0.32867607837E+03  0.34045882451E+03  0.00000000000E+00 0. -1.
         -5    1    5    5    0  502 -0.26620066882E+02  0.14830313480E+02 -0.48726903452E+02  0.57662529243E+02  0.47000000000E+01 0.  1.
         11    1    6    6    0    0  0.10368629646E+03  0.13641784305E+02 -0.23727111395E+03  0.25929621646E+03  0.00000000000E+00 0. -1.
        -12    1    6    6    0    0  0.98788966404E+02  0.99151088931E+02 -0.27572348205E+03  0.30921454829E+03  0.00000000000E+00 0.  1.
</event>
<event>
12    1  0.8421768E-002  0.2268364E+03  0.7818608E-02  0.1129074E+00
         21   -1    0    0  503  502  0.00000000000E+00  0.00000000000E+00  0.50299005660E+03  0.50299005660E+03  0.00000000000E+00 0.  1.
         21   -1    0    0  501  503 -0.00000000000E+00 -0.00000000000E+00 -0.31153123153E+03  0.31153123153E+03  0.00000000000E+00 0. -1.
          6    2    1    2  501    0  0.14430900742E+03  0.31844236526E+02 -0.23833507599E+03  0.32902639872E+03  0.17209188703E+03 0.  0.
         24    2    3    3    0    0  0.11415296384E+03 -0.42006374352E+02 -0.18204501887E+03  0.23128203712E+03  0.74535610035E+02 0.  0.
         -6    2    1    2    0  502 -0.14430900742E+03 -0.31844236526E+02  0.42979390106E+03  0.48549488942E+03  0.17071422097E+03 0.  0.
        -24    2    5    5    0    0 -0.97393340100E+02  0.11799077982E+02  0.13933448965E+03  0.18801450617E+03  0.79439748156E+02 0.  0.
          5    1    3    3  501    0  0.30156043586E+02  0.73850610878E+02 -0.56290057126E+02  0.97744361592E+02  0.47000000000E+01 0. -1.
        -11    1    4    4    0    0  0.12381860707E+02 -0.15985918125E+02  0.99154756032E+00  0.20244584941E+02  0.00000000000E+00 0.  1.
         12    1    4    4    0    0  0.10177110313E+03 -0.26020456226E+02 -0.18303656643E+03  0.21103745218E+03  0.00000000000E+00 0. -1.
         -5    1    5    5    0  502 -0.46915667322E+02 -0.43643314508E+02  0.29045941141E+03  0.29748038325E+03  0.47000000000E+01 0.  1.
         11    1    6    6    0    0 -0.10146758981E+03  0.27540258830E+02  0.98536563371E+02  0.14409577356E+03  0.00000000000E+00 0. -1.
        -12    1    6    6    0    0  0.40742497066E+01 -0.15741180848E+02  0.40797926278E+02  0.43918732607E+02  0.00000000000E+00 0.  1.
</event>
<event>
12    1  0.8421768E-002  0.1978013E+03  0.7818608E-02  0.1151678E+00
         21   -1    0    0  501  502  0.00000000000E+00  0.00000000000E+00  0.44881496367E+02  0.44881496367E+02  0.00000000000E+00 0.  1.
         21   -1    0    0  502  503 -0.00000000000E+00 -0.00000000000E+00 -0.90930533649E+03  0.90930533649E+03  0.00000000000E+00 0.  1.
         -6    2    1    2    0  503 -0.38323354276E+01  0.97636874978E+02 -0.53136473580E+03  0.56698663159E+03  0.17198171935E+03 0.  0.
        -24    2    3    3    0    0  0.38449513616E+02  0.23246590961E+02 -0.40028944083E+03  0.41038365566E+03  0.78513306575E+02 0.  0.
          6    2    1    2  501    0  0.38323354276E+01 -0.97636874978E+02 -0.33305910432E+03  0.38720020127E+03  0.17160414547E+03 0.  0.
         24    2    5    5    0    0  0.47769905322E+02 -0.11702290871E+03 -0.24557420665E+03  0.28729011333E+03  0.79073340820E+02 0.  0.
          5    1    5    5  501    0 -0.43937569895E+02  0.19386033731E+02 -0.87484897670E+02  0.99910087941E+02  0.47000000000E+01 0. -1.
        -11    1    6    6    0    0  0.11889381299E+02 -0.11195183809E+03 -0.19303750939E+03  0.22346823370E+03  0.00000000000E+00 0.  1.
         12    1    6    6    0    0  0.35880524023E+02 -0.50710706236E+01 -0.52536697256E+02  0.63821879634E+02  0.00000000000E+00 0. -1.
         -5    1    3    3    0  503 -0.42281849044E+02  0.74390284017E+02 -0.13107529498E+03  0.15660297592E+03  0.47000000000E+01 0.  1.
         11    1    4    4    0    0 -0.53206768818E+00 -0.17132458518E+02 -0.21682898185E+02  0.27639687129E+02  0.00000000000E+00 0. -1.
        -12    1    4    4    0    0  0.38981581304E+02  0.40379049479E+02 -0.37860654264E+03  0.38274396854E+03  0.00000000000E+00 0.  1.
</event>
<event>
12    1  0.8421768E-002  0.2941848E+03  0.7818608E-02  0.1089163E+00
         21   -1    0    0  503  502  0.00000000000E+00  0.00000000000E+00  0.40557038718E+03  0.40557038718E+03  0.00000000000E+00 0. -1.
         21   -1    0    0  501  503 -0.00000000000E+00 -0.00000000000E+00 -0.32070142440E+03  0.32070142440E+03  0.00000000000E+00 0. -1.
          6    2    1    2  501    0  0.23839754560E+03  0.29639590059E+01 -0.17321729153E+03  0.33492383961E+03  0.15914639001E+03 0.  0.
         24    2    3    3    0    0  0.18045834135E+03 -0.15453042039E+02 -0.61614332401E+02  0.20774896865E+03  0.80989496531E+02 0.  0.
         -6    2    1    2    0  502 -0.23839754560E+03 -0.29639590059E+01  0.25808625430E+03  0.39134797197E+03  0.17234426507E+03 0.  0.
        -24    2    5    5    0    0 -0.24792774471E+03  0.24111231935E+02  0.21194918802E+03  0.33680799081E+03  0.80421677863E+02 0.  0.
          5    1    3    3  501    0  0.57939204254E+02  0.18417001045E+02 -0.11160295913E+03  0.12717487096E+03  0.47000000000E+01 0. -1.
        -11    1    4    4    0    0  0.50172972851E+02 -0.41475433021E+02 -0.13760827264E+02  0.66534946576E+02  0.00000000000E+00 0.  1.
         12    1    4    4    0    0  0.13028536850E+03  0.26022390981E+02 -0.47853505137E+02  0.14121402208E+03  0.00000000000E+00 0. -1.
         -5    1    5    5    0  502  0.95301991064E+01 -0.27075190941E+02  0.46137066286E+02  0.54539981160E+02  0.47000000000E+01 0.  1.
         11    1    6    6    0    0 -0.11425735240E+03 -0.16570287880E+02  0.13375910336E+03  0.17669412766E+03  0.00000000000E+00 0. -1.
        -12    1    6    6    0    0 -0.13367039231E+03  0.40681519814E+02  0.78190084662E+02  0.16011386315E+03  0.00000000000E+00 0.  1.
</event>
<event>
12    1  0.8421768E-002  0.2083488E+03  0.7818608E-02  0.1143358E+00
         21   -1    0    0  501  502  0.00000000000E+00  0.00000000000E+00  0.11785661131E+03  0.11785661131E+03  0.00000000000E+00 0.  1.
         21   -1    0    0  502  503 -0.00000000000E+00 -0.00000000000E+00 -0.94215009508E+03  0.94215009508E+03  0.00000000000E+00 0. -1.
         -6    2    1    2    0  503 -0.11697337520E+03 -0.16819327759E+02 -0.82636400900E+03  0.85164758707E+03  0.16870233223E+03 0.  0.
        -24    2    3    3    0    0 -0.85434641420E+02 -0.51949377535E+02 -0.75524264471E+03  0.76615401664E+03  0.81257055388E+02 0.  0.
          6    2    1    2  501    0  0.11697337520E+03  0.16819327759E+02  0.20705252241E+01  0.20835911933E+03  0.17159130293E+03 0.  0.
         24    2    5    5    0    0  0.85748551142E+02 -0.13863133170E+02  0.62827706286E+02  0.13332627254E+03  0.79268996390E+02 0.  0.
          5    1    5    5  501    0  0.31224824055E+02  0.30682460929E+02 -0.60757181062E+02  0.75032846784E+02  0.47000000000E+01 0. -1.
        -11    1    6    6    0    0  0.72228929067E+01  0.24999095255E+02  0.30121503023E+02  0.39804897813E+02  0.00000000000E+00 0.  1.
         12    1    6    6    0    0  0.78525658235E+02 -0.38862228425E+02  0.32706203263E+02  0.93521374730E+02  0.00000000000E+00 0. -1.
         -5    1    3    3    0  503 -0.31538733776E+02  0.35130049777E+02 -0.71121364288E+02  0.85493570423E+02  0.47000000000E+01 0.  1.
         11    1    4    4    0    0 -0.29752762771E+02  0.12969250045E+02 -0.37545306019E+03  0.37685332524E+03  0.00000000000E+00 0. -1.
        -12    1    4    4    0    0 -0.55681878649E+02 -0.64918627581E+02 -0.37978958452E+03  0.38930069140E+03  0.00000000000E+00 0.  1.
</event>
<event>
12    1  0.8421768E-002  0.1863088E+03  0.7818608E-02  0.1161914E+00
         21   -1    0    0  503  502  0.00000000000E+00  0.00000000000E+00  0.57726767055E+02  0.57726767055E+02  0.00000000000E+00 0. -1.
         21   -1    0    0  501  503 -0.00000000000E+00 -0.00000000000E+00 -0.72087693093E+03  0.72087693093E+03  0.00000000000E+00 0. -1.
          6    2    1    2  501    0 -0.37930573099E+02  0.62129092330E+02 -0.49113585218E+03  0.52528602857E+03  0.17149995342E+03 0.  0.
         24    2    3    3    0    0 -0.76593650916E+02  0.53624086792E+02 -0.23044249594E+03  0.26156214892E+03  0.81048650644E+02 0.  0.
         -6    2    1    2    0  502  0.37930573099E+02 -0.62129092330E+02 -0.17201431169E+03  0.25331766941E+03  0.17112032527E+03 0.  0.
        -24    2    5    5    0    0  0.85371338569E+02 -0.38711273471E+02 -0.85974630478E+02  0.15220418262E+03  0.83592152608E+02 0.  0.
          5    1    3    3  501    0  0.38663077817E+02  0.85050055376E+01 -0.26069335625E+03  0.26372387965E+03  0.47000000000E+01 0. -1.
        -13    1    4    4    0    0 -0.13595655856E+02 -0.15463104687E+02 -0.11715447634E+02  0.23689685054E+02  0.00000000000E+00 0.  1.
         14    1    4    4    0    0 -0.62997995060E+02  0.69087191479E+02 -0.21872704830E+03  0.23787246387E+03  0.00000000000E+00 0. -1.
         -5    1    5    5    0  502 -0.47440765470E+02 -0.23417818858E+02 -0.86039681213E+02  0.10111348679E+03  0.47000000000E+01 0.  1.
         13    1    6    6    0    0  0.70986892938E+02 -0.34610463119E+02 -0.10283757986E+03  0.12966337554E+03  0.00000000000E+00 0. -1.
        -14    1    6    6    0    0  0.14384445631E+02 -0.41008103524E+01  0.16862949381E+02  0.22540807073E+02  0.00000000000E+00 0.  1.
</event>
<event>
12    1  0.8421768E-002  0.2438026E+03  0.7818608E-02  0.1117290E+00
         21   -1    0    0  501  502  0.00000000000E+00  0.00000000000E+00  0.69969278983E+03  0.69969278983E+03  0.00000000000E+00 0. -1.
         21   -1    0    0  502  503 -0.00000000000E+00 -0.00000000000E+00 -0.14155429261E+03  0.14155429261E+03  0.00000000000E+00 0.  1.
         -6    2    1    2    0  503 -0.15319827065E+03  0.79608022525E+02  0.13073962686E+02  0.24415290484E+03  0.17214111960E+03 0.  0.
        -24    2    3    3    0    0 -0.24598503651E+02  0.42547427783E+02 -0.39975984284E+02  0.10011202651E+03  0.77517536983E+02 0.  0.
          6    2    1    2  501    0  0.15319827065E+03 -0.79608022525E+02  0.54506453454E+03  0.59709417761E+03  0.17210160587E+03 0.  0.
         24    2    5    5    0    0  0.17499887880E+03 -0.86022504081E+02  0.52720901378E+03  0.56781412108E+03  0.80243710581E+02 0.  0.
          5    1    5    5  501    0 -0.21800608147E+02  0.64144815561E+01  0.17855520753E+02  0.29280056533E+02  0.47000000000E+01 0. -1.
        -11    1    6    6    0    0  0.89476368348E+02 -0.50925982662E+02  0.16918656602E+03  0.19804941384E+03  0.00000000000E+00 0.  1.
         12    1    6    6    0    0  0.85522510450E+02 -0.35096521419E+02  0.35802244777E+03  0.36976470723E+03  0.00000000000E+00 0. -1.
         -5    1    3    3    0  503 -0.12859976700E+03  0.37060594742E+02  0.53049946970E+02  0.14404087832E+03  0.47000000000E+01 0.  1.
         13    1    4    4    0    0  0.12574551693E+01 -0.11862778737E+02  0.14580235249E+02  0.18838523635E+02  0.00000000000E+00 0. -1.
        -14    1    4    4    0    0 -0.25855958821E+02  0.54410206519E+02 -0.54556219532E+02  0.81273502876E+02  0.00000000000E+00 0.  1.
</event>
<event>
12    1  0.8421768E-002  0.1766955E+03  0.7818608E-02  0.1171323E+00
         21   -1    0    0  501  502  0.00000000000E+00  0.00000000000E+00  0.79324484012E+03  0.79324484012E+03  0.00000000000E+00 0.  1.
         21   -1    0    0  502  503 -0.00000000000E+00 -0.00000000000E+00 -0.44169769222E+02  0.44169769222E+02  0.00000000000E+00 0.  1.
         -6    2    1    2    0  503 -0.25194099465E+02 -0.32721396945E+02  0.23384250187E+03  0.29309319858E+03  0.17180184780E+03 0.  0.
        -24    2    3    3    0    0  0.69157761651E+01  0.33780214390E+02  0.68901994012E+02  0.11231441234E+03  0.81719713629E+02 0.  0.
          6    2    1    2  501    0  0.25194099465E+02  0.32721396945E+02  0.51523256903E+03  0.54432141076E+03  0.17063342451E+03 0.  0.
         24    2    5    5    0    0  0.69678200519E+02  0.85018926326E+01  0.21530225923E+03  0.24010816258E+03  0.79809354720E+02 0.  0.
          5    1    5    5  501    0 -0.44484101054E+02  0.24219504313E+02  0.29993030979E+03  0.30421324818E+03  0.47000000000E+01 0. -1.
        -13    1    6    6    0    0  0.29593888223E+02  0.35645208815E+02  0.16018414258E+03  0.16674932883E+03  0.00000000000E+00 0.  1.
         14    1    6    6    0    0  0.40084312295E+02 -0.27143316182E+02  0.55118116652E+02  0.73358833747E+02  0.00000000000E+00 0. -1.
         -5    1    3    3    0  503 -0.32109875630E+02 -0.66501611335E+02  0.16494050786E+03  0.18077878624E+03  0.47000000000E+01 0.  1.
         13    1    4    4    0    0 -0.69825672448E+01  0.12325768152E+02  0.82260665510E+02  0.83471539437E+02  0.00000000000E+00 0. -1.
        -14    1    4    4    0    0  0.13898343410E+02  0.21454446238E+02 -0.13358671499E+02  0.28842872900E+02  0.00000000000E+00 0.  1.
</event>
<event>
12    1  0.8421768E-002  0.1918762E+03  0.7818608E-02  0.1157395E+00
         21   -1    0    0  501  502  0.00000000000E+00  0.00000000000E+00  0.39303997239E+02  0.39303997239E+02  0.00000000000E+00 0.  1.
         21   -1    0    0  502  503 -0.00000000000E+00 -0.00000000000E+00 -0.93952612319E+03  0.93952612319E+03  0.00000000000E+00 0.  1.
         -6    2    1    2    0  503 -0.80199373438E+02 -0.23283760426E+02 -0.51745197430E+03  0.55188133651E+03  0.17274950328E+03 0.  0.
        -24    2    3    3    0    0 -0.89250576130E+02  0.29476151524E+02 -0.23746866656E+03  0.26678788659E+03  0.77135594779E+02 0.  0.
          6    2    1    2  501    0  0.80199373438E+02  0.23283760426E+02 -0.38277015165E+03  0.42694878392E+03  0.16970033027E+03 0.  0.
         24    2    5    5    0    0  0.40541797431E+02  0.24903186981E+02 -0.37479866805E+03  0.38619365629E+03  0.80048063857E+02 0.  0.
          5    1    5    5  501    0  0.39657576006E+02 -0.16194265558E+01 -0.79714836039E+01  0.40755127627E+02  0.47000000000E+01 0. -1.
        -11    1    6    6    0    0  0.60557974224E+02  0.20428463863E+02 -0.33868327758E+03  0.34466063438E+03  0.00000000000E+00 0.  1.
         12    1    6    6    0    0 -0.20016176793E+02  0.44747231181E+01 -0.36115390464E+02  0.41533021908E+02  0.00000000000E+00 0. -1.
         -5    1    3    3    0  503  0.90512026927E+01 -0.52759911949E+02 -0.27998330774E+03  0.28509344993E+03  0.47000000000E+01 0.  1.
         11    1    4    4    0    0 -0.44601065370E+02 -0.81420652583E+01 -0.38658171378E+02  0.59581897193E+02  0.00000000000E+00 0. -1.
        -12    1    4    4    0    0 -0.44649510760E+02  0.37618216782E+02 -0.19881049518E+03  0.20720598939E+03  0.00000000000E+00 0.  1.
</event>
<event>
12    1  0.8421768E-002  0.2142014E+03  0.7818608E-02  0.1138289E+00
         21   -1    0    0  503  502  0.00000000000E+00  0.00000000000E+00  0.79595804295E+02  0.79595804295E+02  0.00000000000E+00 0.  1.
         21   -1    0    0  501  503 -0.00000000000E+00 -0.00000000000E+00 -0.57978955509E+03  0.57978955509E+03  0.00000000000E+00 0. -1.
          6    2    1    2  501    0 -0.77980440719E+02  0.10053976602E+03 -0.27550749842E+03  0.34895639708E+03  0.17227011258E+03 0.  0.
         24    2    3    3    0    0 -0.54869896395E+01  0.11424437443E+03 -0.17423438427E+03  0.22357118906E+03  0.80898527613E+02 0.  0.
         -6    2    1    2    0  502  0.77980440719E+02 -0.10053976602E+03 -0.22468625238E+03  0.31042896231E+03  0.17231667054E+03 0.  0.
        -24    2    5    5    0    0  0.11141948739E+03 -0.97827130679E+02 -0.21850439947E+03  0.27599302848E+03  0.80271598421E+02 0.  0.
          5    1    3    3  501    0 -0.72493451080E+02 -0.13704608406E+02 -0.10127311415E+03  0.12538520802E+03  0.47000000000E+01 0. -1.
        -13    1    4    4    0    0  0.10863717445E+02  0.15790286269E+02 -0.92806366818E+02  0.94764841683E+02  0.00000000000E+00 0.  1.
         14    1    4    4    0    0 -0.16350707085E+02  0.98454088160E+02 -0.81428017456E+02  0.12880634738E+03  0.00000000000E+00 0. -1.
         -5    1    5    5    0  502 -0.33439046675E+02 -0.27126353438E+01 -0.61818529010E+01  0.34435933824E+02  0.47000000000E+01 0.  1.
         13    1    6    6    0    0  0.76313240170E+01  0.48552753408E+01 -0.59276128234E+02  0.59962239646E+02  0.00000000000E+00 0. -1.
        -14    1    6    6    0    0  0.10378816338E+03 -0.10268240602E+03 -0.15922827124E+03  0.21603078884E+03  0.00000000000E+00 0.  1.
</event>
<event>
12    1  0.8421768E-002  0.1821700E+03  0.7818608E-02  0.1166023E+00
         21   -1    0    0  501  502  0.00000000000E+00  0.00000000000E+00  0.34981598742E+03  0.34981598742E+03  0.00000000000E+00 0.  1.
         21   -1    0    0  502  503 -0.00000000000E+00 -0.00000000000E+00 -0.25953670408E+03  0.25953670408E+03  0.00000000000E+00 0.  1.
         -6    2    1    2    0  503 -0.38362938901E+02  0.46332704967E+02 -0.19809070432E+03  0.26826153764E+03  0.17060448648E+03 0.  0.
        -24    2    3    3    0    0 -0.17787687156E+02  0.74552343098E+02 -0.55111015709E+02  0.12100336192E+03  0.75697660914E+02 0.  0.
          6    2    1    2  501    0  0.38362938901E+02 -0.46332704967E+02  0.28836998765E+03  0.34109115386E+03  0.17195200154E+03 0.  0.
         24    2    5    5    0    0 -0.99216503146E+01 -0.13131709569E+02  0.50663470570E+02  0.96223463234E+02  0.80132931341E+02 0.  0.
          5    1    5    5  501    0  0.48284589215E+02 -0.33200995398E+02  0.23770651708E+03  0.24486769063E+03  0.47000000000E+01 0. -1.
        -13    1    6    6    0    0 -0.10128658929E+02 -0.43885686306E+02  0.47254552209E+02  0.65280440399E+02  0.00000000000E+00 0.  1.
         14    1    6    6    0    0  0.20700861436E+00  0.30753976738E+02  0.34089183616E+01  0.30943022835E+02  0.00000000000E+00 0. -1.
         -5    1    3    3    0  503 -0.20575251745E+02 -0.28219638132E+02 -0.14297968861E+03  0.14725817572E+03  0.47000000000E+01 0.  1.
         11    1    4    4    0    0 -0.31046993372E+01  0.81006450076E+02 -0.63432924453E+02  0.10293405664E+03  0.00000000000E+00 0. -1.
        -12    1    4    4    0    0 -0.14682987819E+02 -0.64541069778E+01  0.83219087434E+01  0.18069305280E+02  0.00000000000E+00 0.  1.
</event>
<event>
12    1  0.8421768E-002  0.2414295E+03  0.7818608E-02  0.1118921E+00
         21   -1    0    0  501  502  0.00000000000E+00  0.00000000000E+00  0.38819796183E+03  0.38819796183E+03  0.00000000000E+00 0.  1.
         21   -1    0    0  502  503 -0.00000000000E+00 -0.00000000000E+00 -0.14987602333E+03  0.14987602333E+03  0.00000000000E+00 0.  1.
         -6    2    1    2    0  503 -0.64034572471E+02 -0.15591952050E+03  0.12170502529E+03  0.27037067461E+03  0.17284925560E+03 0.  0.
        -24    2    3    3    0    0 -0.57858496818E+02 -0.36184464765E+02  0.13276379011E+02  0.10865027139E+03  0.83496695079E+02 0.  0.
          6    2    1    2  501    0  0.64034572471E+02  0.15591952050E+03  0.11661691320E+03  0.26770331056E+03  0.17220404959E+03 0.  0.
         24    2    5    5    0    0  0.73223985447E+02  0.15797341540E+03  0.14319362159E+03  0.23911878285E+03  0.79724695241E+02 0.  0.
          5    1    5    5  501    0 -0.91894129754E+01 -0.20538948988E+01 -0.26576708391E+02  0.28584527702E+02  0.47000000000E+01 0. -1.
        -13    1    6    6    0    0 -0.94071076082E+01  0.25998542958E+02  0.51406615735E+02  0.58370009858E+02  0.00000000000E+00 0.  1.
         14    1    6    6    0    0  0.82631093055E+02  0.13197487244E+03  0.91787005859E+02  0.18074877300E+03  0.00000000000E+00 0. -1.
         -5    1    3    3    0  503 -0.61760756529E+01 -0.11973505573E+03  0.10842864628E+03  0.16172040322E+03  0.47000000000E+01 0.  1.
         11    1    4    4    0    0  0.10023895529E+02 -0.30302026789E+02 -0.14516562577E+02  0.35063113071E+02  0.00000000000E+00 0. -1.
        -12    1    4    4    0    0 -0.67882392348E+02 -0.58824379751E+01  0.27792941589E+02  0.73587158320E+02  0.00000000000E+00 0.  1.
</event>
<event>
12    1  0.8421768E-002  0.1799308E+03  0.7818608E-02  0.1167999E+00
         21   -1    0    0  503  502  0.00000000000E+00  0.00000000000E+00  0.48093986479E+03  0.48093986479E+03  0.00000000000E+00 0. -1.
         21   -1    0    0  501  503 -0.00000000000E+00 -0.00000000000E+00 -0.67408420455E+02  0.67408420455E+02  0.00000000000E+00 0. -1.
          6    2    1    2  501    0  0.49951754488E+02 -0.47667284119E+01  0.18843405009E+03  0.26017484900E+03  0.17223722402E+03 0.  0.
         24    2    3    3    0    0  0.61124155179E+02  0.30326271149E+01  0.21048429007E+03  0.23383181259E+03  0.81414501414E+02 0.  0.
         -6    2    1    2    0  502 -0.49951754488E+02  0.47667284119E+01  0.22509739424E+03  0.28817343625E+03  0.17279234065E+03 0.  0.
        -24    2    5    5    0    0  0.32997286688E+02  0.99172297908E+01  0.16105456444E+03  0.18314655804E+03  0.80105659107E+02 0.  0.
          5    1    3    3  501    0 -0.11172400691E+02 -0.77993555268E+01 -0.22050239978E+02  0.26343036403E+02  0.47000000000E+01 0. -1.
        -13    1    4    4    0    0  0.42706317341E+02 -0.27157057591E+02  0.56559249676E+02  0.75896535110E+02  0.00000000000E+00 0.  1.
         14    1    4    4    0    0  0.18417837839E+02  0.30189684706E+02  0.15392504039E+03  0.15793527748E+03  0.00000000000E+00 0. -1.
         -5    1    5    5    0  502 -0.82949041176E+02 -0.51505013789E+01  0.64042829806E+02  0.10502687821E+03  0.47000000000E+01 0.  1.
         13    1    6    6    0    0  0.12778151026E+01 -0.23544066831E+02  0.10721025427E+02  0.25901665595E+02  0.00000000000E+00 0. -1.
        -14    1    6    6    0    0  0.31719471585E+02  0.33461296622E+02  0.15033353901E+03  0.15724489245E+03  0.00000000000E+00 0.  1.
</event>
<event>
12    1  0.8421768E-002  0.1863399E+03  0.7818608E-02  0.1162768E+00
         21   -1    0    0  503  502  0.00000000000E+00  0.00000000000E+00  0.11372002040E+03  0.11372002040E+03  0.00000000000E+00 0.  1.
         21   -1    0    0  501  503 -0.00000000000E+00 -0.00000000000E+00 -0.81149374500E+03  0.81149374500E+03  0.00000000000E+00 0. -1.
          6    2    1    2  501    0  0.48621382968E+02  0.48618160667E+02 -0.71807767713E+03  0.74186123868E+03  0.17319001888E+03 0.  0.
         24    2    3    3    0    0 -0.18588742623E+02 -0.27034188211E+02 -0.31018024391E+03  0.32157218945E+03  0.78233628548E+02 0.  0.
         -6    2    1    2    0  502 -0.48621382968E+02 -0.48618160667E+02  0.20303952528E+02  0.18335252671E+03  0.16875465663E+03 0.  0.
        -24    2    5    5    0    0 -0.81690143872E+02 -0.31060810297E+02 -0.26169426952E+02  0.12348877725E+03  0.83226111628E+02 0.  0.
          5    1    3    3  501    0  0.67210125590E+02  0.75652348878E+02 -0.40789743322E+03  0.42028904923E+03  0.47000000000E+01 0. -1.
        -13    1    4    4    0    0  0.26480074896E+02 -0.69018812205E+01 -0.52468086392E+02  0.59175420746E+02  0.00000000000E+00 0.  1.
         14    1    4    4    0    0 -0.45068817519E+02 -0.20132306991E+02 -0.25771215752E+03  0.26239676871E+03  0.00000000000E+00 0. -1.
         -5    1    5    5    0  502  0.33068760904E+02 -0.17557350369E+02  0.46473379480E+02  0.59863749465E+02  0.47000000000E+01 0.  1.
         11    1    6    6    0    0  0.12159012900E+02 -0.21258858102E+02 -0.14367968423E+02  0.28393998646E+02  0.00000000000E+00 0. -1.
        -12    1    6    6    0    0 -0.93849156772E+02 -0.98019521952E+01 -0.11801458529E+02  0.95094778600E+02  0.00000000000E+00 0.  1.
</event>
<event>
12    1  0.8421768E-002  0.1721983E+03  0.7818608E-02  0.1175670E+00
         21   -1    0    0  503  502  0.00000000000E+00  0.00000000000E+00  0.14266924784E+03  0.14266924784E+03  0.00000000000E+00 0.  1.
         21   -1    0    0  501  503 -0.00000000000E+00 -0.00000000000E+00 -0.40043088318E+03  0.40043088318E+03  0.00000000000E+00 0.  1.
          6    2    1    2  501    0  0.11765819525E+02 -0.58556633865E+01 -0.31749706571E+03  0.36118783653E+03  0.17169607805E+03 0.  0.
         24    2    3    3    0    0 -0.39260903938E+02 -0.43145818145E+02 -0.25381602681E+03  0.27134549203E+03  0.76176245499E+02 0.  0.
         -6    2    1    2    0  502 -0.11765819525E+02  0.58556633865E+01  0.59735430378E+02  0.18191229449E+03  0.17132144624E+03 0.  0.
        -24    2    5    5    0    0 -0.44204124033E+02  0.17413425973E+02 -0.18603678011E+02  0.96209719395E+02  0.81565809534E+02 0.  0.
          5    1    3    3  501    0  0.51026723463E+02  0.37290154759E+02 -0.63681038900E+02  0.89842344497E+02  0.47000000000E+01 0. -1.
        -11    1    4    4    0    0 -0.56925556482E+02 -0.24210490043E+02 -0.11956401994E+03  0.13461880134E+03  0.00000000000E+00 0.  1.
         12    1    4    4    0    0  0.17664652544E+02 -0.18935328103E+02 -0.13425200687E+03  0.13672669069E+03  0.00000000000E+00 0. -1.
         -5    1    5    5    0  502  0.32438304509E+02 -0.11557762586E+02  0.78339108389E+02  0.85702575099E+02  0.47000000000E+01 0.  1.
         13    1    6    6    0    0  0.93221670989E+01  0.29921233377E+02  0.11686987071E+02  0.33447999537E+02  0.00000000000E+00 0. -1.
        -14    1    6    6    0    0 -0.53526291132E+02 -0.12507807404E+02 -0.30290665082E+02  0.62761719858E+02  0.00000000000E+00 0.  1.
</event>
<event>
12    1  0.8421768E-002  0.2396020E+03  0.7818608E-02  0.1120144E+00
         21   -1    0    0  501  502  0.00000000000E+00  0.00000000000E+00  0.94645440400E+03  0.94645440400E+03  0.00000000000E+00 0. -1.
         21   -1    0    0  502  503 -0.00000000000E+00 -0.00000000000E+00 -0.10526111648E+03  0.10526111648E+03  0.00000000000E+00 0.  1.
         -6    2    1    2    0  503 -0.60384550287E+02  0.15546491825E+03  0.77526741948E+02  0.25134329752E+03  0.17131089507E+03 0.  0.
        -24    2    3    3    0    0 -0.76041383760E+02  0.11986152677E+03 -0.20050738222E+01  0.16268588024E+03  0.79458150388E+02 0.  0.
          6    2    1    2  501    0  0.60384550287E+02 -0.15546491825E+03  0.76366654557E+03  0.80037222296E+03  0.17202752030E+03 0.  0.
         24    2    5    5    0    0  0.40241218365E+02 -0.12231982552E+03  0.73839571114E+03  0.75384206000E+03  0.80424684113E+02 0.  0.
          5    1    5    5  501    0  0.20143331922E+02 -0.33145092726E+02  0.25270834430E+02  0.46530162964E+02  0.47000000000E+01 0. -1.
        -11    1    6    6    0    0 -0.70816966481E+01 -0.98263257557E+02  0.46032445498E+03  0.47074878870E+03  0.00000000000E+00 0.  1.
         12    1    6    6    0    0  0.47322915013E+02 -0.24056567967E+02  0.27807125616E+03  0.28309327130E+03  0.00000000000E+00 0. -1.
         -5    1    3    3    0  503  0.15656833473E+02  0.35603391476E+02  0.79531815770E+02  0.88657417280E+02  0.47000000000E+01 0.  1.
         13    1    4    4    0    0 -0.15348833407E+02  0.51539867237E+01 -0.26080037959E+02  0.30697209092E+02  0.00000000000E+00 0. -1.
        -14    1    4    4    0    0 -0.60692550353E+02  0.11470754005E+03  0.24074964137E+02  0.13198867115E+03  0.00000000000E+00 0.  1.
</event>
<event>
12    1  0.8421768E-002  0.2391356E+03  0.7818608E-02  0.1120533E+00
         21   -1    0    0  503  502  0.00000000000E+00  0.00000000000E+00  0.18934625646E+04  0.18934625646E+04  0.00000000000E+00 0.  1.
         21   -1    0    0  501  503 -0.00000000000E+00 -0.00000000000E+00 -0.54527499038E+02  0.54527499038E+02  0.00000000000E+00 0. -1.
          6    2    1    2  501    0  0.56577416215E+02 -0.15499302578E+03  0.26624639061E+03  0.35722437014E+03  0.17175059837E+03 0.  0.
         24    2    3    3    0    0 -0.16775791079E+02 -0.14105545306E+03  0.17224451363E+03  0.23708531808E+03  0.79769715852E+02 0.  0.
         -6    2    1    2    0  502 -0.56577416215E+02  0.15499302578E+03  0.15726886749E+04  0.15907656935E+04  0.17309529528E+03 0.  0.
        -24    2    5    5    0    0  0.33304448661E+02  0.60808816993E+02  0.56633636114E+03  0.57601622476E+03  0.79062751694E+02 0.  0.
          5    1    3    3  501    0  0.73353207295E+02 -0.13937572718E+02  0.94001876982E+02  0.12013905206E+03  0.47000000000E+01 0. -1.
        -13    1    4    4    0    0 -0.21722480525E+02 -0.81836573035E+02  0.15256664770E+03  0.17448688443E+03  0.00000000000E+00 0.  1.
         14    1    4    4    0    0  0.49466894460E+01 -0.59218880023E+02  0.19677865930E+02  0.62598433649E+02  0.00000000000E+00 0. -1.
         -5    1    5    5    0  502 -0.89881864876E+02  0.94184208783E+02  0.10063523138E+04  0.10147494687E+04  0.47000000000E+01 0.  1.
         11    1    6    6    0    0  0.43343530344E+02  0.64173394348E+01  0.34954155645E+03  0.35227708349E+03  0.00000000000E+00 0. -1.
        -12    1    6    6    0    0 -0.10039081683E+02  0.54391477558E+02  0.21679480470E+03  0.22373914127E+03  0.00000000000E+00 0.  1.
</event>
<event>
12    1  0.8421768E-002  0.2074666E+03  0.7818608E-02  0.1144088E+00
         21   -1    0    0  503  502  0.00000000000E+00  0.00000000000E+00  0.32386254885E+03  0.32386254885E+03  0.00000000000E+00 0.  1.
         21   -1    0    0  501  503 -0.00000000000E+00 -0.00000000000E+00 -0.23264079764E+03  0.23264079764E+03  0.00000000000E+00 0.  1.
          6    2    1    2  501    0  0.10639883152E+03 -0.38325902304E+02 -0.13785888886E+03  0.24909326321E+03  0.17393330447E+03 0.  0.
         24    2    3    3    0    0  0.11991548495E+03 -0.59457136410E+02 -0.15358561668E+03  0.21911578929E+03  0.80674115207E+02 0.  0.
         -6    2    1    2    0  502 -0.10639883152E+03  0.38325902304E+02  0.22908064006E+03  0.30741008329E+03  0.17097787435E+03 0.  0.
        -24    2    5    5    0    0 -0.10352091362E+03  0.78039284760E+02  0.22310608304E+03  0.26687342717E+03  0.68105743629E+02 0.  0.
          5    1    3    3  501    0 -0.13516653431E+02  0.21131234106E+02  0.15726727821E+02  0.29977473922E+02  0.47000000000E+01 0. -1.
        -11    1    4    4    0    0  0.10496243325E+03 -0.68657633108E+02 -0.15728800305E+03  0.20117280850E+03  0.00000000000E+00 0.  1.
         12    1    4    4    0    0  0.14953051704E+02  0.92004966981E+01  0.37023863700E+01  0.17942980789E+02  0.00000000000E+00 0. -1.
         -5    1    5    5    0  502 -0.28779178973E+01 -0.39713382456E+02  0.59745570211E+01  0.40536656117E+02  0.47000000000E+01 0.  1.
         11    1    6    6    0    0  0.87541376395E+01  0.64346560477E+01  0.33189553996E+02  0.34922574629E+02  0.00000000000E+00 0. -1.
        -12    1    6    6    0    0 -0.11227505126E+03  0.71604628712E+02  0.18991652905E+03  0.23195085254E+03  0.00000000000E+00 0.  1.
</event>
<event>
12    1  0.8421768E-002  0.1932407E+03  0.7818608E-02  0.1161038E+00
         21   -1    0    0  501  502  0.00000000000E+00  0.00000000000E+00  0.12418177431E+04  0.12418177431E+04  0.00000000000E+00 0. -1.
         21   -1    0    0  502  503 -0.00000000000E+00 -0.00000000000E+00 -0.27513472593E+02  0.27513472593E+02  0.00000000000E+00 0. -1.
         -6    2    1    2    0  503 -0.13190597001E+02 -0.12565545101E+02  0.45274542617E+03  0.48363799767E+03  0.16910176551E+03 0.  0.
        -24    2    3    3    0    0 -0.35615503301E+02 -0.37847189426E+02  0.43513288423E+03  0.44524099784E+03  0.78727666025E+02 0.  0.
          6    2    1    2  501    0  0.13190597001E+02  0.12565545101E+02  0.76155884434E+03  0.78569321802E+03  0.19238002673E+03 0.  0.
         24    2    5    5    0    0  0.44085656447E+02  0.74288049600E+02  0.57009621723E+03  0.58211473233E+03  0.79909982309E+02 0.  0.
          5    1    5    5  501    0 -0.30895059446E+02 -0.61722504499E+02  0.19146262710E+03  0.20357848569E+03  0.47000000000E+01 0. -1.
        -11    1    6    6    0    0 -0.16548142378E+02  0.16945995891E+02  0.49535355920E+02  0.54906823611E+02  0.00000000000E+00 0.  1.
         12    1    6    6    0    0  0.60633798825E+02  0.57342053710E+02  0.52056086131E+03  0.52720790872E+03  0.00000000000E+00 0. -1.
         -5    1    3    3    0  503  0.22424906301E+02  0.25281644325E+02  0.17612541941E+02  0.38396999830E+02  0.47000000000E+01 0.  1.
         13    1    4    4    0    0 -0.21980292834E+02 -0.46571831883E+02  0.13220697908E+03  0.14188288874E+03  0.00000000000E+00 0. -1.
        -14    1    4    4    0    0 -0.13635210467E+02  0.87246424576E+01  0.30292590515E+03  0.30335810910E+03  0.00000000000E+00 0.  1.
</event>
<event>
12    1  0.8421768E-002  0.1758355E+03  0.7818608E-02  0.1172468E+00
         21   -1    0    0  503  502  0.00000000000E+00  0.00000000000E+00  0.18341758418E+03  0.18341758418E+03  0.00000000000E+00 0. -1.
         21   -1    0    0  501  503 -0.00000000000E+00 -0.00000000000E+00 -0.34902973560E+03  0.34902973560E+03  0.00000000000E+00 0. -1.
          6    2    1    2  501    0  0.24418497258E+02 -0.31603439402E+02 -0.27512817395E+03  0.32529548088E+03  0.16889818645E+03 0.  0.
         24    2    3    3    0    0 -0.15794643268E+02 -0.79530026321E+02 -0.17978562055E+03  0.21116245808E+03  0.75446792520E+02 0.  0.
         -6    2    1    2    0  502 -0.24418497258E+02  0.31603439402E+02  0.10951602253E+03  0.20715183890E+03  0.17123984577E+03 0.  0.
        -24    2    5    5    0    0 -0.46374750123E+02 -0.18158112607E+02  0.11445640239E+03  0.15233590645E+03  0.87324829466E+02 0.  0.
          5    1    3    3  501    0  0.40213140526E+02  0.47926586919E+02 -0.95342553399E+02  0.11413302280E+03  0.47000000000E+01 0. -1.
        -11    1    4    4    0    0 -0.75860223199E+01 -0.54915268735E+02 -0.38452538948E+02  0.67467267815E+02  0.00000000000E+00 0.  1.
         12    1    4    4    0    0 -0.82086209480E+01 -0.24614757585E+02 -0.14133308161E+03  0.14369519026E+03  0.00000000000E+00 0. -1.
         -5    1    5    5    0  502  0.21956252865E+02  0.49761552008E+02 -0.49403798615E+01  0.54815932459E+02  0.47000000000E+01 0.  1.
         13    1    6    6    0    0  0.23637530465E+02 -0.12073445399E+02  0.51709717882E+02  0.58123969701E+02  0.00000000000E+00 0. -1.
        -14    1    6    6    0    0 -0.70012280587E+02 -0.60846672074E+01  0.62746684512E+02  0.94211936746E+02  0.00000000000E+00 0.  1.
</event>
<event>
12    1  0.8421768E-002  0.1999005E+03  0.7818608E-02  0.1151633E+00
         21   -1    0    0  501  502  0.00000000000E+00  0.00000000000E+00  0.20960424266E+02  0.20960424266E+02  0.00000000000E+00 0. -1.
         21   -1    0    0  502  503 -0.00000000000E+00 -0.00000000000E+00 -0.18413511444E+04  0.18413511444E+04  0.00000000000E+00 0. -1.
         -6    2    1    2    0  503 -0.69177247532E+02 -0.49917922846E+02 -0.10106711623E+04  0.10302506472E+04  0.18078414530E+03 0.  0.
        -24    2    3    3    0    0 -0.11652868775E+03 -0.49239267850E+02 -0.83928136543E+03  0.85237661332E+03  0.78417090064E+02 0.  0.
          6    2    1    2  501    0  0.69177247532E+02  0.49917922846E+02 -0.80971955780E+03  0.83206092141E+03  0.17147105896E+03 0.  0.
         24    2    5    5    0    0 -0.27673003473E+01  0.63235338562E+02 -0.62834364226E+03  0.63642686439E+03  0.78848303394E+02 0.  0.
          5    1    5    5  501    0  0.71944547880E+02 -0.13317415716E+02 -0.18137591554E+03  0.19563405703E+03  0.47000000000E+01 0. -1.
        -11    1    6    6    0    0  0.73856022538E+01 -0.10590700013E+02 -0.27536513330E+03  0.27566767435E+03  0.00000000000E+00 0.  1.
         12    1    6    6    0    0 -0.10152902601E+02  0.73826038575E+02 -0.35297850897E+03  0.36075919004E+03  0.00000000000E+00 0. -1.
         -5    1    3    3    0  503  0.47351440219E+02 -0.67865499651E+00 -0.17138979686E+03  0.17787403388E+03  0.47000000000E+01 0.  1.
         13    1    4    4    0    0 -0.55297787564E+02  0.17255497666E+02 -0.36309335185E+03  0.36768516378E+03  0.00000000000E+00 0. -1.
        -14    1    4    4    0    0 -0.61230900187E+02 -0.66494765516E+02 -0.47618801358E+03  0.48469144954E+03  0.00000000000E+00 0.  1.
</event>
<event>
12    1  0.8421768E-002  0.1749445E+03  0.7818608E-02  0.1173114E+00
         21   -1    0    0  503  502  0.00000000000E+00  0.00000000000E+00  0.42041300966E+02  0.42041300966E+02  0.00000000000E+00 0. -1.
         21   -1    0    0  501  503 -0.00000000000E+00 -0.00000000000E+00 -0.11318284046E+04  0.11318284046E+04  0.00000000000E+00 0.  1.
          6    2    1    2  501    0 -0.31449401166E+02  0.10121610572E+02 -0.89910365564E+03  0.91596558380E+03  0.17179655204E+03 0.  0.
         24    2    3    3    0    0 -0.45198202440E+01 -0.59985139041E+02 -0.44857606683E+03  0.45919719945E+03  0.77607567701E+02 0.  0.
         -6    2    1    2    0  502  0.31449401166E+02 -0.10121610572E+02 -0.19068344802E+03  0.25790412179E+03  0.17047828851E+03 0.  0.
        -24    2    5    5    0    0 -0.23375543167E+02  0.69138674884E+01 -0.18170343297E+03  0.19960564236E+03  0.78943380517E+02 0.  0.
          5    1    3    3  501    0 -0.26929580922E+02  0.70106749613E+02 -0.45052758881E+03  0.45676838435E+03  0.47000000000E+01 0. -1.
        -13    1    4    4    0    0 -0.30045314271E+01 -0.75725799798E+02 -0.41756959540E+03  0.42439108257E+03  0.00000000000E+00 0.  1.
         14    1    4    4    0    0 -0.15152888169E+01  0.15740660757E+02 -0.31006471436E+02  0.34806116879E+02  0.00000000000E+00 0. -1.
         -5    1    5    5    0  502  0.54824944333E+02 -0.17035478061E+02 -0.89800150573E+01  0.58298479434E+02  0.47000000000E+01 0.  1.
         11    1    6    6    0    0  0.79547314091E+01  0.29575694121E+01  0.52662211760E+01  0.99878953785E+01  0.00000000000E+00 0. -1.
        -12    1    6    6    0    0 -0.31330274577E+02  0.39562980763E+01 -0.18696965414E+03  0.18961774698E+03  0.00000000000E+00 0.  1.
</event>
<event>
12    1  0.8421768E-002  0.1769866E+03  0.7818608E-02  0.1170858E+00
         21   -1    0    0  503  502  0.00000000000E+00  0.00000000000E+00  0.78664406356E+02  0.78664406356E+02  0.00000000000E+00 0. -1.
         21   -1    0    0  501  503 -0.00000000000E+00 -0.00000000000E+00 -0.42000812417E+03  0.42000812417E+03  0.00000000000E+00 0. -1.
          6    2    1    2  501    0  0.98182351696E+01 -0.40764587278E+02 -0.11241890789E+03  0.20930975616E+03  0.17150630850E+03 0.  0.
         24    2    3    3    0    0  0.56499365006E+02  0.18622203906E+02 -0.52692440958E+02  0.11289782898E+03  0.80190159807E+02 0.  0.
         -6    2    1    2    0  502 -0.98182351696E+01  0.40764587278E+02 -0.22892480993E+03  0.28936277437E+03  0.17194794931E+03 0.  0.
        -24    2    5    5    0    0 -0.11138702903E+02  0.51301912725E+02 -0.24876113697E+03  0.26637693670E+03  0.79489698631E+02 0.  0.
          5    1    3    3  501    0 -0.46681129836E+02 -0.59386791185E+02 -0.59726466932E+02  0.96411927178E+02  0.47000000000E+01 0. -1.
        -11    1    4    4    0    0  0.46773648756E+01 -0.10684687010E+02 -0.52069237905E+02  0.53359589716E+02  0.00000000000E+00 0.  1.
         12    1    4    4    0    0  0.51822000130E+02  0.29306890916E+02 -0.62320305357E+00  0.59538239264E+02  0.00000000000E+00 0. -1.
         -5    1    5    5    0  502  0.13204677333E+01 -0.10537325446E+02  0.19836327045E+02  0.22985837667E+02  0.47000000000E+01 0.  1.
         13    1    6    6    0    0  0.24824426436E+02  0.47007383757E+00 -0.30080235265E+02  0.39003764830E+02  0.00000000000E+00 0. -1.
        -14    1    6    6    0    0 -0.35963129339E+02  0.50831838887E+02 -0.21868090171E+03  0.22737317187E+03  0.00000000000E+00 0.  1.
</event>
<event>
12    1  0.8421768E-002  0.1836008E+03  0.7818608E-02  0.1165043E+00
         21   -1    0    0  501  502  0.00000000000E+00  0.00000000000E+00  0.18576819504E+03  0.18576819504E+03  0.00000000000E+00 0.  1.
         21   -1    0    0  502  503 -0.00000000000E+00 -0.00000000000E+00 -0.18403869612E+03  0.18403869612E+03  0.00000000000E+00 0.  1.
         -6    2    1    2    0  503 -0.25095863957E+01  0.54786005738E+02 -0.30789464256E+02  0.18616452765E+03  0.17521825189E+03 0.  0.
        -24    2    3    3    0    0  0.44998790452E+02  0.36186320238E+02  0.31896284016E+02  0.10520412246E+03  0.81952385777E+02 0.  0.
          6    2    1    2  501    0  0.25095863957E+01 -0.54786005738E+02  0.32518963174E+02  0.18364236352E+03  0.17221855377E+03 0.  0.
         24    2    5    5    0    0  0.65470744634E+02 -0.42805023048E+02  0.29498043920E+01  0.11290286575E+03  0.81361338166E+02 0.  0.
          5    1    5    5  501    0 -0.62961158238E+02 -0.11980982690E+02  0.29569158782E+02  0.70739497765E+02  0.47000000000E+01 0. -1.
        -13    1    6    6    0    0  0.50985629694E+02 -0.15566755210E+02 -0.35168567289E+02  0.63864594481E+02  0.00000000000E+00 0.  1.
         14    1    6    6    0    0  0.14485114940E+02 -0.27238267838E+02  0.38118371681E+02  0.49038271271E+02  0.00000000000E+00 0. -1.
         -5    1    3    3    0  503 -0.47508376848E+02  0.18599685500E+02 -0.62685748272E+02  0.80960405186E+02  0.47000000000E+01 0.  1.
         11    1    4    4    0    0  0.55781003373E+01 -0.20545975073E+02 -0.10921259288E+02  0.23927519710E+02  0.00000000000E+00 0. -1.
        -12    1    4    4    0    0  0.39420690115E+02  0.56732295310E+02  0.42817543304E+02  0.81276602752E+02  0.00000000000E+00 0.  1.
</event>
<event>
12    1  0.8421768E-002  0.2276569E+03  0.7818608E-02  0.1128395E+00
         21   -1    0    0  501  502  0.00000000000E+00  0.00000000000E+00  0.30198111029E+03  0.30198111029E+03  0.00000000000E+00 0.  1.
         21   -1    0    0  502  503 -0.00000000000E+00 -0.00000000000E+00 -0.18794435600E+03  0.18794435600E+03  0.00000000000E+00 0. -1.
         -6    2    1    2    0  503 -0.13023892593E+03  0.72720697986E+02 -0.16105338593E+02  0.22769539513E+03  0.17127560623E+03 0.  0.
        -24    2    3    3    0    0 -0.82967034158E+02  0.10900817608E+03  0.17101763642E+02  0.15931254306E+03  0.79509149469E+02 0.  0.
          6    2    1    2  501    0  0.13023892593E+03 -0.72720697986E+02  0.13014209288E+03  0.26223007116E+03  0.17198013879E+03 0.  0.
         24    2    5    5    0    0  0.24485448387E+02  0.17273242985E+02  0.68687780228E+02  0.11030433283E+03  0.80939067093E+02 0.  0.
          5    1    5    5  501    0  0.10575347754E+03 -0.89993940971E+02  0.61454312653E+02  0.15192573833E+03  0.47000000000E+01 0. -1.
        -11    1    6    6    0    0  0.16690096649E+02 -0.90038782152E+01  0.78830039961E+02  0.81079000668E+02  0.00000000000E+00 0.  1.
         12    1    6    6    0    0  0.77953517385E+01  0.26277121201E+02 -0.10142259733E+02  0.29225332159E+02  0.00000000000E+00 0. -1.
         -5    1    3    3    0  503 -0.47271891770E+02 -0.36287478090E+02 -0.33207102235E+02  0.68382852065E+02  0.47000000000E+01 0.  1.
         13    1    4    4    0    0 -0.76778923908E+02  0.46790056094E+02 -0.11335196673E+02  0.90624495526E+02  0.00000000000E+00 0. -1.
        -14    1    4    4    0    0 -0.61881102501E+01  0.62218119981E+02  0.28436960315E+02  0.68688047537E+02  0.00000000000E+00 0.  1.
</event>
<event>
12    1  0.8421768E-002  0.1786378E+03  0.7818608E-02  0.1169237E+00
         21   -1    0    0  503  502  0.00000000000E+00  0.00000000000E+00  0.13254320286E+03  0.13254320286E+03  0.00000000000E+00 0.  1.
         21   -1    0    0  501  503 -0.00000000000E+00 -0.00000000000E+00 -0.30724073465E+03  0.30724073465E+03  0.00000000000E+00 0.  1.
          6    2    1    2  501    0 -0.28063171719E+02 -0.34940853613E+02 -0.19000801928E+03  0.26049122367E+03  0.17246514245E+03 0.  0.
         24    2    3    3    0    0 -0.58561488716E+02  0.42938186746E+01 -0.16788113466E+03  0.20589089517E+03  0.10372608399E+03 0.  0.
         -6    2    1    2    0  502  0.28063171719E+02  0.34940853613E+02  0.15310487490E+02  0.17929271384E+03  0.17292501656E+03 0.  0.
        -24    2    5    5    0    0  0.25906633007E+02  0.69654025940E+02 -0.37611253060E+02  0.11579109484E+03  0.80437145184E+02 0.  0.
          5    1    3    3  501    0  0.30498316997E+02 -0.39234672288E+02 -0.22126884619E+02  0.54600328498E+02  0.47000000000E+01 0. -1.
        -11    1    4    4    0    0  0.13619740747E+02 -0.14596033855E+02 -0.10908434557E+03  0.11089605941E+03  0.00000000000E+00 0.  1.
         12    1    4    4    0    0 -0.72181229463E+02  0.18889852530E+02 -0.58796789090E+02  0.94994835769E+02  0.00000000000E+00 0. -1.
         -5    1    5    5    0  502  0.21565387126E+01 -0.34713172327E+02  0.52921740550E+02  0.63501618995E+02  0.47000000000E+01 0.  1.
         11    1    6    6    0    0  0.29897575739E+02  0.56960829948E+02  0.11112536437E+02  0.65283149813E+02  0.00000000000E+00 0. -1.
        -12    1    6    6    0    0 -0.39909427327E+01  0.12693195992E+02 -0.48723789497E+02  0.50507945032E+02  0.00000000000E+00 0.  1.
</event>
<event>
12    1  0.8421768E-002  0.1797660E+03  0.7818608E-02  0.1168166E+00
         21   -1    0    0  501  502  0.00000000000E+00  0.00000000000E+00  0.14693792949E+03  0.14693792949E+03  0.00000000000E+00 0.  1.
         21   -1    0    0  502  503 -0.00000000000E+00 -0.00000000000E+00 -0.22528132505E+03  0.22528132505E+03  0.00000000000E+00 0.  1.
         -6    2    1    2    0  503 -0.50381296521E+02 -0.12439711303E+01 -0.87577695211E+01  0.17997917423E+03  0.17255718509E+03 0.  0.
        -24    2    3    3    0    0 -0.80229672738E+02 -0.16972443798E+02  0.39627895750E+02  0.12080508345E+03  0.79363932804E+02 0.  0.
          6    2    1    2  501    0  0.50381296521E+02  0.12439711303E+01 -0.69585626030E+02  0.19224008031E+03  0.17197170298E+03 0.  0.
         24    2    5    5    0    0 -0.16332387831E+02 -0.49723890539E+02 -0.23345197843E+02  0.96278078447E+02  0.77364448841E+02 0.  0.
          5    1    5    5  501    0  0.66713684353E+02  0.50967861670E+02 -0.46240428187E+02  0.95962001866E+02  0.47000000000E+01 0. -1.
        -11    1    6    6    0    0 -0.11369585308E+02 -0.82192948602E+01  0.27249936912E+02  0.30649361164E+02  0.00000000000E+00 0.  1.
         12    1    6    6    0    0 -0.49628025239E+01 -0.41504595679E+02 -0.50595134754E+02  0.65628717283E+02  0.00000000000E+00 0. -1.
         -5    1    3    3    0  503  0.29848376217E+02  0.15728472668E+02 -0.48385665271E+02  0.59174090774E+02  0.47000000000E+01 0.  1.
         11    1    4    4    0    0 -0.60038036363E+02  0.15816770950E+02 -0.44861806927E+01  0.62248388500E+02  0.00000000000E+00 0. -1.
        -12    1    4    4    0    0 -0.20191636376E+02 -0.32789214749E+02  0.44114076443E+02  0.58556694952E+02  0.00000000000E+00 0.  1.
</event>
<event>
12    1  0.8421768E-002  0.2092487E+03  0.7818608E-02  0.1142376E+00
         21   -1    0    0  501  502  0.00000000000E+00  0.00000000000E+00  0.96880402226E+02  0.96880402226E+02  0.00000000000E+00 0.  1.
         21   -1    0    0  502  503 -0.00000000000E+00 -0.00000000000E+00 -0.15864254055E+04  0.15864254055E+04  0.00000000000E+00 0.  1.
         -6    2    1    2    0  503 -0.10459002513E+03 -0.55941953027E+02 -0.14577764170E+04  0.14727175891E+04  0.17238456995E+03 0.  0.
        -24    2    3    3    0    0 -0.12056236225E+03 -0.73391867655E+02 -0.89208187255E+03  0.90650912693E+03  0.77634273591E+02 0.  0.
          6    2    1    2  501    0  0.10459002513E+03  0.55941953027E+02 -0.31768586313E+02  0.21058821862E+03  0.17108354473E+03 0.  0.
         24    2    5    5    0    0  0.56312801594E+02 -0.18810827632E+02 -0.60827424447E+02  0.11685895636E+03  0.80193897887E+02 0.  0.
          5    1    5    5  501    0  0.48277223536E+02  0.74752780659E+02  0.29058838133E+02  0.93729262252E+02  0.47000000000E+01 0. -1.
        -11    1    6    6    0    0  0.28417771573E+02 -0.24224312786E+02  0.11563394540E+02  0.39090908974E+02  0.00000000000E+00 0.  1.
         12    1    6    6    0    0  0.27895030021E+02  0.54134851548E+01 -0.72390818987E+02  0.77768047391E+02  0.00000000000E+00 0. -1.
         -5    1    3    3    0  503  0.15972337117E+02  0.17449914628E+02 -0.56569454441E+03  0.56620846218E+03  0.47000000000E+01 0.  1.
         13    1    4    4    0    0  0.73357862421E+01  0.65997457210E+01 -0.41781692137E+02  0.42931109946E+02  0.00000000000E+00 0. -1.
        -14    1    4    4    0    0 -0.12789814849E+03 -0.79991613376E+02 -0.85030018042E+03  0.86357801698E+03  0.00000000000E+00 0.  1.
</event>
<event>
12    1  0.8421768E-002  0.2008684E+03  0.7818608E-02  0.1149267E+00
         21   -1    0    0  501  502  0.00000000000E+00  0.00000000000E+00  0.33417907227E+03  0.33417907227E+03  0.00000000000E+00 0.  1.
         21   -1    0    0  502  503 -0.00000000000E+00 -0.00000000000E+00 -0.12025635983E+03  0.12025635983E+03  0.00000000000E+00 0.  1.
         -6    2    1    2    0  503  0.93164528332E+01  0.10216136635E+03  0.96152572174E+02  0.22158803790E+03  0.17126646005E+03 0.  0.
        -24    2    3    3    0    0  0.38273331560E+02  0.10609091060E+02  0.11962796710E+02  0.93797865240E+02  0.84128058914E+02 0.  0.
          6    2    1    2  501    0 -0.93164528332E+01 -0.10216136635E+03  0.11777014027E+03  0.23284739420E+03  0.17269731318E+03 0.  0.
         24    2    5    5    0    0  0.55829656341E+01 -0.13764961243E+03  0.78541566846E+02  0.17768962727E+03  0.80163836041E+02 0.  0.
          5    1    5    5  501    0 -0.14899418467E+02  0.35488246078E+02  0.39228573426E+02  0.55157766937E+02  0.47000000000E+01 0. -1.
        -13    1    6    6    0    0  0.14031073517E+02 -0.91263792646E+02  0.90241983802E+02  0.12911067544E+03  0.00000000000E+00 0.  1.
         14    1    6    6    0    0 -0.84481078826E+01 -0.46385819780E+02 -0.11700416956E+02  0.48578951825E+02  0.00000000000E+00 0. -1.
         -5    1    3    3    0  503 -0.28956878727E+02  0.91552275288E+02  0.84189775464E+02  0.12779017266E+03  0.47000000000E+01 0.  1.
         13    1    4    4    0    0  0.16615414269E+02  0.23193685639E+02  0.44423353714E+02  0.52796338889E+02  0.00000000000E+00 0. -1.
        -14    1    4    4    0    0  0.21657917292E+02 -0.12584594580E+02 -0.32460557004E+02  0.41001526351E+02  0.00000000000E+00 0.  1.
</event>
<event>
12    1  0.8421768E-002  0.1736419E+03  0.7818608E-02  0.1174461E+00
         21   -1    0    0  501  502  0.00000000000E+00  0.00000000000E+00  0.35205964838E+03  0.35205964838E+03  0.00000000000E+00 0. -1.
         21   -1    0    0  502  503 -0.00000000000E+00 -0.00000000000E+00 -0.16856275435E+03  0.16856275435E+03  0.00000000000E+00 0. -1.
         -6    2    1    2    0  503  0.15918885478E+02 -0.14209365338E+02 -0.91399518842E+02  0.19622791261E+03  0.17232586765E+03 0.  0.
        -24    2    3    3    0    0  0.76773112977E+02  0.91807915813E+01 -0.38832746373E+02  0.11234888058E+03  0.71665130763E+02 0.  0.
          6    2    1    2  501    0 -0.15918885478E+02  0.14209365338E+02  0.27489641287E+03  0.32439449012E+03  0.17090474082E+03 0.  0.
         24    2    5    5    0    0 -0.45834949105E+02  0.66264693198E+02  0.17967743685E+03  0.21172918306E+03  0.77803685783E+02 0.  0.
          5    1    5    5  501    0  0.29916063627E+02 -0.52055327860E+02  0.95218976023E+02  0.11266530707E+03  0.47000000000E+01 0. -1.
        -11    1    6    6    0    0 -0.35526182945E+02  0.31175456053E+02  0.16613902941E+03  0.17273157160E+03  0.00000000000E+00 0.  1.
         12    1    6    6    0    0 -0.10308766160E+02  0.35089237144E+02  0.13538407437E+02  0.38997611453E+02  0.00000000000E+00 0. -1.
         -5    1    3    3    0  503 -0.60854227498E+02 -0.23390156919E+02 -0.52566772470E+02  0.83879032022E+02  0.47000000000E+01 0.  1.
         13    1    4    4    0    0  0.92914304099E+01  0.10742042543E+02 -0.42439322230E+02  0.44752857209E+02  0.00000000000E+00 0. -1.
        -14    1    4    4    0    0  0.67481682567E+02 -0.15612509615E+01  0.36065758573E+01  0.67596023374E+02  0.00000000000E+00 0.  1.
</event>
<event>
12    1  0.8421768E-002  0.1723816E+03  0.7818608E-02  0.1175503E+00
         21   -1    0    0  501  502  0.00000000000E+00  0.00000000000E+00  0.57266401039E+02  0.57266401039E+02  0.00000000000E+00 0.  1.
         21   -1    0    0  502  503 -0.00000000000E+00 -0.00000000000E+00 -0.22696487124E+04  0.22696487124E+04  0.00000000000E+00 0.  1.
         -6    2    1    2    0  503  0.73159089177E+01 -0.96537960132E+01 -0.21287601706E+04  0.21357282792E+04  0.17195551827E+03 0.  0.
        -24    2    3    3    0    0  0.12152259485E+02 -0.61910115455E+02 -0.88413300318E+03  0.88998633596E+03  0.80024815444E+02 0.  0.
          6    2    1    2  501    0 -0.73159089177E+01  0.96537960132E+01 -0.83622140744E+02  0.19118683424E+03  0.17150225906E+03 0.  0.
         24    2    5    5    0    0 -0.37889916385E+02  0.47642327523E+02 -0.97299890987E+02  0.14032359299E+03  0.80734161467E+02 0.  0.
          5    1    5    5  501    0  0.30574007467E+02 -0.37988531510E+02  0.13677750243E+02  0.50863241251E+02  0.47000000000E+01 0. -1.
        -13    1    6    6    0    0 -0.16803941463E+02 -0.15309816217E+02 -0.60025274078E+02  0.64185640524E+02  0.00000000000E+00 0.  1.
         14    1    6    6    0    0 -0.21085974923E+02  0.62952143740E+02 -0.37274616909E+02  0.76137952465E+02  0.00000000000E+00 0. -1.
         -5    1    3    3    0  503 -0.48363505676E+01  0.52256319442E+02 -0.12446271674E+04  0.12457419432E+04  0.47000000000E+01 0.  1.
         13    1    4    4    0    0 -0.93393543745E+00  0.19090856540E+02 -0.12893545243E+03  0.13034448179E+03  0.00000000000E+00 0. -1.
        -14    1    4    4    0    0  0.13086194923E+02 -0.81000971996E+02 -0.75519755074E+03  0.75964185417E+03  0.00000000000E+00 0.  1.
</event>
<event>
12    1  0.8421768E-002  0.2905050E+03  0.7818608E-02  0.1090169E+00
         21   -1    0    0  501  502  0.00000000000E+00  0.00000000000E+00  0.92527340103E+02  0.92527340103E+02  0.00000000000E+00 0.  1.
         21   -1    0    0  502  503 -0.00000000000E+00 -0.00000000000E+00 -0.10049743525E+04  0.10049743525E+04  0.00000000000E+00 0.  1.
         -6    2    1    2    0  503 -0.53442116930E+02  0.22731194530E+03 -0.62438538260E+03  0.68838963002E+03  0.17174514949E+03 0.  0.
        -24    2    3    3    0    0 -0.33947358664E+02  0.23379465615E+03 -0.61791454225E+03  0.66634347583E+03  0.79892939900E+02 0.  0.
          6    2    1    2  501    0  0.53442116930E+02 -0.22731194530E+03 -0.28806162983E+03  0.40911206262E+03  0.17281897136E+03 0.  0.
         24    2    5    5    0    0  0.38975576543E+02 -0.18352684500E+03 -0.29834439137E+03  0.36163321486E+03  0.81043246665E+02 0.  0.
          5    1    5    5  501    0  0.14466540387E+02 -0.43785100299E+02  0.10282761541E+02  0.47478847752E+02  0.47000000000E+01 0. -1.
        -13    1    6    6    0    0  0.16234307433E+02 -0.17422672331E+03 -0.28280677156E+03  0.33256303748E+03  0.00000000000E+00 0.  1.
         14    1    6    6    0    0  0.22741269110E+02 -0.93001216841E+01 -0.15537619806E+02  0.29070177387E+02  0.00000000000E+00 0. -1.
         -5    1    3    3    0  503 -0.19494758266E+02 -0.64827108481E+01 -0.64708403464E+01  0.22046154190E+02  0.47000000000E+01 0.  1.
         13    1    4    4    0    0 -0.18090366774E+02  0.49034666368E+02 -0.66488683074E+02  0.84571891624E+02  0.00000000000E+00 0. -1.
        -14    1    4    4    0    0 -0.15856991890E+02  0.18475998978E+03 -0.55142585918E+03  0.58177158420E+03  0.00000000000E+00 0.  1.
</event>
<event>
12    1  0.8421768E-002  0.1928297E+03  0.7818608E-02  0.1156093E+00
         21   -1    0    0  501  502  0.00000000000E+00  0.00000000000E+00  0.41212086951E+03  0.41212086951E+03  0.00000000000E+00 0. -1.
         21   -1    0    0  502  503 -0.00000000000E+00 -0.00000000000E+00 -0.10018400237E+03  0.10018400237E+03  0.00000000000E+00 0. -1.
         -6    2    1    2    0  503  0.51344141636E+02  0.70538062445E+02  0.73589700780E+02  0.20572261485E+03  0.17115639359E+03 0.  0.
        -24    2    3    3    0    0  0.75601233738E+02  0.26749506794E+02 -0.45010758328E+01  0.11284579581E+03  0.79264312856E+02 0.  0.
          6    2    1    2  501    0 -0.51344141636E+02 -0.70538062445E+02  0.23834716636E+03  0.30658225702E+03  0.17196357020E+03 0.  0.
         24    2    5    5    0    0  0.24962645759E+02 -0.28217902434E+02  0.54225568040E+02  0.10277701981E+03  0.78761157123E+02 0.  0.
          5    1    5    5  501    0 -0.76306787395E+02 -0.42320160011E+02  0.18412159832E+03  0.20380523721E+03  0.47000000000E+01 0. -1.
        -13    1    6    6    0    0  0.37987011798E+02 -0.32006415650E+02  0.29753555181E+01  0.49762198992E+02  0.00000000000E+00 0.  1.
         14    1    6    6    0    0 -0.13024366038E+02  0.37885132164E+01  0.51250212522E+02  0.53014820820E+02  0.00000000000E+00 0. -1.
         -5    1    3    3    0  503 -0.24257092102E+02  0.43788555651E+02  0.78090776613E+02  0.92876819041E+02  0.47000000000E+01 0.  1.
         11    1    4    4    0    0  0.41427073991E+02  0.42278905531E+02  0.25833401789E+02  0.64583844422E+02  0.00000000000E+00 0. -1.
        -12    1    4    4    0    0  0.34174159747E+02 -0.15529398736E+02 -0.30334477621E+02  0.48261951391E+02  0.00000000000E+00 0.  1.
</event>
<event>
12    1  0.8421768E-002  0.1872324E+03  0.7818608E-02  0.1161167E+00
         21   -1    0    0  503  502  0.00000000000E+00  0.00000000000E+00  0.95652564152E+02  0.95652564152E+02  0.00000000000E+00 0. -1.
         21   -1    0    0  501  503 -0.00000000000E+00 -0.00000000000E+00 -0.36497283102E+03  0.36497283102E+03  0.00000000000E+00 0. -1.
          6    2    1    2  501    0  0.21238197527E+02  0.69532632590E+02 -0.13722443365E+03  0.23148510284E+03  0.17166525454E+03 0.  0.
         24    2    3    3    0    0  0.78938233955E+02  0.34862553058E+02 -0.87156805499E+02  0.14746030884E+03  0.81863249095E+02 0.  0.
         -6    2    1    2    0  502 -0.21238197527E+02 -0.69532632590E+02 -0.13209583322E+03  0.22914029233E+03  0.17254018774E+03 0.  0.
        -24    2    5    5    0    0 -0.41605193784E+02  0.59263679414E+01 -0.11995952751E+03  0.14990485068E+03  0.79467364559E+02 0.  0.
          5    1    3    3  501    0 -0.57700036428E+02  0.34670079532E+02 -0.50067628148E+02  0.84024794001E+02  0.47000000000E+01 0. -1.
        -11    1    4    4    0    0  0.67228970020E+02  0.41130749857E+02 -0.23225283658E+02  0.82163780309E+02  0.00000000000E+00 0.  1.
         12    1    4    4    0    0  0.11709263936E+02 -0.62681967998E+01 -0.63931521841E+02  0.65296528529E+02  0.00000000000E+00 0. -1.
         -5    1    5    5    0  502  0.20366996257E+02 -0.75459000531E+02 -0.12136305712E+02  0.79235441654E+02  0.47000000000E+01 0.  1.
         13    1    6    6    0    0 -0.44245868791E+01 -0.94005730720E+01  0.96619667418E+01  0.14188070498E+02  0.00000000000E+00 0. -1.
        -14    1    6    6    0    0 -0.37180606905E+02  0.15326941013E+02 -0.12962149425E+03  0.13571678018E+03  0.00000000000E+00 0.  1.
</event>
<event>
12    1  0.8421768E-002  0.1842094E+03  0.7818608E-02  0.1163966E+00
         21   -1    0    0  501  502  0.00000000000E+00  0.00000000000E+00  0.22669392380E+03  0.22669392380E+03  0.00000000000E+00 0. -1.
         21   -1    0    0  502  503 -0.00000000000E+00 -0.00000000000E+00 -0.49880311826E+03  0.49880311826E+03  0.00000000000E+00 0. -1.
         -6    2    1    2    0  503 -0.66131872482E+02  0.57898457256E+01 -0.43987755690E+03  0.47689136414E+03  0.17183178186E+03 0.  0.
        -24    2    3    3    0    0 -0.12907903853E+02  0.39282940261E+02 -0.11560868959E+03  0.14654765446E+03  0.80006765600E+02 0.  0.
          6    2    1    2  501    0  0.66131872482E+02 -0.57898457256E+01  0.16776836244E+03  0.24860567791E+03  0.17103102872E+03 0.  0.
         24    2    5    5    0    0 -0.69963960973E+01 -0.49900292802E+02  0.11593673583E+03  0.14859526484E+03  0.78104015503E+02 0.  0.
          5    1    5    5  501    0  0.73128268579E+02  0.44110447077E+02  0.51831626610E+02  0.10001041308E+03  0.47000000000E+01 0. -1.
        -11    1    6    6    0    0 -0.13670704468E+02  0.18960009476E+02  0.23603912904E+02  0.33219193614E+02  0.00000000000E+00 0.  1.
         12    1    6    6    0    0  0.66743083708E+01 -0.68860302278E+02  0.92332822923E+02  0.11537607122E+03  0.00000000000E+00 0. -1.
         -5    1    3    3    0  503 -0.53223968629E+02 -0.33493094536E+02 -0.32426886731E+03  0.33034370968E+03  0.47000000000E+01 0.  1.
         11    1    4    4    0    0 -0.14883448100E+02  0.62342330132E+02 -0.99473365696E+02  0.11833441442E+03  0.00000000000E+00 0. -1.
        -12    1    4    4    0    0  0.19755442471E+01 -0.23059389871E+02 -0.16135323894E+02  0.28213240038E+02  0.00000000000E+00 0.  1.
</event>
<event>
12    1  0.8421768E-002  0.1900340E+03  0.7818608E-02  0.1158684E+00
         21   -1    0    0  503  502  0.00000000000E+00  0.00000000000E+00  0.41167355860E+03  0.41167355860E+03  0.00000000000E+00 0.  1.
         21   -1    0    0  501  503 -0.00000000000E+00 -0.00000000000E+00 -0.11292572013E+03  0.11292572013E+03  0.00000000000E+00 0.  1.
          6    2    1    2  501    0 -0.73260622909E+02  0.28397712554E+02  0.24534215149E+02  0.19161121608E+03  0.17303000163E+03 0.  0.
         24    2    3    3    0    0  0.98515418948E+01  0.25971835909E+02  0.53928736192E+02  0.10329561902E+03  0.83606741256E+02 0.  0.
         -6    2    1    2    0  502  0.73260622909E+02 -0.28397712554E+02  0.27421362332E+03  0.33298806265E+03  0.17179752531E+03 0.  0.
        -24    2    5    5    0    0  0.56207989119E+02 -0.50224423627E+02  0.80451163797E+02  0.13719945635E+03  0.81666824945E+02 0.  0.
          5    1    3    3  501    0 -0.83112164804E+02  0.24258766452E+01 -0.29394521043E+02  0.88315597055E+02  0.47000000000E+01 0. -1.
        -11    1    4    4    0    0 -0.30622779925E+02  0.29832916345E+02  0.10949157427E+02  0.44132092589E+02  0.00000000000E+00 0.  1.
         12    1    4    4    0    0  0.40474321820E+02 -0.38610804357E+01  0.42979578765E+02  0.59163526431E+02  0.00000000000E+00 0. -1.
         -5    1    5    5    0  502  0.17052633790E+02  0.21826711073E+02  0.19376245953E+03  0.19578860630E+03  0.47000000000E+01 0.  1.
         13    1    6    6    0    0 -0.61898151451E+01  0.16716397508E+02  0.23186691509E+02  0.29246784786E+02  0.00000000000E+00 0. -1.
        -14    1    6    6    0    0  0.62397804264E+02 -0.66940821135E+02  0.57264472289E+02  0.10795267156E+03  0.00000000000E+00 0.  1.
</event>
<event>
12    1  0.8421768E-002  0.2418554E+03  0.7818608E-02  0.1118604E+00
         21   -1    0    0  501  502  0.00000000000E+00  0.00000000000E+00  0.33369227480E+03  0.33369227480E+03  0.00000000000E+00 0.  1.
         21   -1    0    0  502  503 -0.00000000000E+00 -0.00000000000E+00 -0.38621355841E+03  0.38621355841E+03  0.00000000000E+00 0. -1.
         -6    2    1    2    0  503 -0.16222822142E+03 -0.49910413249E+02 -0.29237482365E+03  0.37928322886E+03  0.17194093467E+03 0.  0.
        -24    2    3    3    0    0 -0.12839362694E+03  0.19326609619E+02 -0.24841622451E+03  0.29044070775E+03  0.76070643741E+02 0.  0.
          6    2    1    2  501    0  0.16222822142E+03  0.49910413249E+02  0.23985354004E+03  0.34062260435E+03  0.17229333345E+03 0.  0.
         24    2    5    5    0    0  0.28164455890E+02  0.15602184335E+02  0.15645257616E+03  0.17898115368E+03  0.80747631881E+02 0.  0.
          5    1    5    5  501    0  0.13406376553E+03  0.34308228914E+02  0.83400963886E+02  0.16164145067E+03  0.47000000000E+01 0. -1.
        -13    1    6    6    0    0 -0.50667438550E+01  0.23153091548E+02  0.56353655746E+01  0.24361750485E+02  0.00000000000E+00 0.  1.
         14    1    6    6    0    0  0.33231199745E+02 -0.75509072127E+01  0.15081721058E+03  0.15461940319E+03  0.00000000000E+00 0. -1.
         -5    1    3    3    0  503 -0.33834594484E+02 -0.69237022868E+02 -0.43958599135E+02  0.88842521111E+02  0.47000000000E+01 0.  1.
         11    1    4    4    0    0 -0.64946300143E+02 -0.21551619288E+02 -0.16106777140E+03  0.17500091766E+03  0.00000000000E+00 0. -1.
        -12    1    4    4    0    0 -0.63447326793E+02  0.40878228906E+02 -0.87348453111E+02  0.11543979009E+03  0.00000000000E+00 0.  1.
</event>
<event>
12    1  0.8421768E-002  0.2006570E+03  0.7818608E-02  0.1149390E+00
         21   -1    0    0  501  502  0.00000000000E+00  0.00000000000E+00  0.73709388677E+03  0.73709388677E+03  0.00000000000E+00 0.  1.
         21   -1    0    0  502  503 -0.00000000000E+00 -0.00000000000E+00 -0.56445868003E+02  0.56445868003E+02  0.00000000000E+00 0. -1.
         -6    2    1    2    0  503 -0.10257254737E+03 -0.82782997335E+00  0.41578243174E+03  0.46124919850E+03  0.17133003180E+03 0.  0.
        -24    2    3    3    0    0 -0.12827136494E+03 -0.14326247152E+02  0.24968119816E+03  0.29256503716E+03  0.81208471437E+02 0.  0.
          6    2    1    2  501    0  0.10257254737E+03  0.82782997335E+00  0.26486558702E+03  0.33229055627E+03  0.17245701441E+03 0.  0.
         24    2    5    5    0    0  0.19820501799E+02  0.53303623460E+02  0.91528291618E+02  0.13311847508E+03  0.78159910918E+02 0.  0.
          5    1    5    5  501    0  0.82752045569E+02 -0.52475793486E+02  0.17333729541E+03  0.19917208119E+03  0.47000000000E+01 0. -1.
        -13    1    6    6    0    0  0.29778076490E+01  0.49018026162E+02  0.10173225398E+03  0.11296497567E+03  0.00000000000E+00 0.  1.
         14    1    6    6    0    0  0.16842694150E+02  0.42855972981E+01 -0.10203962366E+02  0.20153499408E+02  0.00000000000E+00 0. -1.
         -5    1    3    3    0  503  0.25698817568E+02  0.13498417179E+02  0.16610123358E+03  0.16868416134E+03  0.47000000000E+01 0.  1.
         11    1    4    4    0    0  0.67584202406E+01 -0.16009799088E+02  0.25677376701E+02  0.31005121919E+02  0.00000000000E+00 0. -1.
        -12    1    4    4    0    0 -0.13502978518E+03  0.16835519352E+01  0.22400382146E+03  0.26155991524E+03  0.00000000000E+00 0.  1.
</event>
<event>
12    1  0.8421768E-002  0.1932858E+03  0.7818608E-02  0.1155813E+00
         21   -1    0    0  501  502  0.00000000000E+00  0.00000000000E+00  0.34077703728E+03  0.34077703728E+03  0.00000000000E+00 0.  1.
         21   -1    0    0  502  503 -0.00000000000E+00 -0.00000000000E+00 -0.44808992894E+03  0.44808992894E+03  0.00000000000E+00 0. -1.
         -6    2    1    2    0  503  0.84122339439E+02 -0.15916322183E+02 -0.39686763861E+03  0.44143324281E+03  0.17329018431E+03 0.  0.
        -24    2    3    3    0    0 -0.54541227161E+01 -0.43714856371E+02 -0.25954320732E+03  0.27506981382E+03  0.79749544757E+02 0.  0.
          6    2    1    2  501    0 -0.84122339439E+02  0.15916322183E+02  0.28955474695E+03  0.34743372341E+03  0.17186722602E+03 0.  0.
         24    2    5    5    0    0  0.16350532669E+02  0.38881048571E+02  0.15806972910E+03  0.18030330545E+03  0.75790281990E+02 0.  0.
          5    1    5    5  501    0 -0.10047287211E+03 -0.22964726388E+02  0.13148501786E+03  0.16713041796E+03  0.47000000000E+01 0. -1.
        -11    1    6    6    0    0 -0.10236967423E+02 -0.17918426324E+02  0.64001190286E+02  0.67245950525E+02  0.00000000000E+00 0.  1.
         12    1    6    6    0    0  0.26587500092E+02  0.56799474894E+02  0.94068538811E+02  0.11305735493E+03  0.00000000000E+00 0. -1.
         -5    1    3    3    0  503  0.89576462155E+02  0.27798534188E+02 -0.13732443129E+03  0.16636342899E+03  0.47000000000E+01 0.  1.
         11    1    4    4    0    0 -0.90269623355E+01 -0.22954757631E+02 -0.25120694795E+03  0.25241501074E+03  0.00000000000E+00 0. -1.
        -12    1    4    4    0    0  0.35728396194E+01 -0.20760098740E+02 -0.83362593709E+01  0.22654803088E+02  0.00000000000E+00 0.  1.
</event>
<event>
12    1  0.8421768E-002  0.2194565E+03  0.7818608E-02  0.1134490E+00
         21   -1    0    0  503  502  0.00000000000E+00  0.00000000000E+00  0.13772546669E+03  0.13772546669E+03  0.00000000000E+00 0. -1.
         21   -1    0    0  501  503 -0.00000000000E+00 -0.00000000000E+00 -0.35019058019E+03  0.35019058019E+03  0.00000000000E+00 0.  1.
          6    2    1    2  501    0  0.12216681042E+03  0.60113116944E+02 -0.12587361215E+03  0.25299271194E+03  0.17211283991E+03 0.  0.
         24    2    3    3    0    0  0.41150604747E+00  0.22221730131E+02 -0.18052224364E+02  0.85936873963E+02  0.81026470211E+02 0.  0.
         -6    2    1    2    0  502 -0.12216681042E+03 -0.60113116944E+02 -0.86591501346E+02  0.23492333493E+03  0.17074123343E+03 0.  0.
        -24    2    5    5    0    0 -0.10605158905E+03 -0.30363762134E+02  0.59989414000E+01  0.13623288677E+03  0.79715209012E+02 0.  0.
          5    1    3    3  501    0  0.12175530437E+03  0.37891386814E+02 -0.10782138779E+03  0.16705583798E+03  0.47000000000E+01 0. -1.
        -13    1    4    4    0    0 -0.25973603247E+02 -0.97158053417E+01  0.16258945017E+02  0.32146200898E+02  0.00000000000E+00 0.  1.
         14    1    4    4    0    0  0.26385109294E+02  0.31937535472E+02 -0.34311169381E+02  0.53790673065E+02  0.00000000000E+00 0. -1.
         -5    1    5    5    0  502 -0.16115221365E+02 -0.29749354810E+02 -0.92590442746E+02  0.98690448166E+02  0.47000000000E+01 0.  1.
         11    1    6    6    0    0 -0.42661931102E+02  0.26273631823E+02 -0.56958845818E+01  0.50426056713E+02  0.00000000000E+00 0. -1.
        -12    1    6    6    0    0 -0.63389657949E+02 -0.56637393957E+02  0.11694825982E+02  0.85806830054E+02  0.00000000000E+00 0.  1.
</event>
<event>
12    1  0.8421768E-002  0.2008992E+03  0.7818608E-02  0.1149003E+00
         21   -1    0    0  503  502  0.00000000000E+00  0.00000000000E+00  0.81860248792E+03  0.81860248792E+03  0.00000000000E+00 0.  1.
         21   -1    0    0  501  503 -0.00000000000E+00 -0.00000000000E+00 -0.50524927605E+02  0.50524927605E+02  0.00000000000E+00 0.  1.
          6    2    1    2  501    0 -0.10281784883E+03 -0.61358839405E+01  0.45232045588E+03  0.49492856188E+03  0.17248573114E+03 0.  0.
         24    2    3    3    0    0 -0.50088824628E+02 -0.70035560422E+02  0.24217083931E+03  0.26898947719E+03  0.79339481653E+02 0.  0.
         -6    2    1    2    0  502  0.10281784883E+03  0.61358839405E+01  0.31575710444E+03  0.37419885365E+03  0.17237480662E+03 0.  0.
        -24    2    5    5    0    0  0.11989262418E+03  0.44877923433E+02  0.28573614676E+03  0.32208511767E+03  0.75534151992E+02 0.  0.
          5    1    3    3  501    0 -0.52729024201E+02  0.63899676482E+02  0.21014961656E+03  0.22593908469E+03  0.47000000000E+01 0. -1.
        -11    1    4    4    0    0 -0.54303429313E+02 -0.71404060559E+02  0.13719600081E+03  0.16392115464E+03  0.00000000000E+00 0.  1.
         12    1    4    4    0    0  0.42146046845E+01  0.13685001364E+01  0.10497483850E+03  0.10506832255E+03  0.00000000000E+00 0. -1.
         -5    1    5    5    0  502 -0.17074775351E+02 -0.38742039492E+02  0.30020957681E+02  0.52113735976E+02  0.47000000000E+01 0.  1.
         11    1    6    6    0    0  0.79082621002E+02 -0.10060155255E+02  0.14075227625E+03  0.16176053579E+03  0.00000000000E+00 0. -1.
        -12    1    6    6    0    0  0.40810003178E+02  0.54938078688E+02  0.14498387051E+03  0.16032458189E+03  0.00000000000E+00 0.  1.
</event>
<event>
12    1  0.8421768E-002  0.1844934E+03  0.7818608E-02  0.1163745E+00
         21   -1    0    0  503  502  0.00000000000E+00  0.00000000000E+00  0.21576703056E+03  0.21576703056E+03  0.00000000000E+00 0.  1.
         21   -1    0    0  501  503 -0.00000000000E+00 -0.00000000000E+00 -0.24749463988E+03  0.24749463988E+03  0.00000000000E+00 0.  1.
          6    2    1    2  501    0 -0.45073363773E+02 -0.47360384360E+02 -0.15593979339E+03  0.24085103686E+03  0.17151498088E+03 0.  0.
         24    2    3    3    0    0 -0.99990774336E+01 -0.93527909638E+02 -0.10714578082E+03  0.16492612912E+03  0.82903306861E+02 0.  0.
         -6    2    1    2    0  502  0.45073363773E+02  0.47360384360E+02  0.12421218408E+03  0.22241063358E+03  0.17252017020E+03 0.  0.
        -24    2    5    5    0    0  0.66741402305E+02 -0.26714237086E+02  0.77744533182E+02  0.13220040125E+03  0.79149658287E+02 0.  0.
          5    1    3    3  501    0 -0.35074286339E+02  0.46167525279E+02 -0.48794012569E+02  0.75924907739E+02  0.47000000000E+01 0. -1.
        -13    1    4    4    0    0  0.77405096526E+01 -0.56536897750E+02 -0.10987603064E+03  0.12381065546E+03  0.00000000000E+00 0.  1.
         14    1    4    4    0    0 -0.17739587086E+02 -0.36991011889E+02  0.27302498136E+01  0.41115473664E+02  0.00000000000E+00 0. -1.
         -5    1    5    5    0  502 -0.21668038532E+02  0.74074621446E+02  0.46467650894E+02  0.90210232323E+02  0.47000000000E+01 0.  1.
         13    1    6    6    0    0 -0.11572106556E+02 -0.11852071651E+02  0.41406845948E+02  0.44597221258E+02  0.00000000000E+00 0. -1.
        -14    1    6    6    0    0  0.78313508862E+02 -0.14862165435E+02  0.36337687234E+02  0.87603179995E+02  0.00000000000E+00 0.  1.
</event>
<event>
12    1  0.8421768E-002  0.1744871E+03  0.7818608E-02  0.1173811E+00
         21   -1    0    0  501  502  0.00000000000E+00  0.00000000000E+00  0.18390513412E+03  0.18390513412E+03  0.00000000000E+00 0.  1.
         21   -1    0    0  502  503 -0.00000000000E+00 -0.00000000000E+00 -0.19693458267E+03  0.19693458267E+03  0.00000000000E+00 0.  1.
         -6    2    1    2    0  503  0.20010281786E+02  0.21631590937E+02 -0.84995736079E+02  0.19209409980E+03  0.16972781422E+03 0.  0.
        -24    2    3    3    0    0  0.50456794388E+02 -0.40515260400E+02 -0.50889070649E+02  0.11479871903E+03  0.80010461532E+02 0.  0.
          6    2    1    2  501    0 -0.20010281786E+02 -0.21631590937E+02  0.71966287531E+02  0.18874561699E+03  0.17198088349E+03 0.  0.
         24    2    5    5    0    0 -0.11992328143E+02 -0.48160279377E+02 -0.91748191494E+01  0.10287345570E+03  0.89641185497E+02 0.  0.
          5    1    5    5  501    0 -0.80179536428E+01  0.26528688440E+02  0.81141106680E+02  0.85872161288E+02  0.47000000000E+01 0. -1.
        -11    1    6    6    0    0  0.12235847383E+02 -0.34543253346E+02  0.35005232809E+02  0.50678581639E+02  0.00000000000E+00 0.  1.
         12    1    6    6    0    0 -0.24228175526E+02 -0.13617026031E+02 -0.44180051959E+02  0.52194874061E+02  0.00000000000E+00 0. -1.
         -5    1    3    3    0  503 -0.30446512603E+02  0.62146851338E+02 -0.34106665430E+02  0.77295380765E+02  0.47000000000E+01 0.  1.
         13    1    4    4    0    0  0.32009996357E+02 -0.43968576999E+02  0.61674648397E+01  0.54734936307E+02  0.00000000000E+00 0. -1.
        -14    1    4    4    0    0  0.18446798032E+02  0.34533165981E+01 -0.57056535489E+02  0.60063782724E+02  0.00000000000E+00 0.  1.
</event>
<event>
12    1  0.8421768E-002  0.2176848E+03  0.7818608E-02  0.1135631E+00
         21   -1    0    0  503  502  0.00000000000E+00  0.00000000000E+00  0.79162611214E+03  0.79162611214E+03  0.00000000000E+00 0.  1.
         21   -1    0    0  501  503 -0.00000000000E+00 -0.00000000000E+00 -0.60126245470E+02  0.60126245470E+02  0.00000000000E+00 0.  1.
          6    2    1    2  501    0  0.72217314763E+02  0.11465260364E+03  0.33661231509E+03  0.40083900319E+03  0.17030412718E+03 0.  0.
         24    2    3    3    0    0  0.47399094128E+02  0.14810206050E+03  0.27530859135E+03  0.32657564221E+03  0.81706396100E+02 0.  0.
         -6    2    1    2    0  502 -0.72217314763E+02 -0.11465260364E+03  0.39488755157E+03  0.45091335441E+03  0.17037052189E+03 0.  0.
        -24    2    5    5    0    0  0.13881641319E+02 -0.85058272262E+02  0.16086593843E+03  0.19976188596E+03  0.81236391416E+02 0.  0.
          5    1    3    3  501    0  0.24818220635E+02 -0.33449456862E+02  0.61303723746E+02  0.74263360986E+02  0.47000000000E+01 0. -1.
        -13    1    4    4    0    0  0.14881337769E+02  0.55987440894E+02  0.18383797738E+03  0.19274970733E+03  0.00000000000E+00 0.  1.
         14    1    4    4    0    0  0.32517756359E+02  0.92114619607E+02  0.91470613972E+02  0.13382593487E+03  0.00000000000E+00 0. -1.
         -5    1    5    5    0  502 -0.86098956082E+02 -0.29594331377E+02  0.23402161314E+03  0.25115146845E+03  0.47000000000E+01 0.  1.
         13    1    6    6    0    0  0.30128760444E+01 -0.62800554070E+02  0.16319070350E+03  0.17488336892E+03  0.00000000000E+00 0. -1.
        -14    1    6    6    0    0  0.10868765275E+02 -0.22257718192E+02 -0.23247650745E+01  0.24878517045E+02  0.00000000000E+00 0.  1.
</event>
<event>
12    1  0.8421768E-002  0.1767250E+03  0.7818608E-02  0.1171196E+00
         21   -1    0    0  503  502  0.00000000000E+00  0.00000000000E+00  0.31070381597E+02  0.31070381597E+02  0.00000000000E+00 0.  1.
         21   -1    0    0  501  503 -0.00000000000E+00 -0.00000000000E+00 -0.10070575560E+04  0.10070575560E+04  0.00000000000E+00 0.  1.
          6    2    1    2  501    0 -0.13499955988E+02 -0.35620226134E+02 -0.44653567164E+03  0.47996074478E+03  0.17180559119E+03 0.  0.
         24    2    3    3    0    0  0.97388808335E+01 -0.71592089342E+02 -0.40848458159E+03  0.42248036610E+03  0.80060809940E+02 0.  0.
         -6    2    1    2    0  502  0.13499955988E+02  0.35620226134E+02 -0.52945150271E+03  0.55816719277E+03  0.17257077398E+03 0.  0.
        -24    2    5    5    0    0  0.13345468094E+01  0.87150289430E+02 -0.30027746758E+03  0.32290951918E+03  0.80666263549E+02 0.  0.
          5    1    3    3  501    0 -0.23238836822E+02  0.35971863208E+02 -0.38051090054E+02  0.57480378685E+02  0.47000000000E+01 0. -1.
        -13    1    4    4    0    0 -0.33029106194E+02 -0.14121124852E+02 -0.15121397293E+03  0.15542198568E+03  0.00000000000E+00 0.  1.
         14    1    4    4    0    0  0.42767987027E+02 -0.57470964490E+02 -0.25727060866E+03  0.26705838042E+03  0.00000000000E+00 0. -1.
         -5    1    5    5    0  502  0.12165409179E+02 -0.51530063296E+02 -0.22917403513E+03  0.23525767359E+03  0.47000000000E+01 0.  1.
         11    1    6    6    0    0 -0.34955193783E+02  0.25569439971E+02 -0.75487398682E+02  0.87028783702E+02  0.00000000000E+00 0. -1.
        -12    1    6    6    0    0  0.36289740593E+02  0.61580849459E+02 -0.22479006890E+03  0.23588073548E+03  0.00000000000E+00 0.  1.
</event>
<event>
12    1  0.8421768E-002  0.1901488E+03  0.7818608E-02  0.1162040E+00
         21   -1    0    0  503  502  0.00000000000E+00  0.00000000000E+00  0.96517964324E+03  0.96517964324E+03  0.00000000000E+00 0.  1.
         21   -1    0    0  501  503 -0.00000000000E+00 -0.00000000000E+00 -0.22737940211E+03  0.22737940211E+03  0.00000000000E+00 0.  1.
          6    2    1    2  501    0  0.78489698256E+02  0.20241918111E+02 -0.17790187416E+03  0.26039513899E+03  0.17200634756E+03 0.  0.
         24    2    3    3    0    0  0.41854568805E+02 -0.83261139342E+01 -0.19117851756E+03  0.21185006278E+03  0.80685156118E+02 0.  0.
         -6    2    1    2    0  502 -0.78489698256E+02 -0.20241918111E+02  0.91570211529E+03  0.93216390636E+03  0.15443062002E+03 0.  0.
        -24    2    5    5    0    0 -0.37925900434E+01  0.22776231260E+02  0.55555202379E+03  0.56181218495E+03  0.80384946140E+02 0.  0.
          5    1    3    3  501    0  0.36635129451E+02  0.28568032045E+02  0.13276643402E+02  0.48545076216E+02  0.47000000000E+01 0. -1.
        -13    1    4    4    0    0 -0.13104024992E+02  0.77484435776E+01 -0.34863391586E+01  0.15617567339E+02  0.00000000000E+00 0.  1.
         14    1    4    4    0    0  0.54958593797E+02 -0.16074557512E+02 -0.18769217841E+03  0.19623249544E+03  0.00000000000E+00 0. -1.
         -5    1    5    5    0  502 -0.74697108212E+02 -0.43018149371E+02  0.36015009149E+03  0.37035172141E+03  0.47000000000E+01 0.  1.
         13    1    6    6    0    0 -0.11769509898E+02 -0.27629861363E+02  0.14328303077E+03  0.14639657616E+03  0.00000000000E+00 0. -1.
        -14    1    6    6    0    0  0.79769198550E+01  0.50406092623E+02  0.41226899302E+03  0.41541560879E+03  0.00000000000E+00 0.  1.
</event>
<event>
12    1  0.8421768E-002  0.2475834E+03  0.7818608E-02  0.1115029E+00
         21   -1    0    0  501  502  0.00000000000E+00  0.00000000000E+00  0.17320758448E+03  0.17320758448E+03  0.00000000000E+00 0.  1.
         21   -1    0    0  502  503 -0.00000000000E+00 -0.00000000000E+00 -0.53047442086E+03  0.53047442086E+03  0.00000000000E+00 0. -1.
         -6    2    1    2    0  503 -0.11764636719E+03  0.13304718538E+03 -0.38286490552E+03  0.45594194735E+03  0.17249725281E+03 0.  0.
        -24    2    3    3    0    0 -0.11793563719E+03  0.95231237715E+02 -0.17630983534E+03  0.24590095947E+03  0.80026999656E+02 0.  0.
          6    2    1    2  501    0  0.11764636719E+03 -0.13304718538E+03  0.25598069133E+02  0.24774005799E+03  0.17081467717E+03 0.  0.
         24    2    5    5    0    0  0.11874683155E+03 -0.11903647365E+03  0.76357178617E+02  0.19486200715E+03  0.62211663236E+02 0.  0.
          5    1    5    5  501    0 -0.11004643544E+01 -0.14010711738E+02 -0.50759109483E+02  0.52878050841E+02  0.47000000000E+01 0. -1.
        -11    1    6    6    0    0  0.25995555946E+02 -0.27009934111E+02  0.48444703032E+02  0.61255160774E+02  0.00000000000E+00 0.  1.
         12    1    6    6    0    0  0.92751275601E+02 -0.92026539535E+02  0.27912475584E+02  0.13360684637E+03  0.00000000000E+00 0. -1.
         -5    1    3    3    0  503  0.28926999535E+00  0.37815947669E+02 -0.20655507017E+03  0.21004098788E+03  0.47000000000E+01 0.  1.
         13    1    4    4    0    0 -0.97251694267E+02  0.69908989908E+02 -0.17638331502E+03  0.21320467332E+03  0.00000000000E+00 0. -1.
        -14    1    4    4    0    0 -0.20683942921E+02  0.25322247807E+02  0.73479677737E-01  0.32696286150E+02  0.00000000000E+00 0.  1.
</event>
<event>
12    1  0.8421768E-002  0.2796568E+03  0.7818608E-02  0.1096080E+00
         21   -1    0    0  503  502  0.00000000000E+00  0.00000000000E+00  0.93195124311E+02  0.93195124311E+02  0.00000000000E+00 0.  1.
         21   -1    0    0  501  503 -0.00000000000E+00 -0.00000000000E+00 -0.83749857801E+03  0.83749857801E+03  0.00000000000E+00 0. -1.
          6    2    1    2  501    0 -0.10954871368E+02 -0.21853509214E+03 -0.34442913247E+03  0.44273122873E+03  0.17176122348E+03 0.  0.
         24    2    3    3    0    0 -0.53266338048E+02 -0.68226167588E+02 -0.11881019048E+03  0.16830632097E+03  0.81969772500E+02 0.  0.
         -6    2    1    2    0  502  0.10954871368E+02  0.21853509214E+03 -0.39987432123E+03  0.48796247360E+03  0.17415598514E+03 0.  0.
        -24    2    5    5    0    0  0.67110818887E+02  0.98791712312E+02 -0.25047944960E+03  0.28838069807E+03  0.78484443779E+02 0.  0.
          5    1    3    3  501    0  0.42311466679E+02 -0.15030892455E+03 -0.22561894200E+03  0.27442490776E+03  0.47000000000E+01 0. -1.
        -13    1    4    4    0    0  0.27002279424E+01  0.10143534082E+02  0.48566815961E+01  0.11565892561E+02  0.00000000000E+00 0.  1.
         14    1    4    4    0    0 -0.55966565990E+02 -0.78369701670E+02 -0.12366687207E+03  0.15674042841E+03  0.00000000000E+00 0. -1.
         -5    1    5    5    0  502 -0.56155947519E+02  0.11974337982E+03 -0.14939487163E+03  0.19958177552E+03  0.47000000000E+01 0.  1.
         11    1    6    6    0    0  0.77181576256E+02  0.51088172939E+02 -0.18366284216E+03  0.20566729618E+03  0.00000000000E+00 0. -1.
        -12    1    6    6    0    0 -0.10070757369E+02  0.47703539373E+02 -0.66816607436E+02  0.82713401889E+02  0.00000000000E+00 0.  1.
</event>
<event>
12    1  0.8421768E-002  0.2117693E+03  0.7818608E-02  0.1141804E+00
         21   -1    0    0  501  502  0.00000000000E+00  0.00000000000E+00  0.39165047669E+02  0.39165047669E+02  0.00000000000E+00 0. -1.
         21   -1    0    0  502  503 -0.00000000000E+00 -0.00000000000E+00 -0.12696867936E+04  0.12696867936E+04  0.00000000000E+00 0.  1.
         -6    2    1    2    0  503 -0.10793723364E+03  0.14156466954E+02 -0.84301319604E+03  0.86725345699E+03  0.17206527248E+03 0.  0.
        -24    2    3    3    0    0 -0.41115728531E+02  0.35881177309E+00 -0.18714709712E+03  0.20783104415E+03  0.80492701996E+02 0.  0.
          6    2    1    2  501    0  0.10793723364E+03 -0.14156466954E+02 -0.38750854988E+03  0.44159838427E+03  0.18164637293E+03 0.  0.
         24    2    5    5    0    0 -0.14729727537E+01  0.15161625259E+01 -0.74655170059E+02  0.10976175000E+03  0.80434936125E+02 0.  0.
          5    1    5    5  501    0  0.10941020640E+03 -0.15672629480E+02 -0.31285337982E+03  0.33183663427E+03  0.47000000000E+01 0. -1.
        -11    1    6    6    0    0 -0.38639034084E+01 -0.34456923183E+02 -0.62931318886E+02  0.71850958251E+02  0.00000000000E+00 0.  1.
         12    1    6    6    0    0  0.23909306548E+01  0.35973085709E+02 -0.11723851173E+02  0.37910791751E+02  0.00000000000E+00 0. -1.
         -5    1    3    3    0  503 -0.66821505112E+02  0.13797655181E+02 -0.65586609892E+03  0.65942241283E+03  0.47000000000E+01 0.  1.
         13    1    4    4    0    0  0.69676512611E+01  0.29017008757E+02 -0.99111980921E+02  0.10350709987E+03  0.00000000000E+00 0. -1.
        -14    1    4    4    0    0 -0.48083379793E+02 -0.28658196984E+02 -0.88035116200E+02  0.10432394428E+03  0.00000000000E+00 0.  1.
</event>
<event>
12    1  0.8421768E-002  0.2937419E+03  0.7818608E-02  0.1088495E+00
         21   -1    0    0  501  502  0.00000000000E+00  0.00000000000E+00  0.77482325118E+03  0.77482325118E+03  0.00000000000E+00 0. -1.
         21   -1    0    0  502  503 -0.00000000000E+00 -0.00000000000E+00 -0.36049729833E+03  0.36049729833E+03  0.00000000000E+00 0. -1.
         -6    2    1    2    0  503 -0.23135303237E+03  0.57745493672E+02 -0.26504753575E+03  0.39516339052E+03  0.17042635177E+03 0.  0.
        -24    2    3    3    0    0 -0.61727008048E+02 -0.25194378735E+02 -0.10330213601E+03  0.14649559024E+03  0.79653288774E+02 0.  0.
          6    2    1    2  501    0  0.23135303237E+03 -0.57745493672E+02  0.67937348860E+03  0.74015715898E+03  0.17153867013E+03 0.  0.
         24    2    5    5    0    0  0.21786354054E+03 -0.88020650729E+02  0.54330113553E+03  0.60002748049E+03  0.98207414271E+02 0.  0.
          5    1    5    5  501    0  0.13489491826E+02  0.30275157056E+02  0.13607235307E+03  0.14012967850E+03  0.47000000000E+01 0. -1.
        -11    1    6    6    0    0  0.84254564489E+02  0.15000077139E+02  0.16769816668E+03  0.18827243309E+03  0.00000000000E+00 0.  1.
         12    1    6    6    0    0  0.13360897606E+03 -0.10302072787E+03  0.37560296885E+03  0.41175504740E+03  0.00000000000E+00 0. -1.
         -5    1    3    3    0  503 -0.16962602432E+03  0.82939872408E+02 -0.16174539973E+03  0.24866780028E+03  0.47000000000E+01 0.  1.
         13    1    4    4    0    0 -0.25608695756E+02  0.49170943682E+01 -0.95290739593E+02  0.98794271937E+02  0.00000000000E+00 0. -1.
        -14    1    4    4    0    0 -0.36118312292E+02 -0.30111473104E+02 -0.80113964209E+01  0.47701318304E+02  0.00000000000E+00 0.  1.
</event>
<event>
12    1  0.8421768E-002  0.2391587E+03  0.7818608E-02  0.1120359E+00
         21   -1    0    0  503  502  0.00000000000E+00  0.00000000000E+00  0.19755470238E+03  0.19755470238E+03  0.00000000000E+00 0.  1.
         21   -1    0    0  501  503 -0.00000000000E+00 -0.00000000000E+00 -0.33264976202E+03  0.33264976202E+03  0.00000000000E+00 0.  1.
          6    2    1    2  501    0  0.61059692905E+02  0.15549685784E+03 -0.16303713266E+03  0.28944431262E+03  0.17114130006E+03 0.  0.
         24    2    3    3    0    0 -0.97216754053E+01  0.14692943258E+03 -0.11809942178E+03  0.20503524477E+03  0.80057535826E+02 0.  0.
         -6    2    1    2    0  502 -0.61059692905E+02 -0.15549685784E+03  0.27942073022E+02  0.24076015178E+03  0.17110561752E+03 0.  0.
        -24    2    5    5    0    0 -0.93350357007E+02 -0.60926510323E+02  0.28142767135E+01  0.13761106664E+03  0.80638431879E+02 0.  0.
          5    1    3    3  501    0  0.70781368311E+02  0.85674252528E+01 -0.44937710876E+02  0.84409067843E+02  0.47000000000E+01 0. -1.
        -11    1    4    4    0    0  0.33370236820E+02  0.84920470643E+02 -0.54278580665E+02  0.10616601791E+03  0.00000000000E+00 0.  1.
         12    1    4    4    0    0 -0.43091912225E+02  0.62008961941E+02 -0.63820841117E+02  0.98869226866E+02  0.00000000000E+00 0. -1.
         -5    1    5    5    0  502  0.32290664102E+02 -0.94570347514E+02  0.25127796309E+02  0.10314908514E+03  0.47000000000E+01 0.  1.
         13    1    6    6    0    0 -0.18673235026E+02  0.18859204378E+02 -0.81957002226E+01  0.27776407224E+02  0.00000000000E+00 0. -1.
        -14    1    6    6    0    0 -0.74677121982E+02 -0.79785714701E+02  0.11009976936E+02  0.10983465942E+03  0.00000000000E+00 0.  1.
</event>
<event>
12    1  0.8421768E-002  0.2420551E+03  0.7818608E-02  0.1118946E+00
         21   -1    0    0  501  502  0.00000000000E+00  0.00000000000E+00  0.13073352289E+03  0.13073352289E+03  0.00000000000E+00 0.  1.
         21   -1    0    0  502  503 -0.00000000000E+00 -0.00000000000E+00 -0.48689323173E+03  0.48689323173E+03  0.00000000000E+00 0.  1.
         -6    2    1    2    0  503 -0.58508579325E+02  0.15946546050E+03 -0.27034495592E+03  0.36081000741E+03  0.16806242683E+03 0.  0.
        -24    2    3    3    0    0 -0.86946726370E+02  0.53824844096E+02 -0.13743838187E+03  0.18860398119E+03  0.78900607366E+02 0.  0.
          6    2    1    2  501    0  0.58508579325E+02 -0.15946546050E+03 -0.85814752928E+02  0.25681674721E+03  0.17244762358E+03 0.  0.
         24    2    5    5    0    0  0.81833463773E+02 -0.16999219860E+03 -0.98917312754E+02  0.22768550069E+03  0.80386498151E+02 0.  0.
          5    1    5    5  501    0 -0.23324884449E+02  0.10526738098E+02  0.13102559826E+02  0.29131246515E+02  0.47000000000E+01 0. -1.
        -13    1    6    6    0    0  0.85293212014E+02 -0.14158124244E+03 -0.52998061846E+02  0.17357699959E+03  0.00000000000E+00 0.  1.
         14    1    6    6    0    0 -0.34597482403E+01 -0.28410956158E+02 -0.45919250908E+02  0.54108501104E+02  0.00000000000E+00 0. -1.
         -5    1    3    3    0  503  0.28438147045E+02  0.10564061640E+03 -0.13290657405E+03  0.17220602622E+03  0.47000000000E+01 0.  1.
         13    1    4    4    0    0  0.57369114014E+01 -0.13306909024E+02 -0.19170900017E+02  0.24031425003E+02  0.00000000000E+00 0. -1.
        -14    1    4    4    0    0 -0.92683637771E+02  0.67131753119E+02 -0.11826748185E+03  0.16457255619E+03  0.00000000000E+00 0.  1.
</event>
<event>
12    1  0.8421768E-002  0.2223126E+03  0.7818608E-02  0.1132528E+00
         21   -1    0    0  501  502  0.00000000000E+00  0.00000000000E+00  0.88743413496E+02  0.88743413496E+02  0.00000000000E+00 0. -1.
         21   -1    0    0  502  503 -0.00000000000E+00 -0.00000000000E+00 -0.70618563431E+03  0.70618563431E+03  0.00000000000E+00 0. -1.
         -6    2    1    2    0  503 -0.13687586050E+03 -0.30183815294E+02 -0.12199128033E+03  0.25188713331E+03  0.17005643639E+03 0.  0.
        -24    2    3    3    0    0 -0.84863203298E+02  0.19193561594E+02 -0.13545517317E+03  0.17876526061E+03  0.77709448452E+02 0.  0.
          6    2    1    2  501    0  0.13687586050E+03  0.30183815294E+02 -0.49545094048E+03  0.54304191449E+03  0.17255962035E+03 0.  0.
         24    2    5    5    0    0  0.11186519265E+02  0.49007065680E+02 -0.23051677658E+03  0.24916383355E+03  0.80111178774E+02 0.  0.
          5    1    5    5  501    0  0.12568934124E+03 -0.18823250385E+02 -0.26493416390E+03  0.29387808094E+03  0.47000000000E+01 0. -1.
        -11    1    6    6    0    0  0.11445273633E+02 -0.17792638765E+02 -0.10363026088E+03  0.10576768529E+03  0.00000000000E+00 0.  1.
         12    1    6    6    0    0 -0.25875436859E+00  0.66799704445E+02 -0.12688651571E+03  0.14339614826E+03  0.00000000000E+00 0. -1.
         -5    1    3    3    0  503 -0.52012657203E+02 -0.49377376889E+02  0.13463892844E+02  0.73121872707E+02  0.47000000000E+01 0.  1.
         13    1    4    4    0    0 -0.62294612998E+02 -0.21179741329E+02 -0.54105091651E+02  0.85185451773E+02  0.00000000000E+00 0. -1.
        -14    1    4    4    0    0 -0.22568590301E+02  0.40373302923E+02 -0.81350081523E+02  0.93579808832E+02  0.00000000000E+00 0.  1.
</event>
<event>
12    1  0.8421768E-002  0.2710186E+03  0.7818608E-02  0.1100975E+00
         21   -1    0    0  501  502  0.00000000000E+00  0.00000000000E+00  0.95945688243E+03  0.95945688243E+03  0.00000000000E+00 0. -1.
         21   -1    0    0  502  503 -0.00000000000E+00 -0.00000000000E+00 -0.78246992164E+02  0.78246992164E+02  0.00000000000E+00 0. -1.
         -6    2    1    2    0  503 -0.18646451351E+03  0.84506071048E+02  0.35131608394E+03  0.44252448272E+03  0.17462713457E+03 0.  0.
        -24    2    3    3    0    0 -0.11250365910E+03  0.82446639800E+02  0.12159041453E+03  0.20113181003E+03  0.78836884612E+02 0.  0.
          6    2    1    2  501    0  0.18646451351E+03 -0.84506071048E+02  0.52989380632E+03  0.59517939187E+03  0.17759721756E+03 0.  0.
         24    2    5    5    0    0  0.56342143998E+02 -0.50334733433E+02  0.12316939894E+03  0.16675630085E+03  0.83240257430E+02 0.  0.
          5    1    5    5  501    0  0.13012236951E+03 -0.34171337616E+02  0.40672440738E+03  0.42842309102E+03  0.47000000000E+01 0. -1.
        -13    1    6    6    0    0 -0.46851532469E+01 -0.84112084644E+00 -0.10598464452E+02  0.11618330085E+02  0.00000000000E+00 0.  1.
         14    1    6    6    0    0  0.61027297245E+02 -0.49493612586E+02  0.13376786340E+03  0.15513797077E+03  0.00000000000E+00 0. -1.
         -5    1    3    3    0  503 -0.73960854412E+02  0.20594312486E+01  0.22972566942E+03  0.24139267270E+03  0.47000000000E+01 0.  1.
         13    1    4    4    0    0 -0.11068737102E+03  0.73558572666E+02  0.13200680088E+03  0.18731885435E+03  0.00000000000E+00 0. -1.
        -14    1    4    4    0    0 -0.18162880769E+01  0.88880671334E+01 -0.10416386357E+02  0.13812955675E+02  0.00000000000E+00 0.  1.
</event>
<event>
12    1  0.8421768E-002  0.2422882E+03  0.7818608E-02  0.1118302E+00
         21   -1    0    0  503  502  0.00000000000E+00  0.00000000000E+00  0.36078319723E+03  0.36078319723E+03  0.00000000000E+00 0. -1.
         21   -1    0    0  501  503 -0.00000000000E+00 -0.00000000000E+00 -0.28280973258E+03  0.28280973258E+03  0.00000000000E+00 0. -1.
          6    2    1    2  501    0  0.16704825472E+03 -0.31618708372E+02 -0.17080878921E+03  0.29632335211E+03  0.17241526733E+03 0.  0.
         24    2    3    3    0    0  0.85737833559E+02 -0.81016518898E+02 -0.78425379838E+02  0.16362703489E+03  0.81906128634E+02 0.  0.
         -6    2    1    2    0  502 -0.16704825472E+03  0.31618708372E+02  0.24878225387E+03  0.34726957770E+03  0.17262296381E+03 0.  0.
        -24    2    5    5    0    0 -0.12688147963E+03 -0.27353709134E+02  0.10013116473E+03  0.18231397110E+03  0.79780941536E+02 0.  0.
          5    1    3    3  501    0  0.81310421160E+02  0.49397810525E+02 -0.92383409375E+02  0.13269631721E+03  0.47000000000E+01 0. -1.
        -11    1    4    4    0    0  0.18898630791E+01 -0.34142064485E+02  0.71995004997E+01  0.34944026058E+02  0.00000000000E+00 0.  1.
         12    1    4    4    0    0  0.83847970480E+02 -0.46874454413E+02 -0.85624880337E+02  0.12868300884E+03  0.00000000000E+00 0. -1.
         -5    1    5    5    0  502 -0.40166775090E+02  0.58972417506E+02  0.14865108914E+03  0.16495560660E+03  0.47000000000E+01 0.  1.
         11    1    6    6    0    0 -0.93104735414E+02  0.11734742973E+02  0.89279877250E+02  0.12952641596E+03  0.00000000000E+00 0. -1.
        -12    1    6    6    0    0 -0.33776744215E+02 -0.39088452108E+02  0.10851287477E+02  0.52787555142E+02  0.00000000000E+00 0.  1.
</event>
<event>
12    1  0.8421768E-002  0.1780094E+03  0.7818608E-02  0.1170238E+00
         21   -1    0    0  501  502  0.00000000000E+00  0.00000000000E+00  0.62705164273E+03  0.62705164273E+03  0.00000000000E+00 0.  1.
         21   -1    0    0  502  503 -0.00000000000E+00 -0.00000000000E+00 -0.75229264843E+02  0.75229264843E+02  0.00000000000E+00 0.  1.
         -6    2    1    2    0  503  0.20145329374E+02  0.11204921557E+02  0.73469406704E+02  0.19257487722E+03  0.17651046726E+03 0.  0.
        -24    2    3    3    0    0  0.68644532426E+02  0.32405607773E+02  0.10376118218E+02  0.11008551521E+03  0.79050373705E+02 0.  0.
          6    2    1    2  501    0 -0.20145329374E+02 -0.11204921557E+02  0.47835297119E+03  0.50970603035E+03  0.17449151204E+03 0.  0.
         24    2    5    5    0    0 -0.63782055096E+02 -0.51700652144E+02  0.31342463379E+03  0.33429931867E+03  0.82340302483E+02 0.  0.
          5    1    5    5  501    0  0.43636725722E+02  0.40495730587E+02  0.16492833739E+03  0.17540671168E+03  0.47000000000E+01 0. -1.
        -11    1    6    6    0    0 -0.92251485868E+01 -0.60145724341E+02  0.15393883688E+03  0.16552878005E+03  0.00000000000E+00 0.  1.
         12    1    6    6    0    0 -0.54556906509E+02  0.84450721971E+01  0.15948579691E+03  0.16877053863E+03  0.00000000000E+00 0. -1.
         -5    1    3    3    0  503 -0.48499203053E+02 -0.21200686216E+02  0.63093288486E+02  0.82489362010E+02  0.47000000000E+01 0.  1.
         13    1    4    4    0    0  0.62550145138E+02  0.17148566785E+02  0.40007027732E+02  0.76204699773E+02  0.00000000000E+00 0. -1.
        -14    1    4    4    0    0  0.60943872883E+01  0.15257040988E+02 -0.29630909514E+02  0.33880815438E+02  0.00000000000E+00 0.  1.
</event>
<event>
12    1  0.8421768E-002  0.1903770E+03  0.7818608E-02  0.1158480E+00
         21   -1    0    0  503  502  0.00000000000E+00  0.00000000000E+00  0.17128910581E+03  0.17128910581E+03  0.00000000000E+00 0. -1.
         21   -1    0    0  501  503 -0.00000000000E+00 -0.00000000000E+00 -0.23201321104E+03  0.23201321104E+03  0.00000000000E+00 0. -1.
          6    2    1    2  501    0  0.50292393245E+02 -0.60423257705E+02 -0.92595979846E+02  0.21027586959E+03  0.17164390744E+03 0.  0.
         24    2    3    3    0    0  0.91169790455E+02 -0.27776581613E+02 -0.96872256424E+02  0.15757725857E+03  0.79767720136E+02 0.  0.
         -6    2    1    2    0  502 -0.50292393245E+02  0.60423257705E+02  0.31871874614E+02  0.19302644726E+03  0.17338713349E+03 0.  0.
        -24    2    5    5    0    0 -0.80277382529E+02  0.92970615882E+02  0.21839542561E+02  0.14740662927E+03  0.78509586487E+02 0.  0.
          5    1    3    3  501    0 -0.40877397210E+02 -0.32646676092E+02  0.42762765778E+01  0.52698611024E+02  0.47000000000E+01 0. -1.
        -13    1    4    4    0    0  0.44780145070E+01  0.14636565122E+02 -0.45999534743E+02  0.48479262051E+02  0.00000000000E+00 0.  1.
         14    1    4    4    0    0  0.86691775948E+02 -0.42413146735E+02 -0.50872721681E+02  0.10909799652E+03  0.00000000000E+00 0. -1.
         -5    1    5    5    0  502  0.29984989284E+02 -0.32547358177E+02  0.10032332054E+02  0.45619817987E+02  0.47000000000E+01 0.  1.
         11    1    6    6    0    0 -0.94090214302E+02  0.64378178883E+02  0.18063968836E+02  0.11542887556E+03  0.00000000000E+00 0. -1.
        -12    1    6    6    0    0  0.13812831774E+02  0.28592436999E+02  0.37755737250E+01  0.31977753707E+02  0.00000000000E+00 0.  1.
</event>
<event>
12    1  0.8421768E-002  0.1837210E+03  0.7818608E-02  0.1164335E+00
         21   -1    0    0  501  502  0.00000000000E+00  0.00000000000E+00  0.14946962096E+03  0.14946962096E+03  0.00000000000E+00 0.  1.
         21   -1    0    0  502  503 -0.00000000000E+00 -0.00000000000E+00 -0.23766620773E+03  0.23766620773E+03  0.00000000000E+00 0.  1.
         -6    2    1    2    0  503  0.45270007178E+02  0.42996362233E+02 -0.88071222062E+02  0.20341482761E+03  0.17240357079E+03 0.  0.
        -24    2    3    3    0    0  0.48263005034E+02  0.23226258191E+02  0.23512676794E+02  0.89956149958E+02  0.68340955662E+02 0.  0.
          6    2    1    2  501    0 -0.45270007178E+02 -0.42996362233E+02 -0.12536471065E+00  0.18372100109E+03  0.17278694918E+03 0.  0.
         24    2    5    5    0    0 -0.70762861582E+02  0.25194790149E+02 -0.38288526756E+01  0.11067495594E+03  0.81191906795E+02 0.  0.
          5    1    5    5  501    0  0.25492854403E+02 -0.68191152381E+02  0.37034879650E+01  0.73046045148E+02  0.47000000000E+01 0. -1.
        -11    1    6    6    0    0 -0.22215882222E+02 -0.17240636643E+02  0.27195599102E+02  0.39120142961E+02  0.00000000000E+00 0.  1.
         12    1    6    6    0    0 -0.48546979360E+02  0.42435426792E+02 -0.31024451778E+02  0.71554812976E+02  0.00000000000E+00 0. -1.
         -5    1    3    3    0  503 -0.29929978555E+01  0.19770104042E+02 -0.11158389886E+03  0.11345867765E+03  0.47000000000E+01 0.  1.
         11    1    4    4    0    0 -0.68334669975E+01 -0.16486783375E+02 -0.67721864656E+00  0.17859701071E+02  0.00000000000E+00 0. -1.
        -12    1    4    4    0    0  0.55096472031E+02  0.39713041566E+02  0.24189895440E+02  0.72096448887E+02  0.00000000000E+00 0.  1.
</event>
<event>
12    1  0.8421768E-002  0.2516617E+03  0.7818608E-02  0.1112462E+00
         21   -1    0    0  501  502  0.00000000000E+00  0.00000000000E+00  0.19883118104E+03  0.19883118104E+03  0.00000000000E+00 0. -1.
         21   -1    0    0  502  503 -0.00000000000E+00 -0.00000000000E+00 -0.33779627300E+03  0.33779627300E+03  0.00000000000E+00 0.  1.
         -6    2    1    2    0  503  0.17955576919E+03  0.32606576734E+02 -0.25735929244E+01  0.25038236222E+03  0.17140957043E+03 0.  0.
        -24    2    3    3    0    0  0.10983010236E+03 -0.58977237412E+01 -0.62855607175E+02  0.15038105717E+03  0.81032095326E+02 0.  0.
          6    2    1    2  501    0 -0.17955576919E+03 -0.32606576734E+02 -0.13639149903E+03  0.28624509182E+03  0.17329209010E+03 0.  0.
         24    2    5    5    0    0 -0.78458198303E+02 -0.33639470714E+01  0.29652862950E+01  0.11155034707E+03  0.79168693232E+02 0.  0.
          5    1    5    5  501    0 -0.10109757088E+03 -0.29242629662E+02 -0.13935678533E+03  0.17469474475E+03  0.47000000000E+01 0. -1.
        -11    1    6    6    0    0 -0.83174022108E+02  0.17450462498E+02 -0.11512442294E+02  0.85761138767E+02  0.00000000000E+00 0.  1.
         12    1    6    6    0    0  0.47158238051E+01 -0.20814409569E+02  0.14477728589E+02  0.25789208304E+02  0.00000000000E+00 0. -1.
         -5    1    3    3    0  503  0.69725666826E+02  0.38504300475E+02  0.60282014250E+02  0.10000130505E+03  0.47000000000E+01 0.  1.
         13    1    4    4    0    0  0.10279528584E+03 -0.32628784758E+01 -0.17399588753E+02  0.10430849849E+03  0.00000000000E+00 0. -1.
        -14    1    4    4    0    0  0.70348165153E+01 -0.26348452654E+01 -0.45456018422E+02  0.46072558685E+02  0.00000000000E+00 0.  1.
</event>
<event>
12    1  0.8421768E-002  0.2099520E+03  0.7818608E-02  0.1142130E+00
         21   -1    0    0  503  502  0.00000000000E+00  0.00000000000E+00  0.17823037034E+03  0.17823037034E+03  0.00000000000E+00 0. -1.
         21   -1    0    0  501  503 -0.00000000000E+00 -0.00000000000E+00 -0.28335857224E+03  0.28335857224E+03  0.00000000000E+00 0.  1.
          6    2    1    2  501    0 -0.23745066212E+02 -0.11749314475E+03 -0.13861963789E+03  0.25158543151E+03  0.17236982946E+03 0.  0.
         24    2    3    3    0    0 -0.76636587629E+02 -0.10614687387E+03 -0.12096035300E+03  0.19448734710E+03  0.77804857095E+02 0.  0.
         -6    2    1    2    0  502  0.23745066212E+02  0.11749314475E+03  0.33491435989E+02  0.21000351107E+03  0.16914884316E+03 0.  0.
        -24    2    5    5    0    0  0.10765222815E+02  0.16137371268E+02  0.62956696404E+02  0.10355276789E+03  0.79895715413E+02 0.  0.
          5    1    3    3  501    0  0.52891521417E+02 -0.11346270875E+02 -0.17659284892E+02  0.57098084412E+02  0.47000000000E+01 0. -1.
        -11    1    4    4    0    0 -0.24802937233E+02 -0.84600785938E+02 -0.10293910187E+03  0.13553205292E+03  0.00000000000E+00 0.  1.
         12    1    4    4    0    0 -0.51833650396E+02 -0.21546087932E+02 -0.18021251128E+02  0.58955294171E+02  0.00000000000E+00 0. -1.
         -5    1    5    5    0  502  0.12979843397E+02  0.10135577348E+03 -0.29465260415E+02  0.10645074318E+03  0.47000000000E+01 0.  1.
         11    1    6    6    0    0 -0.34140205003E+01  0.41360054213E+02  0.61992784983E+02  0.74601709165E+02  0.00000000000E+00 0. -1.
        -12    1    6    6    0    0  0.14179243316E+02 -0.25222682944E+02  0.96391142063E+00  0.28951058722E+02  0.00000000000E+00 0.  1.
</event>
<event>
12    1  0.8421768E-002  0.1966223E+03  0.7818608E-02  0.1153535E+00
         21   -1    0    0  503  502  0.00000000000E+00  0.00000000000E+00  0.10810624068E+03  0.10810624068E+03  0.00000000000E+00 0. -1.
         21   -1    0    0  501  503 -0.00000000000E+00 -0.00000000000E+00 -0.35519100160E+03  0.35519100160E+03  0.00000000000E+00 0. -1.
          6    2    1    2  501    0 -0.37281382752E+02 -0.83358368975E+02 -0.96925485914E+02  0.21921423032E+03  0.17413158754E+03 0.  0.
         24    2    3    3    0    0  0.44153481380E+02 -0.54039580406E+02 -0.34058350825E+02  0.11213671105E+03  0.80900337056E+02 0.  0.
         -6    2    1    2    0  502  0.37281382752E+02  0.83358368975E+02 -0.15015927501E+03  0.24408301195E+03  0.16938178672E+03 0.  0.
        -24    2    5    5    0    0  0.15142249825E+02 -0.80363902079E+01 -0.12085930989E+03  0.14547408148E+03  0.79131942341E+02 0.  0.
          5    1    3    3  501    0 -0.81434864133E+02 -0.29318788569E+02 -0.62867135088E+02  0.10707751927E+03  0.47000000000E+01 0. -1.
        -11    1    4    4    0    0 -0.14292333107E+01 -0.58689371315E+02 -0.75189387681E+01  0.59186311369E+02  0.00000000000E+00 0.  1.
         12    1    4    4    0    0  0.45582714691E+02  0.46497909095E+01 -0.26539412057E+02  0.52950399682E+02  0.00000000000E+00 0. -1.
         -5    1    5    5    0  502  0.22139132927E+02  0.91394759183E+02 -0.29299965127E+02  0.98608930474E+02  0.47000000000E+01 0.  1.
         13    1    6    6    0    0  0.28728551859E+02 -0.17967348964E+02 -0.12972774814E+02  0.36282891383E+02  0.00000000000E+00 0. -1.
        -14    1    6    6    0    0 -0.13586302034E+02  0.99309587563E+01 -0.10788653507E+03  0.10919119010E+03  0.00000000000E+00 0.  1.
</event>
<event>
12    1  0.8421768E-002  0.3910159E+03  0.7818608E-02  0.1046964E+00
         21   -1    0    0  503  502  0.00000000000E+00  0.00000000000E+00  0.38842784861E+03  0.38842784861E+03  0.00000000000E+00 0. -1.
         21   -1    0    0  501  503 -0.00000000000E+00 -0.00000000000E+00 -0.41195296656E+03  0.41195296656E+03  0.00000000000E+00 0.  1.
          6    2    1    2  501    0 -0.15057241769E+03 -0.31674570158E+03 -0.96910830841E+02  0.40253805976E+03  0.17217807056E+03 0.  0.
         24    2    3    3    0    0 -0.47812325289E+02 -0.12092061232E+03 -0.93034850892E+02  0.18130466401E+03  0.85487336948E+02 0.  0.
         -6    2    1    2    0  502  0.15057241769E+03  0.31674570158E+03  0.73385712888E+02  0.39784275540E+03  0.17289737630E+03 0.  0.
        -24    2    5    5    0    0  0.25432723742E+02  0.16543094375E+03 -0.92981436313E+01  0.18473524951E+03  0.77630125276E+02 0.  0.
          5    1    3    3  501    0 -0.10276009240E+03 -0.19582508926E+03 -0.38759799496E+01  0.22123339575E+03  0.47000000000E+01 0. -1.
        -11    1    4    4    0    0 -0.30989518114E+02 -0.10078445144E+03 -0.24970127305E+02  0.10835757076E+03  0.00000000000E+00 0.  1.
         12    1    4    4    0    0 -0.16822807175E+02 -0.20136160886E+02 -0.68064723587E+02  0.72947093249E+02  0.00000000000E+00 0. -1.
         -5    1    5    5    0  502  0.12513969395E+03  0.15131475783E+03  0.82683856519E+02  0.21310750589E+03  0.47000000000E+01 0.  1.
         11    1    6    6    0    0  0.29590497642E+02  0.79070054513E+02  0.30220031283E+02  0.89671184681E+02  0.00000000000E+00 0. -1.
        -12    1    6    6    0    0 -0.41577738999E+01  0.86360889236E+02 -0.39518174914E+02  0.95064064830E+02  0.00000000000E+00 0.  1.
</event>
<event>
12    1  0.8421768E-002  0.1874372E+03  0.7818608E-02  0.1162966E+00
         21   -1    0    0  501  502  0.00000000000E+00  0.00000000000E+00  0.21875648101E+03  0.21875648101E+03  0.00000000000E+00 0.  1.
         21   -1    0    0  502  503 -0.00000000000E+00 -0.00000000000E+00 -0.15870783423E+03  0.15870783423E+03  0.00000000000E+00 0.  1.
         -6    2    1    2    0  503  0.73834424530E+00  0.70568943490E+02  0.65686703820E+02  0.18994229544E+03  0.16365454958E+03 0.  0.
        -24    2    3    3    0    0  0.27133341217E+02  0.10092876196E+03  0.29259043425E+02  0.13546772445E+03  0.81071447188E+02 0.  0.
          6    2    1    2  501    0 -0.73834424530E+00 -0.70568943490E+02 -0.56380570422E+01  0.18752201981E+03  0.17364388641E+03 0.  0.
         24    2    5    5    0    0 -0.68728163381E+02 -0.37505011399E+02  0.52408101275E+01  0.11099569191E+03  0.78500899418E+02 0.  0.
          5    1    5    5  501    0  0.67989819136E+02 -0.33063932092E+02 -0.10878867170E+02  0.76526327903E+02  0.47000000000E+01 0. -1.
        -13    1    6    6    0    0  0.12433703571E+02 -0.68386876565E+01 -0.16287996413E+02  0.21602394787E+02  0.00000000000E+00 0.  1.
         14    1    6    6    0    0 -0.81161866952E+02 -0.30666323742E+02  0.21528806541E+02  0.89393297121E+02  0.00000000000E+00 0. -1.
         -5    1    3    3    0  503 -0.26394996971E+02 -0.30359818468E+02  0.36427660395E+02  0.54474570988E+02  0.47000000000E+01 0.  1.
         13    1    4    4    0    0  0.49514057388E+02  0.51237169907E+02  0.37223841696E+02  0.80389699898E+02  0.00000000000E+00 0. -1.
        -14    1    4    4    0    0 -0.22380716171E+02  0.49691592051E+02 -0.79647982707E+01  0.55078024551E+02  0.00000000000E+00 0.  1.
</event>
<event>
12    1  0.8421768E-002  0.1753885E+03  0.7818608E-02  0.1172663E+00
         21   -1    0    0  501  502  0.00000000000E+00  0.00000000000E+00  0.12766746395E+04  0.12766746395E+04  0.00000000000E+00 0. -1.
         21   -1    0    0  502  503 -0.00000000000E+00 -0.00000000000E+00 -0.31033196485E+02  0.31033196485E+02  0.00000000000E+00 0. -1.
         -6    2    1    2    0  503  0.59083470084E+01  0.34090805790E+02  0.30802238826E+03  0.35382596578E+03  0.17063976908E+03 0.  0.
        -24    2    3    3    0    0  0.41339181093E+02 -0.26912609473E+02  0.10997928043E+03  0.14354062812E+03  0.77943911602E+02 0.  0.
          6    2    1    2  501    0 -0.59083470084E+01 -0.34090805790E+02  0.93761905476E+03  0.95388187021E+03  0.17194196361E+03 0.  0.
         24    2    5    5    0    0 -0.26438767075E+01 -0.50666898195E+02  0.93002132224E+03  0.93477063934E+03  0.79261363185E+02 0.  0.
          5    1    5    5  501    0 -0.32644703009E+01  0.16576092405E+02  0.75977325245E+01  0.19111230868E+02  0.47000000000E+01 0. -1.
        -13    1    6    6    0    0 -0.32606328704E+02 -0.15048353771E+02  0.19514372862E+03  0.19842051416E+03  0.00000000000E+00 0.  1.
         14    1    6    6    0    0  0.29962451997E+02 -0.35618544424E+02  0.73487759362E+03  0.73635012517E+03  0.00000000000E+00 0. -1.
         -5    1    3    3    0  503 -0.35430834084E+02  0.61003415263E+02  0.19804310783E+03  0.21028533766E+03  0.47000000000E+01 0.  1.
         11    1    4    4    0    0  0.52771803550E+01  0.26539838266E+02  0.24772159728E+02  0.36686121971E+02  0.00000000000E+00 0. -1.
        -12    1    4    4    0    0  0.36062000738E+02 -0.53452447739E+02  0.85207120697E+02  0.10685450615E+03  0.00000000000E+00 0.  1.
</event>
<event>
12    1  0.8421768E-002  0.2038215E+03  0.7818608E-02  0.1147278E+00
         21   -1    0    0  501  502  0.00000000000E+00  0.00000000000E+00  0.78139534605E+02  0.78139534605E+02  0.00000000000E+00 0.  1.
         21   -1    0    0  502  503 -0.00000000000E+00 -0.00000000000E+00 -0.55030478859E+03  0.55030478859E+03  0.00000000000E+00 0.  1.
         -6    2    1    2    0  503  0.87399542138E+02  0.64333992343E+02 -0.30851975838E+03  0.36976701197E+03  0.17252727117E+03 0.  0.
        -24    2    3    3    0    0  0.14344291022E+01  0.76162188362E+02 -0.21637954547E+03  0.24311072229E+03  0.80498317208E+02 0.  0.
          6    2    1    2  501    0 -0.87399542138E+02 -0.64333992343E+02 -0.16364549560E+03  0.25867731122E+03  0.16839406335E+03 0.  0.
         24    2    5    5    0    0 -0.92328247448E+02 -0.18788799438E+02 -0.45585594732E+02  0.13195364758E+03  0.80350447425E+02 0.  0.
          5    1    5    5  501    0  0.49287053102E+01 -0.45545192905E+02 -0.11805990087E+03  0.12672366364E+03  0.47000000000E+01 0. -1.
        -11    1    6    6    0    0 -0.26152885497E+02 -0.26336776752E+02 -0.53250863821E+02  0.64909581167E+02  0.00000000000E+00 0.  1.
         12    1    6    6    0    0 -0.66175361951E+02  0.75479773148E+01  0.76652690897E+01  0.67044066413E+02  0.00000000000E+00 0. -1.
         -5    1    3    3    0  503  0.85965113036E+02 -0.11828196019E+02 -0.92140212912E+02  0.12665628968E+03  0.47000000000E+01 0.  1.
         13    1    4    4    0    0 -0.58553715036E+01  0.30498055334E+02 -0.18413736430E+03  0.18673774575E+03  0.00000000000E+00 0. -1.
        -14    1    4    4    0    0  0.72898006058E+01  0.45664133028E+02 -0.32242181164E+02  0.56372976543E+02  0.00000000000E+00 0.  1.
</event>
<event>
12    1  0.8421768E-002  0.1947565E+03  0.7818608E-02  0.1154253E+00
         21   -1    0    0  501  502  0.00000000000E+00  0.00000000000E+00  0.27944173763E+03  0.27944173763E+03  0.00000000000E+00 0. -1.
         21   -1    0    0  502  503 -0.00000000000E+00 -0.00000000000E+00 -0.67372208960E+03  0.67372208960E+03  0.00000000000E+00 0.  1.
         -6    2    1    2    0  503 -0.33666200502E+02  0.85068003474E+02 -0.62303856988E+03  0.65276884771E+03  0.17193059850E+03 0.  0.
        -24    2    3    3    0    0 -0.65080572269E+02  0.76753460554E+01 -0.24974744811E+03  0.27021840950E+03  0.79685689881E+02 0.  0.
          6    2    1    2  501    0  0.33666200502E+02 -0.85068003474E+02  0.22875821791E+03  0.30039497952E+03  0.17186286156E+03 0.  0.
         24    2    5    5    0    0  0.66854200802E+02 -0.84495380653E+02  0.22927287432E+03  0.26686698924E+03  0.83922497175E+02 0.  0.
          5    1    5    5  501    0 -0.33188000300E+02 -0.57262282105E+00 -0.51465640311E+00  0.33527990277E+02  0.47000000000E+01 0. -1.
        -13    1    6    6    0    0  0.70715413742E+02 -0.56928379935E+02  0.10183899574E+03  0.13642833736E+03  0.00000000000E+00 0.  1.
         14    1    6    6    0    0 -0.38612129396E+01 -0.27567000717E+02  0.12743387858E+03  0.13043865188E+03  0.00000000000E+00 0. -1.
         -5    1    3    3    0  503  0.31414371767E+02  0.77392657418E+02 -0.37329112178E+03  0.38255043821E+03  0.47000000000E+01 0.  1.
         11    1    4    4    0    0  0.69863270714E+01 -0.73773081209E+01 -0.33393218243E+00  0.10165871914E+02  0.00000000000E+00 0. -1.
        -12    1    4    4    0    0 -0.72066899341E+02  0.15052654176E+02 -0.24941351593E+03  0.26005253759E+03  0.00000000000E+00 0.  1.
</event>
<event>
12    1  0.8421768E-002  0.1946494E+03  0.7818608E-02  0.1154479E+00
         21   -1    0    0  503  502  0.00000000000E+00  0.00000000000E+00  0.51843890358E+03  0.51843890358E+03  0.00000000000E+00 0. -1.
         21   -1    0    0  501  503 -0.00000000000E+00 -0.00000000000E+00 -0.73929123862E+02  0.73929123862E+02  0.00000000000E+00 0. -1.
          6    2    1    2  501    0 -0.76932616677E+02 -0.47557573548E+02  0.18579666974E+03  0.26860752685E+03  0.17160783980E+03 0.  0.
         24    2    3    3    0    0 -0.56709561354E+02  0.35471073793E+02  0.11705454627E+03  0.15883367848E+03  0.83977373099E+02 0.  0.
         -6    2    1    2    0  502  0.76932616677E+02  0.47557573548E+02  0.25871310998E+03  0.32376050060E+03  0.17236019889E+03 0.  0.
        -24    2    5    5    0    0  0.11465893127E+03  0.60927042056E+02  0.17375957019E+03  0.22973278434E+03  0.75670264935E+02 0.  0.
          5    1    3    3  501    0 -0.20223055322E+02 -0.83028647341E+02  0.68742123468E+02  0.10977384836E+03  0.47000000000E+01 0. -1.
        -11    1    4    4    0    0  0.21275362177E+02  0.14423976895E+02  0.20032360817E+02  0.32588151606E+02  0.00000000000E+00 0.  1.
         12    1    4    4    0    0 -0.77984923531E+02  0.21047096898E+02  0.97022185454E+02  0.12624552688E+03  0.00000000000E+00 0. -1.
         -5    1    5    5    0  502 -0.37726314594E+02 -0.13369468508E+02  0.84953539788E+02  0.94027716252E+02  0.47000000000E+01 0.  1.
         11    1    6    6    0    0  0.78396347732E+02  0.48071712216E+02  0.16703374044E+03  0.19067550261E+03  0.00000000000E+00 0. -1.
        -12    1    6    6    0    0  0.36262583539E+02  0.12855329839E+02  0.67258297553E+01  0.39057281729E+02  0.00000000000E+00 0.  1.
</event>
<event>
12    1  0.8421768E-002  0.1874425E+03  0.7818608E-02  0.1160917E+00
         21   -1    0    0  501  502  0.00000000000E+00  0.00000000000E+00  0.26183408888E+03  0.26183408888E+03  0.00000000000E+00 0. -1.
         21   -1    0    0  502  503 -0.00000000000E+00 -0.00000000000E+00 -0.21171685716E+03  0.21171685716E+03  0.00000000000E+00 0. -1.
         -6    2    1    2    0  503 -0.62520608075E+02 -0.43580455943E+02 -0.11857011789E+03  0.22179626283E+03  0.17125018767E+03 0.  0.
        -24    2    3    3    0    0 -0.10785745711E+03 -0.48530356813E+02 -0.93267775348E+02  0.16942995747E+03  0.77583541976E+02 0.  0.
          6    2    1    2  501    0  0.62520608075E+02  0.43580455943E+02  0.16868734961E+03  0.25175468321E+03  0.17063679563E+03 0.  0.
         24    2    5    5    0    0 -0.30346808420E+02  0.10892617888E+02  0.10551473928E+03  0.13468324989E+03  0.77244026888E+02 0.  0.
          5    1    5    5  501    0  0.92867416495E+02  0.32687838055E+02  0.63172610325E+02  0.11707143331E+03  0.47000000000E+01 0. -1.
        -13    1    6    6    0    0 -0.40164053535E+02 -0.19866347226E+02  0.85954107562E+02  0.96932613475E+02  0.00000000000E+00 0.  1.
         14    1    6    6    0    0  0.98172451151E+01  0.30758965113E+02  0.19560631719E+02  0.37750636415E+02  0.00000000000E+00 0. -1.
         -5    1    3    3    0  503  0.45336849031E+02  0.49499008703E+01 -0.25302342545E+02  0.52366305359E+02  0.47000000000E+01 0.  1.
         11    1    4    4    0    0 -0.64351305922E+02 -0.52328113795E+02 -0.94506234211E+02  0.12574080631E+03  0.00000000000E+00 0. -1.
        -12    1    4    4    0    0 -0.43506151184E+02  0.37977569817E+01  0.12384588626E+01  0.43689151163E+02  0.00000000000E+00 0.  1.
</event>
<event>
12    1  0.8421768E-002  0.1923880E+03  0.7818608E-02  0.1156448E+00
         21   -1    0    0  501  502  0.00000000000E+00  0.00000000000E+00  0.46619345338E+02  0.46619345338E+02  0.00000000000E+00 0.  1.
         21   -1    0    0  502  503 -0.00000000000E+00 -0.00000000000E+00 -0.86700672770E+03  0.86700672770E+03  0.00000000000E+00 0.  1.
         -6    2    1    2    0  503  0.62205274248E+02 -0.58053126053E+02 -0.54539483052E+03  0.57833266114E+03  0.17254994697E+03 0.  0.
        -24    2    3    3    0    0  0.16676857784E+02 -0.92056896588E+02 -0.43868719739E+03  0.45734628966E+03  0.89255709718E+02 0.  0.
          6    2    1    2  501    0 -0.62205274248E+02  0.58053126053E+02 -0.27499255185E+03  0.33529341190E+03  0.17193343742E+03 0.  0.
         24    2    5    5    0    0 -0.23621712459E+02 -0.81305259256E+01 -0.23331186078E+03  0.24795306019E+03  0.80138660607E+02 0.  0.
          5    1    5    5  501    0 -0.38583561789E+02  0.66183651979E+02 -0.41680691069E+02  0.87340351714E+02  0.47000000000E+01 0. -1.
        -13    1    6    6    0    0 -0.30913966683E+02 -0.39670469483E+02 -0.16222797864E+03  0.16984503684E+03  0.00000000000E+00 0.  1.
         14    1    6    6    0    0  0.72922542240E+01  0.31539943557E+02 -0.71083882144E+02  0.78108023351E+02  0.00000000000E+00 0. -1.
         -5    1    3    3    0  503  0.45528416464E+02  0.34003770535E+02 -0.10670763313E+03  0.12098637148E+03  0.47000000000E+01 0.  1.
         11    1    4    4    0    0 -0.31442262189E+02 -0.40147600993E+02 -0.26370563085E+03  0.26859096310E+03  0.00000000000E+00 0. -1.
        -12    1    4    4    0    0  0.48119119973E+02 -0.51909295595E+02 -0.17498156654E+03  0.18875532656E+03  0.00000000000E+00 0.  1.
</event>
<event>
12    1  0.8421768E-002  0.2450839E+03  0.7818608E-02  0.1116871E+00
         21   -1    0    0  501  502  0.00000000000E+00  0.00000000000E+00  0.33389469945E+03  0.33389469945E+03  0.00000000000E+00 0. -1.
         21   -1    0    0  502  503 -0.00000000000E+00 -0.00000000000E+00 -0.19450060526E+03  0.19450060526E+03  0.00000000000E+00 0.  1.
         -6    2    1    2    0  503 -0.17035886884E+03  0.20188946683E+02 -0.75587500326E+01  0.24263092553E+03  0.17141439135E+03 0.  0.
        -24    2    3    3    0    0 -0.13743304047E+03 -0.40942970800E+02  0.26470176434E+02  0.16516300091E+03  0.77549849501E+02 0.  0.
          6    2    1    2  501    0  0.17035886884E+03 -0.20188946683E+02  0.14695284422E+03  0.28576437917E+03  0.17503258045E+03 0.  0.
         24    2    5    5    0    0  0.25871783449E+02  0.15281183788E+02  0.18171190247E+02  0.88935894441E+02  0.81710081436E+02 0.  0.
          5    1    5    5  501    0  0.14448708540E+03 -0.35470130471E+02  0.12878165397E+03  0.19682848473E+03  0.47000000000E+01 0. -1.
        -13    1    6    6    0    0  0.23689237021E+02  0.47814083903E+02  0.18046056861E+02  0.56329625761E+02  0.00000000000E+00 0.  1.
         14    1    6    6    0    0  0.21825464273E+01 -0.32532900116E+02  0.12513338575E+00  0.32606268680E+02  0.00000000000E+00 0. -1.
         -5    1    3    3    0  503 -0.32925828372E+02  0.61131917483E+02 -0.34028926466E+02  0.77467924625E+02  0.47000000000E+01 0.  1.
         11    1    4    4    0    0 -0.58111442188E+02  0.11208406367E+02  0.36771616432E+02  0.69675819776E+02  0.00000000000E+00 0. -1.
        -12    1    4    4    0    0 -0.79321598284E+02 -0.52151377167E+02 -0.10301439998E+02  0.95487181133E+02  0.00000000000E+00 0.  1.
</event>
<event>
12    1  0.8421768E-002  0.2305147E+03  0.7818608E-02  0.1127139E+00
         21   -1    0    0  503  502  0.00000000000E+00  0.00000000000E+00  0.24651688427E+03  0.24651688427E+03  0.00000000000E+00 0. -1.
         21   -1    0    0  501  503 -0.00000000000E+00 -0.00000000000E+00 -0.73703742719E+03  0.73703742719E+03  0.00000000000E+00 0. -1.
          6    2    1    2  501    0  0.56901812241E+02  0.14219668297E+03 -0.65995360885E+03  0.69746940754E+03  0.16573199974E+03 0.  0.
         24    2    3    3    0    0 -0.32909734598E+01  0.10991474321E+03 -0.27711854231E+03  0.30856058371E+03  0.79516451400E+02 0.  0.
         -6    2    1    2    0  502 -0.56901812241E+02 -0.14219668297E+03  0.16943306593E+03  0.28608490391E+03  0.17227679918E+03 0.  0.
        -24    2    5    5    0    0 -0.25896825087E+02 -0.14447046742E+03  0.18655109796E+03  0.25028551363E+03  0.79367277122E+02 0.  0.
          5    1    3    3  501    0  0.60192785700E+02  0.32281939757E+02 -0.38283506654E+03  0.38890882383E+03  0.47000000000E+01 0. -1.
        -13    1    4    4    0    0  0.20357997005E+01  0.17668902019E+02 -0.14800872094E+01  0.17847275342E+02  0.00000000000E+00 0.  1.
         14    1    4    4    0    0 -0.53267731602E+01  0.92245841189E+02 -0.27563845510E+03  0.29071330837E+03  0.00000000000E+00 0. -1.
         -5    1    5    5    0  502 -0.31004987153E+02  0.22737844577E+01 -0.17118032029E+02  0.35799390284E+02  0.47000000000E+01 0.  1.
         13    1    6    6    0    0 -0.48656977902E+02 -0.10309875174E+03  0.99796462513E+02  0.15151299627E+03  0.00000000000E+00 0. -1.
        -14    1    6    6    0    0  0.22760152815E+02 -0.41371715684E+02  0.86754635444E+02  0.98772517361E+02  0.00000000000E+00 0.  1.
</event>
<event>
12    1  0.8421768E-002  0.2444468E+03  0.7818608E-02  0.1117180E+00
         21   -1    0    0  503  502  0.00000000000E+00  0.00000000000E+00  0.17613928523E+04  0.17613928523E+04  0.00000000000E+00 0.  1.
         21   -1    0    0  501  503 -0.00000000000E+00 -0.00000000000E+00 -0.35873325825E+02  0.35873325825E+02  0.00000000000E+00 0. -1.
          6    2    1    2  501    0  0.17167696092E+03  0.18802549182E+01  0.63622508713E+03  0.68088067045E+03  0.17128809540E+03 0.  0.
         24    2    3    3    0    0  0.13479039081E+03  0.18829280814E+02  0.61487038551E+03  0.63477208324E+03  0.79668158041E+02 0.  0.
         -6    2    1    2    0  502 -0.17167696092E+03 -0.18802549182E+01  0.10892944393E+04  0.11163855076E+04  0.17400491915E+03 0.  0.
        -24    2    5    5    0    0 -0.10284943485E+03 -0.43507821470E+02  0.40157506004E+03  0.42396214201E+03  0.77526977476E+02 0.  0.
          5    1    3    3  501    0  0.36886570112E+02 -0.16949025896E+02  0.21354701616E+02  0.46108587211E+02  0.47000000000E+01 0. -1.
        -13    1    4    4    0    0  0.49495057309E+02  0.46589760591E+02  0.27120452267E+03  0.27959302496E+03  0.00000000000E+00 0.  1.
         14    1    4    4    0    0  0.85295333502E+02 -0.27760479777E+02  0.34366586284E+03  0.35517905827E+03  0.00000000000E+00 0. -1.
         -5    1    5    5    0  502 -0.68827526074E+02  0.41627566551E+02  0.68771937927E+03  0.69242336562E+03  0.47000000000E+01 0.  1.
         13    1    6    6    0    0 -0.70708816437E+02  0.51482887814E+01  0.15282968812E+03  0.16847301021E+03  0.00000000000E+00 0. -1.
        -14    1    6    6    0    0 -0.32140618414E+02 -0.48656110251E+02  0.24874537192E+03  0.25548913180E+03  0.00000000000E+00 0.  1.
</event>
<event>
12    1  0.8421768E-002  0.2230585E+03  0.7818608E-02  0.1133633E+00
         21   -1    0    0  503  502  0.00000000000E+00  0.00000000000E+00  0.50836333183E+02  0.50836333183E+02  0.00000000000E+00 0.  1.
         21   -1    0    0  501  503 -0.00000000000E+00 -0.00000000000E+00 -0.12797688853E+04  0.12797688853E+04  0.00000000000E+00 0.  1.
          6    2    1    2  501    0 -0.37019633850E+01  0.12628383733E+03 -0.97201968172E+03  0.99728500322E+03  0.18383091115E+03 0.  0.
         24    2    3    3    0    0  0.27277570796E+02  0.64294972708E+01 -0.57752405245E+03  0.58379535899E+03  0.80607603378E+02 0.  0.
         -6    2    1    2    0  502  0.37019633850E+01 -0.12628383733E+03 -0.25691287038E+03  0.33332021524E+03  0.17069514000E+03 0.  0.
        -24    2    5    5    0    0  0.62699794038E+02 -0.10051182318E+03 -0.21025864638E+03  0.25367319802E+03  0.78150510209E+02 0.  0.
          5    1    3    3  501    0 -0.30979534181E+02  0.11985434006E+03 -0.39449562927E+03  0.41348964423E+03  0.47000000000E+01 0. -1.
        -13    1    4    4    0    0 -0.19846138253E+02  0.22642554592E+02 -0.12685092851E+03  0.13037527582E+03  0.00000000000E+00 0.  1.
         14    1    4    4    0    0  0.47123709050E+02 -0.16213057321E+02 -0.45067312394E+03  0.45342008317E+03  0.00000000000E+00 0. -1.
         -5    1    5    5    0  502 -0.58997830653E+02 -0.25772014147E+02 -0.46654223996E+02  0.79647017218E+02  0.47000000000E+01 0.  1.
         13    1    6    6    0    0 -0.10125967078E+02 -0.54583409924E+02 -0.90662549046E+02  0.10630889731E+03  0.00000000000E+00 0. -1.
        -14    1    6    6    0    0  0.72825761116E+02 -0.45928413257E+02 -0.11959609733E+03  0.14736430071E+03  0.00000000000E+00 0.  1.
</event>
<event>
12    1  0.8421768E-002  0.1916441E+03  0.7818608E-02  0.1157214E+00
         21   -1    0    0  503  502  0.00000000000E+00  0.00000000000E+00  0.14091558850E+04  0.14091558850E+04  0.00000000000E+00 0. -1.
         21   -1    0    0  501  503 -0.00000000000E+00 -0.00000000000E+00 -0.41237347118E+02  0.41237347118E+02  0.00000000000E+00 0.  1.
          6    2    1    2  501    0 -0.69114593084E+02 -0.45545844358E+02  0.24091804187E+03  0.30721451123E+03  0.17172070957E+03 0.  0.
         24    2    3    3    0    0 -0.89863473921E+01  0.25489218051E+02  0.64503149392E+02  0.10770087683E+03  0.81904626931E+02 0.  0.
         -6    2    1    2    0  502  0.69114593084E+02  0.45545844358E+02  0.11270004960E+04  0.11431787209E+04  0.17284738635E+03 0.  0.
        -24    2    5    5    0    0  0.30324428852E+02  0.87752960517E+01  0.10198856238E+04  0.10233770685E+04  0.78341316735E+02 0.  0.
          5    1    3    3  501    0 -0.60128245692E+02 -0.71035062409E+02  0.17641489248E+03  0.19951363440E+03  0.47000000000E+01 0. -1.
        -11    1    4    4    0    0  0.13459336147E+02 -0.24689103810E+02  0.88550970236E+01  0.29480812739E+02  0.00000000000E+00 0.  1.
         12    1    4    4    0    0 -0.22445683539E+02  0.50178321861E+02  0.55648052368E+02  0.78220064093E+02  0.00000000000E+00 0. -1.
         -5    1    5    5    0  502  0.38790164232E+02  0.36770548307E+02  0.10711487219E+03  0.11980165236E+03  0.47000000000E+01 0.  1.
         11    1    6    6    0    0  0.27416395434E+02  0.42168156265E+02  0.54855140128E+03  0.55085247752E+03  0.00000000000E+00 0. -1.
        -12    1    6    6    0    0  0.29080334179E+01 -0.33392860213E+02  0.47133422256E+03  0.47252459103E+03  0.00000000000E+00 0.  1.
</event>
<event>
12    1  0.8421768E-002  0.3457629E+03  0.7818608E-02  0.1064368E+00
         21   -1    0    0  503  502  0.00000000000E+00  0.00000000000E+00  0.55543324496E+03  0.55543324496E+03  0.00000000000E+00 0.  1.
         21   -1    0    0  501  503 -0.00000000000E+00 -0.00000000000E+00 -0.22461174653E+03  0.22461174653E+03  0.00000000000E+00 0. -1.
          6    2    1    2  501    0 -0.22536014000E+03 -0.19802079957E+03  0.24508435757E+03  0.42381073038E+03  0.17190044530E+03 0.  0.
         24    2    3    3    0    0 -0.15096982794E+03 -0.15596473611E+03  0.24649350677E+03  0.33821454644E+03  0.80704043816E+02 0.  0.
         -6    2    1    2    0  502  0.22536014000E+03  0.19802079957E+03  0.85737140866E+02  0.35623426111E+03  0.17190858531E+03 0.  0.
        -24    2    5    5    0    0  0.15189122242E+03  0.20014104597E+03  0.32002299699E+02  0.26506573337E+03  0.78155704156E+02 0.  0.
          5    1    3    3  501    0 -0.74390312063E+02 -0.42056063465E+02 -0.14091492024E+01  0.85596183937E+02  0.47000000000E+01 0. -1.
        -11    1    4    4    0    0 -0.14809925332E+03 -0.14820555164E+03  0.19552957858E+03  0.28658347906E+03  0.00000000000E+00 0.  1.
         12    1    4    4    0    0 -0.28705746194E+01 -0.77591844665E+01  0.50963928195E+02  0.51631067385E+02  0.00000000000E+00 0. -1.
         -5    1    5    5    0  502  0.73468917584E+02 -0.21202463973E+01  0.53734841167E+02  0.91168527744E+02  0.47000000000E+01 0.  1.
         13    1    6    6    0    0 -0.12882557326E+01 -0.30633530535E+01  0.89555585752E+01  0.95522648705E+01  0.00000000000E+00 0. -1.
        -14    1    6    6    0    0  0.15317947815E+03  0.20320439902E+03  0.23046741124E+02  0.25551346850E+03  0.00000000000E+00 0.  1.
</event>
<event>
12    1  0.8421768E-002  0.1913550E+03  0.7818608E-02  0.1157468E+00
         21   -1    0    0  501  502  0.00000000000E+00  0.00000000000E+00  0.83236511802E+02  0.83236511802E+02  0.00000000000E+00 0. -1.
         21   -1    0    0  502  503 -0.00000000000E+00 -0.00000000000E+00 -0.19418293061E+04  0.19418293061E+04  0.00000000000E+00 0. -1.
         -6    2    1    2    0  503 -0.81413648055E+02 -0.13350548498E+02 -0.18210059480E+04  0.18310323345E+04  0.17265667618E+03 0.  0.
        -24    2    3    3    0    0 -0.10615969200E+03 -0.52793935353E+02 -0.14312671683E+04  0.14384937327E+04  0.81740027509E+02 0.  0.
          6    2    1    2  501    0  0.81413648055E+02  0.13350548498E+02 -0.37586846256E+02  0.19403348343E+03  0.17155116568E+03 0.  0.
         24    2    5    5    0    0  0.56868367782E+02  0.46860595273E+02  0.32206031868E+02  0.11267913595E+03  0.78926754305E+02 0.  0.
          5    1    5    5  501    0  0.24545280273E+02 -0.33510046775E+02 -0.69792878124E+02  0.81354347489E+02  0.47000000000E+01 0. -1.
        -11    1    6    6    0    0  0.50396039237E+02  0.33871995938E+02 -0.15621455459E+02  0.62698506762E+02  0.00000000000E+00 0.  1.
         12    1    6    6    0    0  0.64723285453E+01  0.12988599335E+02  0.47827487327E+02  0.49980629183E+02  0.00000000000E+00 0. -1.
         -5    1    3    3    0  503  0.24746043941E+02  0.39443386855E+02 -0.38973877975E+03  0.39253860180E+03  0.47000000000E+01 0.  1.
         11    1    4    4    0    0 -0.54437366913E+02 -0.69235550881E+02 -0.98758690544E+03  0.99150637124E+03  0.00000000000E+00 0. -1.
        -12    1    4    4    0    0 -0.51722325084E+02  0.16441615528E+02 -0.44368026286E+03  0.44698736143E+03  0.00000000000E+00 0.  1.
</event>
<event>
12    1  0.8421768E-002  0.1824883E+03  0.7818608E-02  0.1165567E+00
         21   -1    0    0  501  502  0.00000000000E+00  0.00000000000E+00  0.14830978424E+03  0.14830978424E+03  0.00000000000E+00 0. -1.
         21   -1    0    0  502  503 -0.00000000000E+00 -0.00000000000E+00 -0.79401665746E+03  0.79401665746E+03  0.00000000000E+00 0. -1.
         -6    2    1    2    0  503 -0.14514540004E+02 -0.56505126433E+02 -0.72198631522E+03  0.74453730351E+03  0.17224417486E+03 0.  0.
        -24    2    3    3    0    0 -0.70996409702E+02 -0.21680762294E+02 -0.34843055094E+03  0.36510491563E+03  0.79919990928E+02 0.  0.
          6    2    1    2  501    0  0.14514540004E+02  0.56505126433E+02  0.76279441996E+02  0.19778913819E+03  0.17291179465E+03 0.  0.
         24    2    5    5    0    0 -0.51121623486E+02  0.88569306195E+01  0.29334504643E+02  0.10395751418E+03  0.85175031454E+02 0.  0.
          5    1    5    5  501    0  0.65636163490E+02  0.47648195813E+02  0.46944937353E+02  0.93831624013E+02  0.47000000000E+01 0. -1.
        -13    1    6    6    0    0 -0.97506859622E+00  0.40191848394E+02  0.73424700068E+01  0.40868659164E+02  0.00000000000E+00 0.  1.
         14    1    6    6    0    0 -0.50146554890E+02 -0.31334917774E+02  0.21992034637E+02  0.63088855012E+02  0.00000000000E+00 0. -1.
         -5    1    3    3    0  503  0.56481869698E+02 -0.34824364139E+02 -0.37355576428E+03  0.37943238788E+03  0.47000000000E+01 0.  1.
         13    1    4    4    0    0 -0.90017760756E+01 -0.12891909531E+02 -0.23511890919E+03  0.23564408493E+03  0.00000000000E+00 0. -1.
        -14    1    4    4    0    0 -0.61994633627E+02 -0.87888527626E+01 -0.11331164175E+03  0.12946083071E+03  0.00000000000E+00 0.  1.
</event>
<event>
12    1  0.8421768E-002  0.1787698E+03  0.7818608E-02  0.1168999E+00
         21   -1    0    0  501  502  0.00000000000E+00  0.00000000000E+00  0.92597684847E+02  0.92597684847E+02  0.00000000000E+00 0. -1.
         21   -1    0    0  502  503 -0.00000000000E+00 -0.00000000000E+00 -0.55657682932E+03  0.55657682932E+03  0.00000000000E+00 0. -1.
         -6    2    1    2    0  503 -0.37024350567E+02 -0.30998326247E+02 -0.43205220199E+03  0.46757644840E+03  0.17212475442E+03 0.  0.
        -24    2    3    3    0    0 -0.29582712136E+02 -0.31061117275E+02 -0.93827663651E+02  0.12923740208E+03  0.77837945547E+02 0.  0.
          6    2    1    2  501    0  0.37024350567E+02  0.30998326247E+02 -0.31926942478E+02  0.18159806577E+03  0.17212445808E+03 0.  0.
         24    2    5    5    0    0  0.13074438890E+02  0.23168265658E+02  0.48461270268E+02  0.97222341375E+02  0.79974867681E+02 0.  0.
          5    1    5    5  501    0  0.23949911677E+02  0.78300605890E+01 -0.80388212746E+02  0.84375724392E+02  0.47000000000E+01 0. -1.
        -11    1    6    6    0    0  0.26285870183E+02  0.45621358872E+02  0.14867817121E+02  0.54711126313E+02  0.00000000000E+00 0.  1.
         12    1    6    6    0    0 -0.13211431293E+02 -0.22453093213E+02  0.33593453147E+02  0.42511215062E+02  0.00000000000E+00 0. -1.
         -5    1    3    3    0  503 -0.74416384309E+01  0.62791028165E-01 -0.33822453834E+03  0.33833904632E+03  0.47000000000E+01 0.  1.
         13    1    4    4    0    0  0.18185427349E+02 -0.74446137917E+00 -0.61369227544E+02  0.64011296502E+02  0.00000000000E+00 0. -1.
        -14    1    4    4    0    0 -0.47768139485E+02 -0.30316655896E+02 -0.32458436107E+02  0.65226105580E+02  0.00000000000E+00 0.  1.
</event>
<event>
12    1  0.8421768E-002  0.2264296E+03  0.7818608E-02  0.1129222E+00
         21   -1    0    0  503  502  0.00000000000E+00  0.00000000000E+00  0.59478849099E+03  0.59478849099E+03  0.00000000000E+00 0.  1.
         21   -1    0    0  501  503 -0.00000000000E+00 -0.00000000000E+00 -0.16808236556E+03  0.16808236556E+03  0.00000000000E+00 0.  1.
          6    2    1    2  501    0 -0.13497127159E+03  0.57066157867E+02 -0.53084706644E+02  0.23233374715E+03  0.17229971984E+03 0.  0.
         24    2    3    3    0    0 -0.10923714989E+03  0.10337572986E+03 -0.54828087701E+02  0.17911767011E+03  0.80359965807E+02 0.  0.
         -6    2    1    2    0  502  0.13497127159E+03 -0.57066157867E+02  0.47979083208E+03  0.53053710940E+03  0.17261689190E+03 0.  0.
        -24    2    5    5    0    0  0.94495721060E+02 -0.12810136952E+02  0.14848922160E+03  0.19381806823E+03  0.80142708546E+02 0.  0.
          5    1    3    3  501    0 -0.25734121701E+02 -0.46309571994E+02  0.17433810575E+01  0.53216077040E+02  0.47000000000E+01 0. -1.
        -11    1    4    4    0    0 -0.91068703485E+02  0.36434232676E+02 -0.48624992388E+02  0.10947763219E+03  0.00000000000E+00 0.  1.
         12    1    4    4    0    0 -0.18168446405E+02  0.66941497185E+02 -0.62030953132E+01  0.69640037921E+02  0.00000000000E+00 0. -1.
         -5    1    5    5    0  502  0.40475550530E+02 -0.44256020915E+02  0.33130161048E+03  0.33671904117E+03  0.47000000000E+01 0.  1.
         11    1    6    6    0    0  0.26170521119E+02 -0.17813817258E+02  0.15532757875E+01  0.31696071154E+02  0.00000000000E+00 0. -1.
        -12    1    6    6    0    0  0.68325199941E+02  0.50036803065E+01  0.14693594581E+03  0.16212199707E+03  0.00000000000E+00 0.  1.
</event>
<event>
12    1  0.8421768E-002  0.1982184E+03  0.7818608E-02  0.1151549E+00
         21   -1    0    0  501  502  0.00000000000E+00  0.00000000000E+00  0.81010558844E+03  0.81010558844E+03  0.00000000000E+00 0. -1.
         21   -1    0    0  502  503 -0.00000000000E+00 -0.00000000000E+00 -0.77255260294E+02  0.77255260294E+02  0.00000000000E+00 0. -1.
         -6    2    1    2    0  503 -0.55360569325E+01 -0.96343827928E+02  0.93347169521E+02  0.21784250025E+03  0.17154847639E+03 0.  0.
        -24    2    3    3    0    0  0.36341531782E+02  0.22926726832E+01  0.19694590930E+02  0.87728381021E+02  0.77346161148E+02 0.  0.
          6    2    1    2  501    0  0.55360569325E+01  0.96343827928E+02  0.63950315862E+03  0.66951834848E+03  0.17314083274E+03 0.  0.
         24    2    5    5    0    0  0.18104298104E+02  0.32146645962E+02  0.14111020818E+03  0.16682872067E+03  0.80984929041E+02 0.  0.
          5    1    5    5  501    0 -0.12568241172E+02  0.64197181966E+02  0.49839295045E+03  0.50268962781E+03  0.47000000000E+01 0. -1.
        -13    1    6    6    0    0 -0.10427219579E+02 -0.16595645220E+02  0.84945899157E+02  0.87177681387E+02  0.00000000000E+00 0.  1.
         14    1    6    6    0    0  0.28531517683E+02  0.48742291182E+02  0.56164309021E+02  0.79651039282E+02  0.00000000000E+00 0. -1.
         -5    1    3    3    0  503 -0.41877588715E+02 -0.98636500611E+02  0.73652578592E+02  0.13011411923E+03  0.47000000000E+01 0.  1.
         13    1    4    4    0    0 -0.52396439219E+01 -0.30786359663E+02  0.49800925308E+00  0.31233024557E+02  0.00000000000E+00 0. -1.
        -14    1    4    4    0    0  0.41581175704E+02  0.33079032346E+02  0.19196581676E+02  0.56495356464E+02  0.00000000000E+00 0.  1.
</event>
<event>
12    1  0.8421768E-002  0.1756940E+03  0.7818608E-02  0.1172257E+00
         21   -1    0    0  503  502  0.00000000000E+00  0.00000000000E+00  0.17420123340E+04  0.17420123340E+04  0.00000000000E+00 0.  1.
         21   -1    0    0  501  503 -0.00000000000E+00 -0.00000000000E+00 -0.19906295536E+02  0.19906295536E+02  0.00000000000E+00 0.  1.
          6    2    1    2  501    0 -0.26348556115E+02  0.21766158745E+02  0.56130671418E+03  0.58789841934E+03  0.17143894543E+03 0.  0.
         24    2    3    3    0    0  0.30339034549E+02 -0.36954104166E+02  0.25180121129E+03  0.26777766317E+03  0.77556199340E+02 0.  0.
         -6    2    1    2    0  502  0.26348556115E+02 -0.21766158745E+02  0.11607993243E+04  0.11740202102E+04  0.17233795461E+03 0.  0.
        -24    2    5    5    0    0  0.40335767067E+02  0.78893006008E+01  0.11081542896E+04  0.11118215124E+04  0.80323910123E+02 0.  0.
          5    1    3    3  501    0 -0.56687590665E+02  0.58720262911E+02  0.30950550289E+03  0.32012075617E+03  0.47000000000E+01 0. -1.
        -13    1    4    4    0    0  0.46972960534E+02 -0.49345630562E+01  0.19377167289E+03  0.19944490505E+03  0.00000000000E+00 0.  1.
         14    1    4    4    0    0 -0.16633925985E+02 -0.32019541110E+02  0.58029538392E+02  0.68332758122E+02  0.00000000000E+00 0. -1.
         -5    1    5    5    0  502 -0.13987210952E+02 -0.29655459346E+02  0.52645034674E+02  0.62198697856E+02  0.47000000000E+01 0.  1.
         13    1    6    6    0    0  0.18910771454E+02 -0.14317754247E+01  0.51047410979E+02  0.54456454397E+02  0.00000000000E+00 0. -1.
        -14    1    6    6    0    0  0.21424995613E+02  0.93210760255E+01  0.10571068787E+04  0.10573650580E+04  0.00000000000E+00 0.  1.
</event>
<event>
12    1  0.8421768E-002  0.2344833E+03  0.7818608E-02  0.1123878E+00
         21   -1    0    0  503  502  0.00000000000E+00  0.00000000000E+00  0.20807799651E+03  0.20807799651E+03  0.00000000000E+00 0. -1.
         21   -1    0    0  501  503 -0.00000000000E+00 -0.00000000000E+00 -0.31310048784E+03  0.31310048784E+03  0.00000000000E+00 0. -1.
          6    2    1    2  501    0 -0.12143647469E+03 -0.10148004494E+03  0.53032721485E+02  0.23839963617E+03  0.17022602642E+03 0.  0.
         24    2    3    3    0    0 -0.27010716503E+02 -0.85479910187E+02 -0.11825201754E+02  0.12263751659E+03  0.82847638638E+02 0.  0.
         -6    2    1    2    0  502  0.12143647469E+03  0.10148004494E+03 -0.15805521281E+03  0.28277884818E+03  0.17302430400E+03 0.  0.
        -24    2    5    5    0    0  0.72329583058E+02  0.13077351937E+03 -0.84381998066E+02  0.18940097596E+03  0.80119449210E+02 0.  0.
          5    1    3    3  501    0 -0.94425758188E+02 -0.16000134754E+02  0.64857923239E+02  0.11576211957E+03  0.47000000000E+01 0. -1.
        -11    1    4    4    0    0 -0.16806593072E+02 -0.51238927612E+02 -0.47708390772E+02  0.71999859886E+02  0.00000000000E+00 0.  1.
         12    1    4    4    0    0 -0.10204123431E+02 -0.34240982575E+02  0.35883189018E+02  0.50637656707E+02  0.00000000000E+00 0. -1.
         -5    1    5    5    0  502  0.49106891633E+02 -0.29293474432E+02 -0.73673214744E+02  0.93377872223E+02  0.47000000000E+01 0.  1.
         13    1    6    6    0    0  0.32282447991E+02  0.75159326341E+02 -0.88791119621E+02  0.12072673154E+03  0.00000000000E+00 0. -1.
        -14    1    6    6    0    0  0.40047135067E+02  0.55614193033E+02  0.44091215556E+01  0.68674244420E+02  0.00000000000E+00 0.  1.
</event>
<event>
12    1  0.8421768E-002  0.2077694E+03  0.7818608E-02  0.1143400E+00
         21   -1    0    0  503  502  0.00000000000E+00  0.00000000000E+00  0.59179205400E+03  0.59179205400E+03  0.00000000000E+00 0. -1.
         21   -1    0    0  501  503 -0.00000000000E+00 -0.00000000000E+00 -0.81885211538E+02  0.81885211538E+02  0.00000000000E+00 0.  1.
          6    2    1    2  501    0  0.11526975396E+03  0.77210075867E+01  0.14320228618E+03  0.25233911314E+03  0.17268874636E+03 0.  0.
         24    2    3    3    0    0  0.76125945502E+01 -0.14718472679E+02  0.11054791397E+03  0.13752625554E+03  0.80112699656E+02 0.  0.
         -6    2    1    2    0  502 -0.11526975396E+03 -0.77210075867E+01  0.36670455628E+03  0.42133815240E+03  0.17235683024E+03 0.  0.
        -24    2    5    5    0    0 -0.59311691158E+02  0.54764228597E+02  0.14746761601E+03  0.18655605020E+03  0.80866956487E+02 0.  0.
          5    1    3    3  501    0  0.10765715941E+03  0.22439480266E+02  0.32654372208E+02  0.11481285760E+03  0.47000000000E+01 0. -1.
        -13    1    4    4    0    0  0.32796666724E+02 -0.45574865168E+01  0.11862661902E+02  0.35172642479E+02  0.00000000000E+00 0.  1.
         14    1    4    4    0    0 -0.25184072174E+02 -0.10160986162E+02  0.98685252070E+02  0.10235361306E+03  0.00000000000E+00 0. -1.
         -5    1    5    5    0  502 -0.55958062797E+02 -0.62485236184E+02  0.21923694027E+03  0.23478210220E+03  0.47000000000E+01 0.  1.
         13    1    6    6    0    0 -0.95604308435E+01 -0.21129984532E+02  0.24594129407E+02  0.33804574920E+02  0.00000000000E+00 0. -1.
        -14    1    6    6    0    0 -0.49751260315E+02  0.75894213129E+02  0.12287348660E+03  0.15275147528E+03  0.00000000000E+00 0.  1.
</event>
<event>
12    1  0.8421768E-002  0.1994468E+03  0.7818608E-02  0.1150330E+00
         21   -1    0    0  501  502  0.00000000000E+00  0.00000000000E+00  0.25234573521E+03  0.25234573521E+03  0.00000000000E+00 0.  1.
         21   -1    0    0  502  503 -0.00000000000E+00 -0.00000000000E+00 -0.19731222309E+03  0.19731222309E+03  0.00000000000E+00 0.  1.
         -6    2    1    2    0  503 -0.84197921023E+02 -0.55916599953E+02 -0.73916504567E+02  0.21215609680E+03  0.17126179874E+03 0.  0.
        -24    2    3    3    0    0 -0.48388505942E+02  0.35050841262E+02 -0.14616423743E+02  0.97718431867E+02  0.75929197961E+02 0.  0.
          6    2    1    2  501    0  0.84197921023E+02  0.55916599953E+02  0.12895001669E+03  0.23750186150E+03  0.17193915015E+03 0.  0.
         24    2    5    5    0    0  0.38373531836E+02  0.14020812161E+02  0.14784757639E+03  0.17243005930E+03  0.78766162689E+02 0.  0.
          5    1    5    5  501    0  0.45824389187E+02  0.41895787792E+02 -0.18897559702E+02  0.65071802201E+02  0.47000000000E+01 0. -1.
        -13    1    6    6    0    0  0.28792168010E+01 -0.25846821973E+02  0.90157554141E+02  0.93833536991E+02  0.00000000000E+00 0.  1.
         14    1    6    6    0    0  0.35494315035E+02  0.39867634134E+02  0.57690022253E+02  0.78596522307E+02  0.00000000000E+00 0. -1.
         -5    1    3    3    0  503 -0.35809415081E+02 -0.90967441215E+02 -0.59300080824E+02  0.11443766493E+03  0.47000000000E+01 0.  1.
         13    1    4    4    0    0 -0.63992067052E+02  0.10930521025E+02  0.11897359739E+01  0.64929780588E+02  0.00000000000E+00 0. -1.
        -14    1    4    4    0    0  0.15603561111E+02  0.24120320238E+02 -0.15806159717E+02  0.32788651279E+02  0.00000000000E+00 0.  1.
</event>
<event>
12    1  0.8421768E-002  0.2132857E+03  0.7818608E-02  0.1139853E+00
         21   -1    0    0  501  502  0.00000000000E+00  0.00000000000E+00  0.91932015814E+03  0.91932015814E+03  0.00000000000E+00 0. -1.
         21   -1    0    0  502  503 -0.00000000000E+00 -0.00000000000E+00 -0.55189376895E+02  0.55189376895E+02  0.00000000000E+00 0. -1.
         -6    2    1    2    0  503  0.97465406502E+02  0.73496402232E+02  0.25808273115E+03  0.33202605211E+03  0.16950922263E+03 0.  0.
        -24    2    3    3    0    0  0.11143338341E+03  0.12342529217E+02  0.21731882788E+03  0.25706815477E+03  0.79289509261E+02 0.  0.
          6    2    1    2  501    0 -0.97465406502E+02 -0.73496402232E+02  0.60604805009E+03  0.64248348292E+03  0.17489871412E+03 0.  0.
         24    2    5    5    0    0 -0.10812324839E+02 -0.48370000743E+02  0.16503885943E+03  0.19231541557E+03  0.85386360761E+02 0.  0.
          5    1    5    5  501    0 -0.86653081663E+02 -0.25126401489E+02  0.44100919067E+03  0.45016806735E+03  0.47000000000E+01 0. -1.
        -13    1    6    6    0    0  0.13194929132E+02  0.16397640497E+02  0.11568561171E+02  0.24017085090E+02  0.00000000000E+00 0.  1.
         14    1    6    6    0    0 -0.24007253971E+02 -0.64767641240E+02  0.15347029826E+03  0.16829833048E+03  0.00000000000E+00 0. -1.
         -5    1    3    3    0  503 -0.13967976911E+02  0.61153873015E+02  0.40763903266E+02  0.74957897337E+02  0.47000000000E+01 0.  1.
         13    1    4    4    0    0  0.58591263095E+02  0.39027981933E+02  0.74672625213E+02  0.10262611968E+03  0.00000000000E+00 0. -1.
        -14    1    4    4    0    0  0.52842120318E+02 -0.26685452716E+02  0.14264620267E+03  0.15444203509E+03  0.00000000000E+00 0.  1.
</event>
<event>
12    1  0.8421768E-002  0.2110492E+03  0.7818608E-02  0.1141709E+00
         21   -1    0    0  503  502  0.00000000000E+00  0.00000000000E+00  0.35247445901E+02  0.35247445901E+02  0.00000000000E+00 0.  1.
         21   -1    0    0  501  503 -0.00000000000E+00 -0.00000000000E+00 -0.13956150736E+04  0.13956150736E+04  0.00000000000E+00 0.  1.
          6    2    1    2  501    0 -0.93234410564E+02 -0.65313860508E+02 -0.91609316101E+03  0.93900729621E+03  0.17189958402E+03 0.  0.
         24    2    3    3    0    0 -0.26995216432E+02 -0.78535334324E+01 -0.20155894826E+03  0.21909719680E+03  0.81161273559E+02 0.  0.
         -6    2    1    2    0  502  0.93234410564E+02  0.65313860508E+02 -0.44427446671E+03  0.49185522332E+03  0.17771663751E+03 0.  0.
        -24    2    5    5    0    0  0.11812587152E+03  0.12325376017E+01 -0.28507037223E+03  0.31837890081E+03  0.78388562196E+02 0.  0.
          5    1    3    3  501    0 -0.66239194132E+02 -0.57460327076E+02 -0.71453421276E+03  0.71991009941E+03  0.47000000000E+01 0. -1.
        -11    1    4    4    0    0 -0.44883804713E+02 -0.28492107900E+02 -0.92684815030E+02  0.10684957218E+03  0.00000000000E+00 0.  1.
         12    1    4    4    0    0  0.17888588281E+02  0.20638574468E+02 -0.10887413323E+03  0.11224762462E+03  0.00000000000E+00 0. -1.
         -5    1    5    5    0  502 -0.24891460955E+02  0.64081322906E+02 -0.15920409447E+03  0.17347632251E+03  0.47000000000E+01 0.  1.
         13    1    6    6    0    0  0.57024187647E+02 -0.37691052517E+02 -0.11983497723E+03  0.13795939687E+03  0.00000000000E+00 0. -1.
        -14    1    6    6    0    0  0.61101683873E+02  0.38923590118E+02 -0.16523539501E+03  0.18041950394E+03  0.00000000000E+00 0.  1.
</event>
<event>
12    1  0.8421768E-002  0.1835926E+03  0.7818608E-02  0.1164612E+00
         21   -1    0    0  501  502  0.00000000000E+00  0.00000000000E+00  0.24317184373E+03  0.24317184373E+03  0.00000000000E+00 0.  1.
         21   -1    0    0  502  503 -0.00000000000E+00 -0.00000000000E+00 -0.21641817993E+03  0.21641817993E+03  0.00000000000E+00 0.  1.
         -6    2    1    2    0  503  0.63862672875E+02 -0.87417002401E+01 -0.12511041082E+03  0.22132769092E+03  0.17081707632E+03 0.  0.
        -24    2    3    3    0    0 -0.25319993905E+02  0.17670754484E+02 -0.82607061266E+02  0.11895684281E+03  0.79833866406E+02 0.  0.
          6    2    1    2  501    0 -0.63862672875E+02  0.87417002401E+01  0.15186407462E+03  0.23826233274E+03  0.17190515912E+03 0.  0.
         24    2    5    5    0    0 -0.21447379113E+02  0.43816333384E+02  0.15754355574E+03  0.18273185876E+03  0.78683537731E+02 0.  0.
          5    1    5    5  501    0 -0.42415293763E+02 -0.35074633144E+02 -0.56794811137E+01  0.55530473984E+02  0.47000000000E+01 0. -1.
        -13    1    6    6    0    0 -0.40330777733E+02 -0.41357926159E+01  0.78892400987E+02  0.88699985043E+02  0.00000000000E+00 0.  1.
         14    1    6    6    0    0  0.18883398620E+02  0.47952126000E+02  0.78651154748E+02  0.94031873716E+02  0.00000000000E+00 0. -1.
         -5    1    3    3    0  503  0.89182666780E+02 -0.26412454724E+02 -0.42503349552E+02  0.10237084811E+03  0.47000000000E+01 0.  1.
         13    1    4    4    0    0 -0.46568717324E+02  0.14299132966E+02 -0.19830985870E+02  0.52596374755E+02  0.00000000000E+00 0. -1.
        -14    1    4    4    0    0  0.21248723419E+02  0.33716215184E+01 -0.62776075395E+02  0.66360468056E+02  0.00000000000E+00 0.  1.
</event>
<event>
12    1  0.8421768E-002  0.2296312E+03  0.7818608E-02  0.1127770E+00
         21   -1    0    0  501  502  0.00000000000E+00  0.00000000000E+00  0.11221631667E+03  0.11221631667E+03  0.00000000000E+00 0. -1.
         21   -1    0    0  502  503 -0.00000000000E+00 -0.00000000000E+00 -0.46414664606E+03  0.46414664606E+03  0.00000000000E+00 0. -1.
         -6    2    1    2    0  503 -0.12441062489E+02 -0.14338577674E+03 -0.20516959218E+03  0.30793679455E+03  0.17893084383E+03 0.  0.
        -24    2    3    3    0    0 -0.61131496098E+00 -0.13320327696E+03 -0.66846812688E+02  0.16865683348E+03  0.78950265458E+02 0.  0.
          6    2    1    2  501    0  0.12441062489E+02  0.14338577674E+03 -0.14676073721E+03  0.26842616819E+03  0.17262570138E+03 0.  0.
         24    2    5    5    0    0  0.33767804882E+02  0.16672776479E+03 -0.10562902702E+03  0.21633407733E+03  0.81881191158E+02 0.  0.
          5    1    5    5  501    0 -0.21326742393E+02 -0.23341988053E+02 -0.41131710185E+02  0.52092090859E+02  0.47000000000E+01 0. -1.
        -11    1    6    6    0    0 -0.22844243851E+02  0.58578158993E+02 -0.57223183498E+02  0.85016192092E+02  0.00000000000E+00 0.  1.
         12    1    6    6    0    0  0.56612048733E+02  0.10814960580E+03 -0.48405843526E+02  0.13131788524E+03  0.00000000000E+00 0. -1.
         -5    1    3    3    0  503 -0.11829747528E+02 -0.10182499781E+02 -0.13832277949E+03  0.13927996107E+03  0.47000000000E+01 0.  1.
         13    1    4    4    0    0 -0.35512198455E+02 -0.32956317444E+02 -0.25407036348E+02  0.54706056288E+02  0.00000000000E+00 0. -1.
        -14    1    4    4    0    0  0.34900883494E+02 -0.10024695951E+03 -0.41439776339E+02  0.11395077719E+03  0.00000000000E+00 0.  1.
</event>
<event>
12    1  0.8421768E-002  0.1884723E+03  0.7818608E-02  0.1161410E+00
         21   -1    0    0  503  502  0.00000000000E+00  0.00000000000E+00  0.40210393774E+03  0.40210393774E+03  0.00000000000E+00 0.  1.
         21   -1    0    0  501  503 -0.00000000000E+00 -0.00000000000E+00 -0.12874153471E+03  0.12874153471E+03  0.00000000000E+00 0.  1.
          6    2    1    2  501    0 -0.14942707583E+02  0.57296736817E+02 -0.19279132696E+02  0.18276378772E+03  0.17182757806E+03 0.  0.
         24    2    3    3    0    0 -0.41192914682E+01  0.40303671217E+02 -0.79348589285E+02  0.11923158935E+03  0.79237735966E+02 0.  0.
         -6    2    1    2    0  502  0.14942707583E+02 -0.57296736817E+02  0.29264153573E+03  0.34808168473E+03  0.17892900896E+03 0.  0.
        -24    2    5    5    0    0  0.57294175220E+02 -0.17878035028E+02  0.26489984739E+03  0.28374528652E+03  0.82080520393E+02 0.  0.
          5    1    3    3  501    0 -0.10823416115E+02  0.16993065600E+02  0.60069456589E+02  0.63532198370E+02  0.47000000000E+01 0. -1.
        -11    1    4    4    0    0 -0.29136482934E+02  0.10033989318E+02 -0.13254287018E+00  0.30816118299E+02  0.00000000000E+00 0.  1.
         12    1    4    4    0    0  0.25017191466E+02  0.30269681900E+02 -0.79216046415E+02  0.88415471049E+02  0.00000000000E+00 0. -1.
         -5    1    5    5    0  502 -0.42351467637E+02 -0.39418701789E+02  0.27741688344E+02  0.64336398204E+02  0.47000000000E+01 0.  1.
         11    1    6    6    0    0 -0.20363208322E+02 -0.33811670270E+01  0.34794361709E+02  0.40456645318E+02  0.00000000000E+00 0. -1.
        -12    1    6    6    0    0  0.77657383542E+02 -0.14496868001E+02  0.23010548568E+03  0.24328864120E+03  0.00000000000E+00 0.  1.
</event>
<event>
12    1  0.8421768E-002  0.2420012E+03  0.7818608E-02  0.1118783E+00
         21   -1    0    0  501  502  0.00000000000E+00  0.00000000000E+00  0.10141424924E+03  0.10141424924E+03  0.00000000000E+00 0.  1.
         21   -1    0    0  502  503 -0.00000000000E+00 -0.00000000000E+00 -0.64903007638E+03  0.64903007638E+03  0.00000000000E+00 0. -1.
         -6    2    1    2    0  503 -0.44324417210E+02  0.16425274536E+03 -0.40133643459E+03  0.46766838310E+03  0.16940827757E+03 0.  0.
        -24    2    3    3    0    0 -0.20749556905E+02  0.24800116164E+02 -0.22185067659E+03  0.23910758779E+03  0.83121152326E+02 0.  0.
          6    2    1    2  501    0  0.44324417210E+02 -0.16425274536E+03 -0.14627939255E+03  0.28277594251E+03  0.17210739281E+03 0.  0.
         24    2    5    5    0    0  0.91264932343E+02 -0.13124447889E+03 -0.13352497223E+03  0.22380372148E+03  0.81882760232E+02 0.  0.
          5    1    5    5  501    0 -0.46940515133E+02 -0.33008266468E+02 -0.12754420323E+02  0.58972221036E+02  0.47000000000E+01 0. -1.
        -13    1    6    6    0    0  0.22107896740E+02 -0.19388553261E+02  0.81363310006E+01  0.30510243820E+02  0.00000000000E+00 0.  1.
         14    1    6    6    0    0  0.69157035603E+02 -0.11185592563E+03 -0.14166130323E+03  0.19329347766E+03  0.00000000000E+00 0. -1.
         -5    1    3    3    0  503 -0.23574860306E+02  0.13945262920E+03 -0.17948575800E+03  0.22856079531E+03  0.47000000000E+01 0.  1.
         11    1    4    4    0    0 -0.36617076365E+02  0.73967213436E+01 -0.20893309224E+03  0.21224645769E+03  0.00000000000E+00 0. -1.
        -12    1    4    4    0    0  0.15867519460E+02  0.17403394821E+02 -0.12917584347E+02  0.26861130104E+02  0.00000000000E+00 0.  1.
</event>
<event>
12    1  0.8421768E-002  0.2427939E+03  0.7818608E-02  0.1118073E+00
         21   -1    0    0  503  502  0.00000000000E+00  0.00000000000E+00  0.49768701237E+03  0.49768701237E+03  0.00000000000E+00 0.  1.
         21   -1    0    0  501  503 -0.00000000000E+00 -0.00000000000E+00 -0.13437615287E+03  0.13437615287E+03  0.00000000000E+00 0.  1.
          6    2    1    2  501    0  0.15606144470E+03 -0.71128528101E+02  0.71303522509E+02  0.25230382314E+03  0.17075884989E+03 0.  0.
         24    2    3    3    0    0  0.14041315324E+03 -0.14061084289E+02  0.23169741981E+01  0.16129395545E+03  0.78082033781E+02 0.  0.
         -6    2    1    2    0  502 -0.15606144470E+03  0.71128528101E+02  0.29200733699E+03  0.37975934211E+03  0.17185584375E+03 0.  0.
        -24    2    5    5    0    0 -0.13159865967E+03 -0.12764470820E+02  0.17205904273E+03  0.23127989432E+03  0.80030846489E+02 0.  0.
          5    1    3    3  501    0  0.15648291453E+02 -0.57067443812E+02  0.68986548311E+02  0.91009867688E+02  0.47000000000E+01 0. -1.
        -11    1    4    4    0    0  0.11403086836E+02 -0.28403601863E+02 -0.61284745378E+01  0.31214630998E+02  0.00000000000E+00 0.  1.
         12    1    4    4    0    0  0.12901006641E+03  0.14342517574E+02  0.84454487359E+01  0.13007932445E+03  0.00000000000E+00 0. -1.
         -5    1    5    5    0  502 -0.24462785032E+02  0.83892998921E+02  0.11994829427E+03  0.14847944779E+03  0.47000000000E+01 0.  1.
         13    1    6    6    0    0  0.90096563845E+00 -0.17856903737E+02  0.41531556763E+02  0.45216711040E+02  0.00000000000E+00 0. -1.
        -14    1    6    6    0    0 -0.13249962530E+03  0.50924329169E+01  0.13052748596E+03  0.18606318328E+03  0.00000000000E+00 0.  1.
</event>
<event>
12    1  0.8421768E-002  0.4251569E+03  0.7818608E-02  0.1035460E+00
         21   -1    0    0  501  502  0.00000000000E+00  0.00000000000E+00  0.24366598821E+03  0.24366598821E+03  0.00000000000E+00 0.  1.
         21   -1    0    0  502  503 -0.00000000000E+00 -0.00000000000E+00 -0.75395443359E+03  0.75395443359E+03  0.00000000000E+00 0.  1.
         -6    2    1    2    0  503  0.34805726414E+03  0.17060790404E+03 -0.18837530028E+03  0.46434143420E+03  0.17284906049E+03 0.  0.
        -24    2    3    3    0    0  0.11741920585E+03  0.61610564516E+02 -0.14652721838E+02  0.15567339533E+03  0.80227004143E+02 0.  0.
          6    2    1    2  501    0 -0.34805726414E+03 -0.17060790404E+03 -0.32191314510E+03  0.53327898760E+03  0.17466393327E+03 0.  0.
         24    2    5    5    0    0 -0.25054705044E+03 -0.52901060404E+02 -0.22613726517E+03  0.35283993421E+03  0.88236102547E+02 0.  0.
          5    1    5    5  501    0 -0.97510213700E+02 -0.11770684364E+03 -0.95775879926E+02  0.18043905340E+03  0.47000000000E+01 0. -1.
        -13    1    6    6    0    0 -0.83436702848E+02 -0.20308535203E+02 -0.13425819180E+03  0.15937183581E+03  0.00000000000E+00 0.  1.
         14    1    6    6    0    0 -0.16711034760E+03 -0.32592525201E+02 -0.91879073371E+02  0.19346809839E+03  0.00000000000E+00 0. -1.
         -5    1    3    3    0  503  0.23063805829E+03  0.10899733952E+03 -0.17372257845E+03  0.30866803887E+03  0.47000000000E+01 0.  1.
         13    1    4    4    0    0  0.12681386752E+02  0.17017766875E+02 -0.34123189750E+02  0.40184748824E+02  0.00000000000E+00 0. -1.
        -14    1    4    4    0    0  0.10473781910E+03  0.44592797641E+02  0.19470467912E+02  0.11548864651E+03  0.00000000000E+00 0.  1.
</event>
<event>
12    1  0.8421768E-002  0.2452219E+03  0.7818608E-02  0.1116406E+00
         21   -1    0    0  503  502  0.00000000000E+00  0.00000000000E+00  0.28980188670E+03  0.28980188670E+03  0.00000000000E+00 0.  1.
         21   -1    0    0  501  503 -0.00000000000E+00 -0.00000000000E+00 -0.22148716518E+03  0.22148716518E+03  0.00000000000E+00 0. -1.
          6    2    1    2  501    0  0.16320288811E+03  0.62220671163E+02 -0.30592380179E+02  0.24712276312E+03  0.17212545343E+03 0.  0.
         24    2    3    3    0    0  0.99862264750E+02  0.98028029141E+02 -0.53143243222E+02  0.17080217037E+03  0.82263057838E+02 0.  0.
         -6    2    1    2    0  502 -0.16320288811E+03 -0.62220671163E+02  0.98907101706E+02  0.26416628876E+03  0.17173997421E+03 0.  0.
        -24    2    5    5    0    0 -0.70332114433E+02 -0.98720493314E+02  0.59012449457E+02  0.15659821311E+03  0.79675523460E+02 0.  0.
          5    1    3    3  501    0  0.63340623363E+02 -0.35807357978E+02  0.22550863043E+02  0.76320592748E+02  0.47000000000E+01 0. -1.
        -11    1    4    4    0    0  0.18765802195E+02  0.35675789106E+02 -0.55361592811E+02  0.68482283979E+02  0.00000000000E+00 0.  1.
         12    1    4    4    0    0  0.81096462555E+02  0.62352240035E+02  0.22183495893E+01  0.10231988639E+03  0.00000000000E+00 0. -1.
         -5    1    5    5    0  502 -0.92870773680E+02  0.36499822151E+02  0.39894652249E+02  0.10756807565E+03  0.47000000000E+01 0.  1.
         13    1    6    6    0    0 -0.18636430359E+02 -0.39023981652E+02 -0.17490785976E+02  0.46648850732E+02  0.00000000000E+00 0. -1.
        -14    1    6    6    0    0 -0.51695684074E+02 -0.59696511662E+02  0.76503235433E+02  0.10994936238E+03  0.00000000000E+00 0.  1.
</event>
<event>
12    1  0.8421768E-002  0.2164912E+03  0.7818608E-02  0.1136533E+00
         21   -1    0    0  501  502  0.00000000000E+00  0.00000000000E+00  0.15412100577E+03  0.15412100577E+03  0.00000000000E+00 0. -1.
         21   -1    0    0  502  503 -0.00000000000E+00 -0.00000000000E+00 -0.45629658976E+03  0.45629658976E+03  0.00000000000E+00 0. -1.
         -6    2    1    2    0  503 -0.46907052791E+02  0.12440544108E+03 -0.32737621939E+03  0.39246462259E+03  0.17081073033E+03 0.  0.
        -24    2    3    3    0    0 -0.42510372597E+02  0.11020974159E+03 -0.12019729210E+03  0.18470022095E+03  0.75587457085E+02 0.  0.
          6    2    1    2  501    0  0.46907052791E+02 -0.12440544108E+03  0.25200635405E+02  0.21795297294E+03  0.17085502924E+03 0.  0.
         24    2    5    5    0    0 -0.34110840806E+02 -0.59411836987E+02 -0.16301875036E+02  0.10600380577E+03  0.79232189632E+02 0.  0.
          5    1    5    5  501    0  0.81017893598E+02 -0.64993604092E+02  0.41502510441E+02  0.11194916716E+03  0.47000000000E+01 0. -1.
        -13    1    6    6    0    0 -0.27215508369E+02  0.25167009921E+01 -0.31662285219E+02  0.41827239748E+02  0.00000000000E+00 0.  1.
         14    1    6    6    0    0 -0.68953324374E+01 -0.61928537980E+02  0.15360410183E+02  0.64176566024E+02  0.00000000000E+00 0. -1.
         -5    1    3    3    0  503 -0.43966801945E+01  0.14195699486E+02 -0.20717892728E+03  0.20776440165E+03  0.47000000000E+01 0.  1.
         13    1    4    4    0    0  0.97021373035E+01  0.59257276294E+02 -0.84013483149E+02  0.10326578142E+03  0.00000000000E+00 0. -1.
        -14    1    4    4    0    0 -0.52212509900E+02  0.50952465300E+02 -0.36183808953E+02  0.81434439524E+02  0.00000000000E+00 0.  1.
</event>
<event>
12    1  0.8421768E-002  0.1930941E+03  0.7818608E-02  0.1156297E+00
         21   -1    0    0  501  502  0.00000000000E+00  0.00000000000E+00  0.54205343869E+02  0.54205343869E+02  0.00000000000E+00 0. -1.
         21   -1    0    0  502  503 -0.00000000000E+00 -0.00000000000E+00 -0.78585793350E+03  0.78585793350E+03  0.00000000000E+00 0. -1.
         -6    2    1    2    0  503  0.83359895124E+02 -0.15599610296E+02 -0.52340670846E+03  0.55788880004E+03  0.17347366025E+03 0.  0.
        -24    2    3    3    0    0  0.99396545806E+02 -0.61766854525E+02 -0.42389880307E+03  0.44692708665E+03  0.79742133790E+02 0.  0.
          6    2    1    2  501    0 -0.83359895124E+02  0.15599610296E+02 -0.20824588118E+03  0.28217447733E+03  0.17048128540E+03 0.  0.
         24    2    5    5    0    0  0.96693200791E+00  0.20134729866E+02 -0.17286811627E+03  0.19049428681E+03  0.77448985667E+02 0.  0.
          5    1    5    5  501    0 -0.84326827132E+02 -0.45351195693E+01 -0.35377764912E+02  0.91680190520E+02  0.47000000000E+01 0. -1.
        -13    1    6    6    0    0 -0.35484063587E+02  0.23756077118E+02 -0.10543939354E+03  0.11375823345E+03  0.00000000000E+00 0.  1.
         14    1    6    6    0    0  0.36450995595E+02 -0.36213472526E+01 -0.67428722730E+02  0.76736053357E+02  0.00000000000E+00 0. -1.
         -5    1    3    3    0  503 -0.16036650682E+02  0.46167244229E+02 -0.99507905390E+02  0.11096171340E+03  0.47000000000E+01 0.  1.
         13    1    4    4    0    0 -0.33665747993E+01 -0.30541275213E+02 -0.14141550737E+03  0.14471506156E+03  0.00000000000E+00 0. -1.
        -14    1    4    4    0    0  0.10276312061E+03 -0.31225579312E+02 -0.28248329570E+03  0.30221202509E+03  0.00000000000E+00 0.  1.
</event>
<event>
12    1  0.8421768E-002  0.3646996E+03  0.7818608E-02  0.1056794E+00
         21   -1    0    0  501  502  0.00000000000E+00  0.00000000000E+00  0.23840556839E+03  0.23840556839E+03  0.00000000000E+00 0. -1.
         21   -1    0    0  502  503 -0.00000000000E+00 -0.00000000000E+00 -0.66994145805E+03  0.66994145805E+03  0.00000000000E+00 0. -1.
         -6    2    1    2    0  503  0.26883698524E+03  0.17593089182E+03 -0.40208858862E+03  0.54246051512E+03  0.17135686165E+03 0.  0.
        -24    2    3    3    0    0  0.14935692648E+03  0.59880039028E+02 -0.29043935589E+03  0.34188403085E+03  0.81465087819E+02 0.  0.
          6    2    1    2  501    0 -0.26883698524E+03 -0.17593089182E+03 -0.29447301043E+02  0.36588651132E+03  0.17257112244E+03 0.  0.
         24    2    5    5    0    0 -0.24830377336E+03 -0.20229117950E+03 -0.18920188841E+02  0.33053983329E+03  0.79511776969E+02 0.  0.
          5    1    5    5  501    0 -0.20533211881E+02  0.26360287682E+02 -0.10527112202E+02  0.35346678035E+02  0.47000000000E+01 0. -1.
        -13    1    6    6    0    0 -0.90217825178E+02 -0.11736871137E+03  0.11686180772E+02  0.14849658989E+03  0.00000000000E+00 0.  1.
         14    1    6    6    0    0 -0.15808594818E+03 -0.84922468132E+02 -0.30606369614E+02  0.18204324340E+03  0.00000000000E+00 0. -1.
         -5    1    3    3    0  503  0.11948005876E+03  0.11605085279E+03 -0.11164923273E+03  0.20057648427E+03  0.47000000000E+01 0.  1.
         11    1    4    4    0    0  0.61306366476E+02  0.18472093445E+02 -0.46141946613E+02  0.78922544586E+02  0.00000000000E+00 0. -1.
        -12    1    4    4    0    0  0.88050560008E+02  0.41407945583E+02 -0.24429740928E+03  0.26296148626E+03  0.00000000000E+00 0.  1.
</event>
<event>
12    1  0.8421768E-002  0.1744817E+03  0.7818608E-02  0.1173379E+00
         21   -1    0    0  501  502  0.00000000000E+00  0.00000000000E+00  0.15786494770E+03  0.15786494770E+03  0.00000000000E+00 0. -1.
         21   -1    0    0  502  503 -0.00000000000E+00 -0.00000000000E+00 -0.19880304338E+03  0.19880304338E+03  0.00000000000E+00 0. -1.
         -6    2    1    2    0  503 -0.27386772012E+01  0.26018694859E+02 -0.52701559803E+02  0.18179017499E+03  0.17200505947E+03 0.  0.
        -24    2    3    3    0    0  0.50159989158E+02  0.63298889445E+02 -0.31334766125E+02  0.11347684040E+03  0.73296328841E+02 0.  0.
          6    2    1    2  501    0  0.27386772012E+01 -0.26018694859E+02  0.11763464122E+02  0.17487781609E+03  0.17250912624E+03 0.  0.
         24    2    5    5    0    0  0.32588005647E+02  0.38093387890E+02  0.33432674369E+02  0.10076313309E+03  0.80761259041E+02 0.  0.
          5    1    5    5  501    0 -0.29849328446E+02 -0.64112082749E+02 -0.21669210247E+02  0.74114682997E+02  0.47000000000E+01 0. -1.
        -13    1    6    6    0    0 -0.17473199877E+02  0.37569128740E+02  0.28853159900E+02  0.50490167205E+02  0.00000000000E+00 0.  1.
         14    1    6    6    0    0  0.50061205524E+02  0.52425915049E+00  0.45795144683E+01  0.50272965886E+02  0.00000000000E+00 0. -1.
         -5    1    3    3    0  503 -0.52898666359E+02 -0.37280194587E+02 -0.21366793677E+02  0.68313334592E+02  0.47000000000E+01 0.  1.
         13    1    4    4    0    0  0.28207860621E+02  0.62580972129E+02 -0.49780534967E+02  0.84794829648E+02  0.00000000000E+00 0. -1.
        -14    1    4    4    0    0  0.21952128537E+02  0.71791731670E+00  0.18445768842E+02  0.28682010751E+02  0.00000000000E+00 0.  1.
</event>
<event>
12    1  0.8421768E-002  0.3137092E+03  0.7818608E-02  0.1078623E+00
         21   -1    0    0  501  502  0.00000000000E+00  0.00000000000E+00  0.97061734555E+02  0.97061734555E+02  0.00000000000E+00 0.  1.
         21   -1    0    0  502  503 -0.00000000000E+00 -0.00000000000E+00 -0.13105004725E+04  0.13105004725E+04  0.00000000000E+00 0.  1.
         -6    2    1    2    0  503 -0.20135511158E+03  0.16751328381E+03 -0.94242784684E+03  0.99326920018E+03  0.17265247268E+03 0.  0.
        -24    2    3    3    0    0 -0.11020421782E+03  0.32804877750E+02 -0.57864284284E+03  0.59475137219E+03  0.75369261107E+02 0.  0.
          6    2    1    2  501    0  0.20135511158E+03 -0.16751328381E+03 -0.27101089113E+03  0.41429300690E+03  0.17200933476E+03 0.  0.
         24    2    5    5    0    0  0.12318684760E+03 -0.10367766259E+03 -0.76881134564E+02  0.19544667631E+03  0.79778676880E+02 0.  0.
          5    1    5    5  501    0  0.78168263976E+02 -0.63835621212E+02 -0.19412975657E+03  0.21884633059E+03  0.47000000000E+01 0. -1.
        -13    1    6    6    0    0  0.10134601659E+03 -0.11364886925E+03 -0.52092632455E+02  0.16093701537E+03  0.00000000000E+00 0.  1.
         14    1    6    6    0    0  0.21840831005E+02  0.99712066511E+01 -0.24788502109E+02  0.34509660935E+02  0.00000000000E+00 0. -1.
         -5    1    3    3    0  503 -0.91150893752E+02  0.13470840606E+03 -0.36378500400E+03  0.39851782799E+03  0.47000000000E+01 0.  1.
         11    1    4    4    0    0  0.11540952113E+02  0.31516805295E+01 -0.41762748637E+02  0.43442534912E+02  0.00000000000E+00 0. -1.
        -12    1    4    4    0    0 -0.12174516994E+03  0.29653197220E+02 -0.53688009421E+03  0.55130883728E+03  0.00000000000E+00 0.  1.
</event>
<event>
12    1  0.8421768E-002  0.3148591E+03  0.7818608E-02  0.1078885E+00
         21   -1    0    0  503  502  0.00000000000E+00  0.00000000000E+00  0.14770176726E+03  0.14770176726E+03  0.00000000000E+00 0. -1.
         21   -1    0    0  501  503 -0.00000000000E+00 -0.00000000000E+00 -0.83903710478E+03  0.83903710478E+03  0.00000000000E+00 0. -1.
          6    2    1    2  501    0  0.71222810866E+02  0.25407787129E+03 -0.11840704327E+03  0.33638736448E+03  0.17177886255E+03 0.  0.
         24    2    3    3    0    0  0.11305909352E+03  0.21295074154E+03 -0.10991240169E+03  0.27692338981E+03  0.80470185973E+02 0.  0.
         -6    2    1    2    0  502 -0.71222810866E+02 -0.25407787129E+03 -0.57292829425E+03  0.65035150756E+03  0.15837297614E+03 0.  0.
        -24    2    5    5    0    0 -0.26149574018E+02 -0.82464504631E+02 -0.32342290271E+03  0.34415259394E+03  0.79714736238E+02 0.  0.
          5    1    3    3  501    0 -0.41836282653E+02  0.41127129754E+02 -0.84946415801E+01  0.59463974671E+02  0.47000000000E+01 0. -1.
        -13    1    4    4    0    0 -0.23776680439E+01  0.21147829670E+01 -0.20057286019E+02  0.20308134694E+02  0.00000000000E+00 0.  1.
         14    1    4    4    0    0  0.11543676156E+03  0.21083595857E+03 -0.89855115675E+02  0.25661525512E+03  0.00000000000E+00 0. -1.
         -5    1    5    5    0  502 -0.45073236848E+02 -0.17161336666E+03 -0.24950539154E+03  0.30619891362E+03  0.47000000000E+01 0.  1.
         11    1    6    6    0    0  0.16616940780E+02 -0.41082767290E+01 -0.14009181805E+02  0.22119173434E+02  0.00000000000E+00 0. -1.
        -12    1    6    6    0    0 -0.42766514798E+02 -0.78356227902E+02 -0.30941372090E+03  0.32203342051E+03  0.00000000000E+00 0.  1.
</event>
<event>
12    1  0.8421768E-002  0.1778588E+03  0.7818608E-02  0.1169975E+00
         21   -1    0    0  501  502  0.00000000000E+00  0.00000000000E+00  0.17077761938E+04  0.17077761938E+04  0.00000000000E+00 0.  1.
         21   -1    0    0  502  503 -0.00000000000E+00 -0.00000000000E+00 -0.51295425371E+02  0.51295425371E+02  0.00000000000E+00 0.  1.
         -6    2    1    2    0  503 -0.43970977924E+02  0.80432563057E+01  0.12512978751E+03  0.21746543783E+03  0.17214996967E+03 0.  0.
        -24    2    3    3    0    0  0.30018017140E+01  0.12371547024E+02  0.14447274774E+03  0.16626566989E+03  0.81300874259E+02 0.  0.
          6    2    1    2  501    0  0.43970977924E+02 -0.80432563057E+01  0.15313509809E+04  0.15416061813E+04  0.17180119534E+03 0.  0.
         24    2    5    5    0    0  0.67676508307E+02  0.89454030522E+01  0.53857887563E+03  0.54839466824E+03  0.77520170716E+02 0.  0.
          5    1    5    5  501    0 -0.23705530383E+02 -0.16988659358E+02  0.99277210524E+03  0.99321151306E+03  0.47000000000E+01 0. -1.
        -13    1    6    6    0    0  0.47953428815E+02  0.26989059472E+02  0.48884254816E+03  0.49192985024E+03  0.00000000000E+00 0.  1.
         14    1    6    6    0    0  0.19723079492E+02 -0.18043656420E+02  0.49736327474E+02  0.56464818004E+02  0.00000000000E+00 0. -1.
         -5    1    3    3    0  503 -0.46972779638E+02 -0.43282907182E+01 -0.19342960222E+02  0.51199767945E+02  0.47000000000E+01 0.  1.
         11    1    4    4    0    0  0.40768009235E+02  0.71623418055E+01  0.53617613464E+02  0.67736092230E+02  0.00000000000E+00 0. -1.
        -12    1    4    4    0    0 -0.37766207521E+02  0.52092052184E+01  0.90855134272E+02  0.98529577656E+02  0.00000000000E+00 0.  1.
</event>
<event>
12    1  0.8421768E-002  0.1792044E+03  0.7818608E-02  0.1168847E+00
         21   -1    0    0  503  502  0.00000000000E+00  0.00000000000E+00  0.18685358605E+03  0.18685358605E+03  0.00000000000E+00 0.  1.
         21   -1    0    0  501  503 -0.00000000000E+00 -0.00000000000E+00 -0.24544773746E+03  0.24544773746E+03  0.00000000000E+00 0.  1.
          6    2    1    2  501    0 -0.36721006433E+02  0.28067778942E+02 -0.14843494442E+03  0.23183786205E+03  0.17198729322E+03 0.  0.
         24    2    3    3    0    0 -0.72950479992E+02 -0.28072739167E+02 -0.10352157811E+03  0.15119275680E+03  0.77670337703E+02 0.  0.
         -6    2    1    2    0  502  0.36721006433E+02 -0.28067778942E+02  0.89840793004E+02  0.20046346146E+03  0.17314155701E+03 0.  0.
        -24    2    5    5    0    0  0.70092851275E+01 -0.50664448577E+02  0.84906537021E+00  0.10384558812E+03  0.90372389768E+02 0.  0.
          5    1    3    3  501    0  0.36229473559E+02  0.56140518109E+02 -0.44913366305E+02  0.80645105250E+02  0.47000000000E+01 0. -1.
        -11    1    4    4    0    0  0.23980176110E+00  0.11658050751E+02 -0.51941596083E+02  0.53234359730E+02  0.00000000000E+00 0.  1.
         12    1    4    4    0    0 -0.73190281753E+02 -0.39730789918E+02 -0.51579982028E+02  0.97958397071E+02  0.00000000000E+00 0. -1.
         -5    1    5    5    0  502  0.29711721305E+02  0.22596669634E+02  0.88991727634E+02  0.96617873340E+02  0.47000000000E+01 0.  1.
         13    1    6    6    0    0  0.20440228170E+02 -0.25158786614E+02 -0.41473684530E+02  0.52638711801E+02  0.00000000000E+00 0. -1.
        -14    1    6    6    0    0 -0.13430943042E+02 -0.25505661963E+02  0.42322749901E+02  0.51206876319E+02  0.00000000000E+00 0.  1.
</event>
<event>
12    1  0.8421768E-002  0.1948876E+03  0.7818608E-02  0.1154421E+00
         21   -1    0    0  501  502  0.00000000000E+00  0.00000000000E+00  0.11389450838E+03  0.11389450838E+03  0.00000000000E+00 0. -1.
         21   -1    0    0  502  503 -0.00000000000E+00 -0.00000000000E+00 -0.36338748468E+03  0.36338748468E+03  0.00000000000E+00 0. -1.
         -6    2    1    2    0  503 -0.83883661187E+02 -0.36437955819E+02 -0.19620045994E+03  0.27654259620E+03  0.17209588546E+03 0.  0.
        -24    2    3    3    0    0 -0.50001509901E+02 -0.10568876169E+02 -0.21098642303E+03  0.23117824718E+03  0.79474896230E+02 0.  0.
          6    2    1    2  501    0  0.83883661187E+02  0.36437955819E+02 -0.53292516355E+02  0.20073939686E+03  0.17056382944E+03 0.  0.
         24    2    5    5    0    0  0.11380291068E+03  0.46956354009E+02 -0.71620623486E+02  0.16380962971E+03  0.80920203997E+02 0.  0.
          5    1    5    5  501    0 -0.29919249496E+02 -0.10518398190E+02  0.18328107130E+02  0.36929767151E+02  0.47000000000E+01 0. -1.
        -11    1    6    6    0    0  0.99451962322E+02  0.45774686643E+02 -0.21383289994E+02  0.11154936054E+03  0.00000000000E+00 0.  1.
         12    1    6    6    0    0  0.14350948361E+02  0.11816673658E+01 -0.50237333492E+02  0.52260269163E+02  0.00000000000E+00 0. -1.
         -5    1    3    3    0  503 -0.33882151286E+02 -0.25869079650E+02  0.14785963084E+02  0.45364349020E+02  0.47000000000E+01 0.  1.
         11    1    4    4    0    0  0.21531909878E+02  0.30101902949E+00 -0.38149206156E+02  0.43807256086E+02  0.00000000000E+00 0. -1.
        -12    1    4    4    0    0 -0.71533419780E+02 -0.10869895198E+02 -0.17283721687E+03  0.18737099109E+03  0.00000000000E+00 0.  1.
</event>
<event>
12    1  0.8421768E-002  0.2124226E+03  0.7818608E-02  0.1139794E+00
         21   -1    0    0  503  502  0.00000000000E+00  0.00000000000E+00  0.52838048707E+03  0.52838048707E+03  0.00000000000E+00 0. -1.
         21   -1    0    0  501  503 -0.00000000000E+00 -0.00000000000E+00 -0.87053370827E+02  0.87053370827E+02  0.00000000000E+00 0. -1.
          6    2    1    2  501    0 -0.20113874079E+02  0.12146729703E+03  0.17455068184E+03  0.27441622726E+03  0.17227145172E+03 0.  0.
         24    2    3    3    0    0 -0.90337582388E+01  0.54373854968E+02  0.18025905173E+03  0.20601319793E+03  0.83126332153E+02 0.  0.
         -6    2    1    2    0  502  0.20113874079E+02 -0.12146729703E+03  0.26677643440E+03  0.34101763063E+03  0.17310253109E+03 0.  0.
        -24    2    5    5    0    0 -0.45251210631E+02 -0.10510606421E+03  0.21095793888E+03  0.25339298409E+03  0.81300649525E+02 0.  0.
          5    1    3    3  501    0 -0.11080115841E+02  0.67093442065E+02 -0.57083698986E+01  0.68403029334E+02  0.47000000000E+01 0. -1.
        -13    1    4    4    0    0 -0.20138037809E+02 -0.17702840840E+02  0.48243302996E+02  0.55193726315E+02  0.00000000000E+00 0.  1.
         14    1    4    4    0    0  0.11104279570E+02  0.72076695807E+02  0.13201574874E+03  0.15081947161E+03  0.00000000000E+00 0. -1.
         -5    1    5    5    0  502  0.65365084710E+02 -0.16361232827E+02  0.55818495525E+02  0.87624646541E+02  0.47000000000E+01 0.  1.
         13    1    6    6    0    0 -0.19789729894E+02 -0.53376174925E+02  0.17821869594E+03  0.18708969251E+03  0.00000000000E+00 0. -1.
        -14    1    6    6    0    0 -0.25461480737E+02 -0.51729889281E+02  0.32739242933E+02  0.66303291579E+02  0.00000000000E+00 0.  1.
</event>
<event>
12    1  0.8421768E-002  0.1799282E+03  0.7818608E-02  0.1167937E+00
         21   -1    0    0  501  502  0.00000000000E+00  0.00000000000E+00  0.67944505389E+02  0.67944505389E+02  0.00000000000E+00 0. -1.
         21   -1    0    0  502  503 -0.00000000000E+00 -0.00000000000E+00 -0.47600226039E+03  0.47600226039E+03  0.00000000000E+00 0. -1.
         -6    2    1    2    0  503 -0.50860623370E+02  0.82452443805E+01 -0.19799562694E+03  0.26735999991E+03  0.17211715253E+03 0.  0.
        -24    2    3    3    0    0 -0.96638311397E+02  0.27486828412E+02 -0.16169161737E+03  0.20566797134E+03  0.77850153130E+02 0.  0.
          6    2    1    2  501    0  0.50860623370E+02 -0.82452443805E+01 -0.21006212806E+03  0.27658676587E+03  0.17239302291E+03 0.  0.
         24    2    5    5    0    0 -0.16624232667E+02 -0.30003799046E+02 -0.17821177434E+03  0.19871394952E+03  0.80939509208E+02 0.  0.
          5    1    5    5  501    0  0.67484856037E+02  0.21758554666E+02 -0.31850353724E+02  0.77872816360E+02  0.47000000000E+01 0. -1.
        -13    1    6    6    0    0  0.15060130328E+02 -0.44244720179E+02 -0.13733802328E+03  0.14507286248E+03  0.00000000000E+00 0.  1.
         14    1    6    6    0    0 -0.31684362994E+02  0.14240921133E+02 -0.40873751056E+02  0.53641087037E+02  0.00000000000E+00 0. -1.
         -5    1    3    3    0  503  0.45777688028E+02 -0.19241584032E+02 -0.36304009571E+02  0.61692028563E+02  0.47000000000E+01 0.  1.
         11    1    4    4    0    0 -0.89206362047E+02  0.49677296002E+02 -0.11752625522E+03  0.15568567511E+03  0.00000000000E+00 0. -1.
        -12    1    4    4    0    0 -0.74319493502E+01 -0.22190467590E+02 -0.44165362149E+02  0.49982296233E+02  0.00000000000E+00 0.  1.
</event>
<event>
12    1  0.8421768E-002  0.1745176E+03  0.7818608E-02  0.1174799E+00
         21   -1    0    0  501  502  0.00000000000E+00  0.00000000000E+00  0.20827263466E+02  0.20827263466E+02  0.00000000000E+00 0.  1.
         21   -1    0    0  502  503 -0.00000000000E+00 -0.00000000000E+00 -0.14401171191E+04  0.14401171191E+04  0.00000000000E+00 0.  1.
         -6    2    1    2    0  503  0.26638751677E+02 -0.12602546792E+02 -0.80070461657E+03  0.81821263931E+03  0.16575763286E+03 0.  0.
        -24    2    3    3    0    0  0.11652516231E+02 -0.58069399767E+01 -0.79659236164E+03  0.80061240734E+03  0.79065380987E+02 0.  0.
          6    2    1    2  501    0 -0.26638751677E+02  0.12602546792E+02 -0.61858523909E+03  0.64273174328E+03  0.17201147789E+03 0.  0.
         24    2    5    5    0    0 -0.39585005701E+02 -0.52117979694E+02 -0.29377573269E+03  0.31125073706E+03  0.79306895769E+02 0.  0.
          5    1    5    5  501    0  0.12946254024E+02  0.64720526485E+02 -0.32480950640E+03  0.33148100622E+03  0.47000000000E+01 0. -1.
        -13    1    6    6    0    0 -0.85674249434E+01 -0.58930475447E+01 -0.21241156215E+03  0.21266593642E+03  0.00000000000E+00 0.  1.
         14    1    6    6    0    0 -0.31017580758E+02 -0.46224932149E+02 -0.81364170542E+02  0.98584800635E+02  0.00000000000E+00 0. -1.
         -5    1    3    3    0  503  0.14986235446E+02 -0.67956068150E+01 -0.41122549280E+01  0.17600231971E+02  0.47000000000E+01 0.  1.
         13    1    4    4    0    0  0.18912985971E+02 -0.34486493527E+02 -0.23724988245E+03  0.24048809949E+03  0.00000000000E+00 0. -1.
        -14    1    4    4    0    0 -0.72604697400E+01  0.28679553550E+02 -0.55934247919E+03  0.56012430785E+03  0.00000000000E+00 0.  1.
</event>
<event>
12    1  0.8421768E-002  0.1957638E+03  0.7818608E-02  0.1153500E+00
         21   -1    0    0  501  502  0.00000000000E+00  0.00000000000E+00  0.29301343144E+03  0.29301343144E+03  0.00000000000E+00 0. -1.
         21   -1    0    0  502  503 -0.00000000000E+00 -0.00000000000E+00 -0.13099120696E+03  0.13099120696E+03  0.00000000000E+00 0.  1.
         -6    2    1    2    0  503 -0.27944570580E+02 -0.88571454248E+02  0.95494795180E+02  0.21724546750E+03  0.17161158385E+03 0.  0.
        -24    2    3    3    0    0 -0.68373646823E+02 -0.27328679783E+02  0.97663058369E+02  0.14367931363E+03  0.75391377999E+02 0.  0.
          6    2    1    2  501    0  0.27944570580E+02  0.88571454248E+02  0.66527429297E+02  0.20675917090E+03  0.17233007390E+03 0.  0.
         24    2    5    5    0    0  0.40383130033E+02  0.11821136863E+03  0.83152608948E+02  0.17026631017E+03  0.80445852227E+02 0.  0.
          5    1    5    5  501    0 -0.12438559453E+02 -0.29639914381E+02 -0.16625179651E+02  0.36492860730E+02  0.47000000000E+01 0. -1.
        -13    1    6    6    0    0  0.38796414915E+02  0.35079424916E+02 -0.51946802910E+00  0.52306765430E+02  0.00000000000E+00 0.  1.
         14    1    6    6    0    0  0.15867151184E+01  0.83131943713E+02  0.83672076977E+02  0.11795954474E+03  0.00000000000E+00 0. -1.
         -5    1    3    3    0  503  0.40429076243E+02 -0.61242774465E+02 -0.21682631894E+01  0.73566153870E+02  0.47000000000E+01 0.  1.
         11    1    4    4    0    0 -0.31724965086E+02 -0.50914436832E+02  0.69404935960E+02  0.91737660877E+02  0.00000000000E+00 0. -1.
        -12    1    4    4    0    0 -0.36648681737E+02  0.23585757049E+02  0.28258122410E+02  0.51941652753E+02  0.00000000000E+00 0.  1.
</event>
<event>
12    1  0.8421768E-002  0.1801874E+03  0.7818608E-02  0.1167884E+00
         21   -1    0    0  503  502  0.00000000000E+00  0.00000000000E+00  0.18732736358E+03  0.18732736358E+03  0.00000000000E+00 0. -1.
         21   -1    0    0  501  503 -0.00000000000E+00 -0.00000000000E+00 -0.67207482822E+03  0.67207482822E+03  0.00000000000E+00 0.  1.
          6    2    1    2  501    0 -0.18384287365E+02  0.49552600214E+02 -0.61311625620E+03  0.63904542823E+03  0.17226164263E+03 0.  0.
         24    2    3    3    0    0 -0.48973450421E+01  0.75293217552E+02 -0.59325381345E+03  0.60353368896E+03  0.81300516229E+02 0.  0.
         -6    2    1    2    0  502  0.18384287365E+02 -0.49552600214E+02  0.12836879155E+03  0.22035676357E+03  0.17112894085E+03 0.  0.
        -24    2    5    5    0    0  0.67745950589E+02  0.51091689127E+01  0.84129938496E+02  0.13431230460E+03  0.79663863747E+02 0.  0.
          5    1    3    3  501    0 -0.13486942323E+02 -0.25740617338E+02 -0.19862442746E+02  0.35511739270E+02  0.47000000000E+01 0. -1.
        -13    1    4    4    0    0  0.38149754103E+02  0.38966377451E+02 -0.30167576391E+03  0.30656491783E+03  0.00000000000E+00 0.  1.
         14    1    4    4    0    0 -0.43047099145E+02  0.36326840101E+02 -0.29157804954E+03  0.29696877113E+03  0.00000000000E+00 0. -1.
         -5    1    5    5    0  502 -0.49361663224E+02 -0.54661769126E+02  0.44238853052E+02  0.86044458971E+02  0.47000000000E+01 0.  1.
         13    1    6    6    0    0  0.35493738488E+02  0.33768884465E+02  0.75976978861E+02  0.90402678869E+02  0.00000000000E+00 0. -1.
        -14    1    6    6    0    0  0.32252212101E+02 -0.28659715552E+02  0.81529596351E+01  0.43909625730E+02  0.00000000000E+00 0.  1.
</event>
<event>
12    1  0.8421768E-002  0.1967984E+03  0.7818608E-02  0.1152959E+00
         21   -1    0    0  503  502  0.00000000000E+00  0.00000000000E+00  0.31285231421E+03  0.31285231421E+03  0.00000000000E+00 0.  1.
         21   -1    0    0  501  503 -0.00000000000E+00 -0.00000000000E+00 -0.14661610973E+03  0.14661610973E+03  0.00000000000E+00 0.  1.
          6    2    1    2  501    0  0.42422646916E+02 -0.83533785691E+02 -0.10694596359E+02  0.19482879996E+03  0.17048845293E+03 0.  0.
         24    2    3    3    0    0  0.70172898131E+02 -0.83040563632E+02 -0.51523793435E+02  0.14523612869E+03  0.81356382332E+02 0.  0.
         -6    2    1    2    0  502 -0.42422646916E+02  0.83533785691E+02  0.17693080084E+03  0.26463962397E+03  0.17306659980E+03 0.  0.
        -24    2    5    5    0    0 -0.42457599890E+02  0.85194881595E+02  0.43585042427E+02  0.13120071754E+03  0.79076903847E+02 0.  0.
          5    1    3    3  501    0 -0.27750251215E+02 -0.49322205890E+00  0.40829197075E+02  0.49592671276E+02  0.47000000000E+01 0. -1.
        -11    1    4    4    0    0  0.32756799404E+02 -0.89740878445E+02 -0.24579557730E+02  0.98643741969E+02  0.00000000000E+00 0.  1.
         12    1    4    4    0    0  0.37416098727E+02  0.67003148136E+01 -0.26944235705E+02  0.46592386720E+02  0.00000000000E+00 0. -1.
         -5    1    5    5    0  502  0.34952973813E-01 -0.16610959047E+01  0.13334575841E+03  0.13343890643E+03  0.47000000000E+01 0.  1.
         11    1    6    6    0    0 -0.16507447047E+02 -0.13703707501E+02  0.89665990849E+01  0.23252683854E+02  0.00000000000E+00 0. -1.
        -12    1    6    6    0    0 -0.25950152843E+02  0.98898589096E+02  0.34618443342E+02  0.10794803369E+03  0.00000000000E+00 0.  1.
</event>
<event>
12    1  0.8421768E-002  0.1846352E+03  0.7818608E-02  0.1164159E+00
         21   -1    0    0  501  502  0.00000000000E+00  0.00000000000E+00  0.13122229812E+04  0.13122229812E+04  0.00000000000E+00 0. -1.
         21   -1    0    0  502  503 -0.00000000000E+00 -0.00000000000E+00 -0.27572026357E+02  0.27572026357E+02  0.00000000000E+00 0. -1.
         -6    2    1    2    0  503 -0.40179809127E+01 -0.69618104046E+02  0.83017937073E+03  0.85046336687E+03  0.17096001348E+03 0.  0.
        -24    2    3    3    0    0 -0.25680265341E+02  0.25129778520E+02  0.35708795231E+03  0.36746854701E+03  0.78932538060E+02 0.  0.
          6    2    1    2  501    0  0.40179809127E+01  0.69618104046E+02  0.45447158415E+03  0.48933164073E+03  0.16744613832E+03 0.  0.
         24    2    5    5    0    0 -0.61296005931E+02  0.26868361221E+02  0.25616391123E+03  0.27616156655E+03  0.78524851114E+02 0.  0.
          5    1    5    5  501    0  0.65313986844E+02  0.42749742824E+02  0.19830767292E+03  0.21317007418E+03  0.47000000000E+01 0. -1.
        -13    1    6    6    0    0 -0.25440908042E+02  0.19742192376E+02  0.22733760962E+03  0.22960701798E+03  0.00000000000E+00 0.  1.
         14    1    6    6    0    0 -0.35855097889E+02  0.71261688457E+01  0.28826301617E+02  0.46554548564E+02  0.00000000000E+00 0. -1.
         -5    1    3    3    0  503  0.21662284428E+02 -0.94747882566E+02  0.47309141843E+03  0.48299481985E+03  0.47000000000E+01 0.  1.
         11    1    4    4    0    0 -0.15002651816E+02 -0.67095632028E+01  0.30532111864E+03  0.30576311630E+03  0.00000000000E+00 0. -1.
        -12    1    4    4    0    0 -0.10677613524E+02  0.31839341723E+02  0.51766833665E+02  0.61705430714E+02  0.00000000000E+00 0.  1.
</event>
<event>
12    1  0.8421768E-002  0.2410154E+03  0.7818608E-02  0.1119355E+00
         21   -1    0    0  501  502  0.00000000000E+00  0.00000000000E+00  0.12050817837E+03  0.12050817837E+03  0.00000000000E+00 0. -1.
         21   -1    0    0  502  503 -0.00000000000E+00 -0.00000000000E+00 -0.66822635149E+03  0.66822635149E+03  0.00000000000E+00 0. -1.
         -6    2    1    2    0  503 -0.15228533108E+03 -0.68369056036E+02 -0.48303425178E+03  0.53919011329E+03  0.17186837987E+03 0.  0.
        -24    2    3    3    0    0 -0.75452676467E+02 -0.48445285346E+02 -0.42338025842E+03  0.43978738508E+03  0.78243522386E+02 0.  0.
          6    2    1    2  501    0  0.15228533108E+03  0.68369056036E+02 -0.64683921351E+02  0.24954441657E+03  0.17384837150E+03 0.  0.
         24    2    5    5    0    0  0.77214905079E+02 -0.26355415372E+02 -0.36467170832E+01  0.11406037821E+03  0.79622370267E+02 0.  0.
          5    1    5    5  501    0  0.75070426000E+02  0.94724471408E+02 -0.61037204267E+02  0.13548403835E+03  0.47000000000E+01 0. -1.
        -13    1    6    6    0    0  0.47544052461E+02 -0.45202728424E+02 -0.27967998630E+02  0.71315724274E+02  0.00000000000E+00 0.  1.
         14    1    6    6    0    0  0.29670852617E+02  0.18847313052E+02  0.24321281546E+02  0.42744653939E+02  0.00000000000E+00 0. -1.
         -5    1    3    3    0  503 -0.76832654613E+02 -0.19923770690E+02 -0.59653993356E+02  0.99402728215E+02  0.47000000000E+01 0.  1.
         11    1    4    4    0    0 -0.67478036690E+02 -0.30028894389E+02 -0.16676480474E+03  0.18238837691E+03  0.00000000000E+00 0. -1.
        -12    1    4    4    0    0 -0.79746397763E+01 -0.18416390958E+02 -0.25661545368E+03  0.25739900817E+03  0.00000000000E+00 0.  1.
</event>
<event>
12    1  0.8421768E-002  0.2565294E+03  0.7818608E-02  0.1109326E+00
         21   -1    0    0  503  502  0.00000000000E+00  0.00000000000E+00  0.24263140816E+03  0.24263140816E+03  0.00000000000E+00 0.  1.
         21   -1    0    0  501  503 -0.00000000000E+00 -0.00000000000E+00 -0.41737690517E+03  0.41737690517E+03  0.00000000000E+00 0.  1.
          6    2    1    2  501    0 -0.13234798618E+03  0.13692992223E+03 -0.28296267936E+03  0.38158721764E+03  0.17109977705E+03 0.  0.
         24    2    3    3    0    0 -0.74012655475E+01  0.99252357414E+02 -0.12004639340E+03  0.17279284961E+03  0.74434018603E+02 0.  0.
         -6    2    1    2    0  502  0.13234798618E+03 -0.13692992223E+03  0.10821718235E+03  0.27842109570E+03  0.17187656886E+03 0.  0.
        -24    2    5    5    0    0  0.50415004109E+02 -0.58078019745E+02  0.11981698740E+03  0.16402143855E+03  0.81438276121E+02 0.  0.
          5    1    3    3  501    0 -0.12494672064E+03  0.37677564818E+02 -0.16291628596E+03  0.20879436803E+03  0.47000000000E+01 0. -1.
        -13    1    4    4    0    0 -0.28482601547E+02  0.19247274209E+02 -0.11372086759E+02  0.36208293423E+02  0.00000000000E+00 0.  1.
         14    1    4    4    0    0  0.21081335999E+02  0.80005083206E+02 -0.10867430664E+03  0.13658455619E+03  0.00000000000E+00 0. -1.
         -5    1    5    5    0  502  0.81932982074E+02 -0.78851902487E+02 -0.11599805054E+02  0.11439965714E+03  0.47000000000E+01 0.  1.
         13    1    6    6    0    0  0.21997680602E+02 -0.34767340911E+01 -0.67577244447E+01  0.23273428443E+02  0.00000000000E+00 0. -1.
        -14    1    6    6    0    0  0.28417323507E+02 -0.54601285654E+02  0.12657471185E+03  0.14074801011E+03  0.00000000000E+00 0.  1.
</event>
<event>
12    1  0.8421768E-002  0.2807464E+03  0.7818608E-02  0.1095295E+00
         21   -1    0    0  503  502  0.00000000000E+00  0.00000000000E+00  0.87694523734E+02  0.87694523734E+02  0.00000000000E+00 0.  1.
         21   -1    0    0  501  503 -0.00000000000E+00 -0.00000000000E+00 -0.10051952508E+04  0.10051952508E+04  0.00000000000E+00 0. -1.
          6    2    1    2  501    0  0.17095266303E+03 -0.14188629045E+03 -0.28076525045E+03  0.39704871861E+03  0.17164506016E+03 0.  0.
         24    2    3    3    0    0  0.40544443376E+02 -0.90267067959E+01 -0.78418194891E+02  0.12204982113E+03  0.83793867462E+02 0.  0.
         -6    2    1    2    0  502 -0.17095266303E+03  0.14188629045E+03 -0.63673547667E+03  0.69584105597E+03  0.17148228922E+03 0.  0.
        -24    2    5    5    0    0 -0.15680644336E+03  0.67344590659E+02 -0.31551602109E+03  0.36574923666E+03  0.71404411488E+02 0.  0.
          5    1    3    3  501    0  0.13040821965E+03 -0.13285958365E+03 -0.20234705555E+03  0.27499889748E+03  0.47000000000E+01 0. -1.
        -11    1    4    4    0    0 -0.10371262132E+02 -0.12752819405E+02  0.10509327894E+02  0.19510085950E+02  0.00000000000E+00 0.  1.
         12    1    4    4    0    0  0.50915705509E+02  0.37261126088E+01 -0.88927522786E+02  0.10253973518E+03  0.00000000000E+00 0. -1.
         -5    1    5    5    0  502 -0.14146219670E+02  0.74541699790E+02 -0.32121945558E+03  0.33009181932E+03  0.47000000000E+01 0.  1.
         11    1    6    6    0    0 -0.14982638876E+03  0.48840792319E+02 -0.30510821759E+03  0.34340121462E+03  0.00000000000E+00 0. -1.
        -12    1    6    6    0    0 -0.69800545997E+01  0.18503798340E+02 -0.10407803505E+02  0.22348022038E+02  0.00000000000E+00 0.  1.
</event>
<event>
12    1  0.8421768E-002  0.2800090E+03  0.7818608E-02  0.1096590E+00
         21   -1    0    0  501  502  0.00000000000E+00  0.00000000000E+00  0.26661338295E+03  0.26661338295E+03  0.00000000000E+00 0. -1.
         21   -1    0    0  502  503 -0.00000000000E+00 -0.00000000000E+00 -0.28979844467E+03  0.28979844467E+03  0.00000000000E+00 0.  1.
         -6    2    1    2    0  503 -0.25621962616E+02 -0.21260319750E+03  0.14421575047E+02  0.28038011438E+03  0.18041181270E+03 0.  0.
        -24    2    3    3    0    0 -0.77553527414E+02 -0.80228537559E+02  0.16000485835E+02  0.13809687231E+03  0.79771942067E+02 0.  0.
          6    2    1    2  501    0  0.25621962616E+02  0.21260319750E+03 -0.37606636758E+02  0.27603171324E+03  0.17006658410E+03 0.  0.
         24    2    5    5    0    0  0.18269730810E+02  0.26200445188E+02 -0.23308453186E+02  0.88877847568E+02  0.79597370600E+02 0.  0.
          5    1    5    5  501    0  0.73522318065E+01  0.18640275231E+03 -0.14298183572E+02  0.18715386567E+03  0.47000000000E+01 0. -1.
        -11    1    6    6    0    0 -0.36692339358E+01 -0.19039424178E+02  0.15934456847E+02  0.25097208325E+02  0.00000000000E+00 0.  1.
         12    1    6    6    0    0  0.21938964746E+02  0.45239869366E+02 -0.39242910033E+02  0.63780639243E+02  0.00000000000E+00 0. -1.
         -5    1    3    3    0  503  0.51931564798E+02 -0.13237465994E+03 -0.15789107883E+01  0.14228324208E+03  0.47000000000E+01 0.  1.
         11    1    4    4    0    0  0.55914220020E+01  0.11574842474E+02 -0.17487676893E+01  0.12973016871E+02  0.00000000000E+00 0. -1.
        -12    1    4    4    0    0 -0.83144949416E+02 -0.91803380033E+02  0.17749253525E+02  0.12512385544E+03  0.00000000000E+00 0.  1.
</event>
<event>
12    1  0.8421768E-002  0.3040938E+03  0.7818608E-02  0.1083524E+00
         21   -1    0    0  503  502  0.00000000000E+00  0.00000000000E+00  0.62013049483E+02  0.62013049483E+02  0.00000000000E+00 0.  1.
         21   -1    0    0  501  503 -0.00000000000E+00 -0.00000000000E+00 -0.15135172297E+04  0.15135172297E+04  0.00000000000E+00 0.  1.
          6    2    1    2  501    0 -0.21888599426E+03  0.11860915546E+03 -0.84208510826E+03  0.89445419507E+03  0.17018157150E+03 0.  0.
         24    2    3    3    0    0 -0.13995204969E+03  0.53232684188E+02 -0.69311436601E+03  0.71357019177E+03  0.79715740846E+02 0.  0.
         -6    2    1    2    0  502  0.21888599426E+03 -0.11860915546E+03 -0.60941907196E+03  0.68107608412E+03  0.17462478875E+03 0.  0.
        -24    2    5    5    0    0  0.50059028162E+02 -0.67662249737E+02 -0.34147011352E+03  0.36026949750E+03  0.78154885110E+02 0.  0.
          5    1    3    3  501    0 -0.78933944570E+02  0.65376471276E+02 -0.14897074225E+03  0.18088400330E+03  0.47000000000E+01 0. -1.
        -13    1    4    4    0    0 -0.75897653584E+02  0.69469281242E+02 -0.45218475658E+03  0.46374291255E+03  0.00000000000E+00 0.  1.
         14    1    4    4    0    0 -0.64054396104E+02 -0.16236597054E+02 -0.24092960943E+03  0.24982727922E+03  0.00000000000E+00 0. -1.
         -5    1    5    5    0  502  0.16882696610E+03 -0.50946905728E+02 -0.26794895845E+03  0.32080658662E+03  0.47000000000E+01 0.  1.
         13    1    6    6    0    0 -0.10612715600E+02 -0.50504565472E+02 -0.14320971540E+03  0.15222471367E+03  0.00000000000E+00 0. -1.
        -14    1    6    6    0    0  0.60671743762E+02 -0.17157684265E+02 -0.19826039812E+03  0.20804478384E+03  0.00000000000E+00 0.  1.
</event>
<event>
12    1  0.8421768E-002  0.1730346E+03  0.7818608E-02  0.1175180E+00
         21   -1    0    0  501  502  0.00000000000E+00  0.00000000000E+00  0.17945511743E+03  0.17945511743E+03  0.00000000000E+00 0.  1.
         21   -1    0    0  502  503 -0.00000000000E+00 -0.00000000000E+00 -0.23801616527E+03  0.23801616527E+03  0.00000000000E+00 0. -1.
         -6    2    1    2    0  503 -0.15234177417E+02 -0.19221830541E+01 -0.14469387388E+03  0.22418439594E+03  0.17054779769E+03 0.  0.
        -24    2    3    3    0    0 -0.43288767668E+02 -0.19891860392E+02 -0.16169038540E+03  0.18648902830E+03  0.79779530153E+02 0.  0.
          6    2    1    2  501    0  0.15234177417E+02  0.19221830541E+01  0.86132826042E+02  0.19328688676E+03  0.17235191302E+03 0.  0.
         24    2    5    5    0    0  0.44647379074E+02  0.55388740544E+02  0.32823853632E+02  0.11212195751E+03  0.80203659210E+02 0.  0.
          5    1    5    5  501    0 -0.29413201656E+02 -0.53466557490E+02  0.53308972410E+02  0.81164929255E+02  0.47000000000E+01 0. -1.
        -13    1    6    6    0    0  0.43866574398E+01  0.55296841442E+02  0.43473499761E+02  0.70476440166E+02  0.00000000000E+00 0.  1.
         14    1    6    6    0    0  0.40260721634E+02  0.91899102161E-01 -0.10649646129E+02  0.41645517341E+02  0.00000000000E+00 0. -1.
         -5    1    3    3    0  503  0.28054590251E+02  0.17969677338E+02  0.16996511518E+02  0.37695367641E+02  0.47000000000E+01 0.  1.
         13    1    4    4    0    0 -0.44469432817E+02 -0.41434680785E+02 -0.71927511924E+02  0.94169688320E+02  0.00000000000E+00 0. -1.
        -14    1    4    4    0    0  0.11806651483E+01  0.21542820393E+02 -0.89762873471E+02  0.92319339981E+02  0.00000000000E+00 0.  1.
</event>
<event>
12    1  0.8421768E-002  0.2424318E+03  0.7818608E-02  0.1118373E+00
         21   -1    0    0  503  502  0.00000000000E+00  0.00000000000E+00  0.99502188513E+03  0.99502188513E+03  0.00000000000E+00 0.  1.
         21   -1    0    0  501  503 -0.00000000000E+00 -0.00000000000E+00 -0.14130589650E+03  0.14130589650E+03  0.00000000000E+00 0. -1.
          6    2    1    2  501    0  0.16817031753E+03 -0.22015920058E+02 -0.77451386628E+01  0.24140405754E+03  0.17160995131E+03 0.  0.
         24    2    3    3    0    0  0.64275389129E+02 -0.67309320414E+02  0.15612504901E+02  0.12558817876E+03  0.82865976573E+02 0.  0.
         -6    2    1    2    0  502 -0.16817031753E+03  0.22015920058E+02  0.86146112729E+03  0.89492372409E+03  0.17322598439E+03 0.  0.
        -24    2    5    5    0    0 -0.30371909414E+02  0.13992730248E+02  0.51028126236E+03  0.51756161631E+03  0.79779762971E+02 0.  0.
          5    1    3    3  501    0  0.10389492840E+03  0.45293400356E+02 -0.23357643564E+02  0.11581587878E+03  0.47000000000E+01 0. -1.
        -11    1    4    4    0    0 -0.18951660051E+02 -0.14733974906E+02  0.12573514508E+02  0.27098869022E+02  0.00000000000E+00 0.  1.
         12    1    4    4    0    0  0.83227049180E+02 -0.52575345508E+02  0.30389903930E+01  0.98489309741E+02  0.00000000000E+00 0. -1.
         -5    1    5    5    0  502 -0.13779840812E+03  0.80231898093E+01  0.35117986493E+03  0.37736210778E+03  0.47000000000E+01 0.  1.
         13    1    6    6    0    0 -0.45029320591E+01 -0.18018517728E+02  0.28449466873E+02  0.33975219552E+02  0.00000000000E+00 0. -1.
        -14    1    6    6    0    0 -0.25868977354E+02  0.32011247977E+02  0.48183179549E+03  0.48358639676E+03  0.00000000000E+00 0.  1.
</event>
<event>
12    1  0.8421768E-002  0.3066158E+03  0.7818608E-02  0.1082361E+00
         21   -1    0    0  503  502  0.00000000000E+00  0.00000000000E+00  0.17701431033E+03  0.17701431033E+03  0.00000000000E+00 0. -1.
         21   -1    0    0  501  503 -0.00000000000E+00 -0.00000000000E+00 -0.52628673055E+03  0.52628673055E+03  0.00000000000E+00 0.  1.
          6    2    1    2  501    0 -0.25060478961E+03 -0.34024248201E+02 -0.16387166529E+03  0.34765960238E+03  0.17335762573E+03 0.  0.
         24    2    3    3    0    0 -0.17861071089E+03  0.33597113927E+02 -0.14824758998E+03  0.24754967422E+03  0.79201901247E+02 0.  0.
         -6    2    1    2    0  502  0.25060478961E+03  0.34024248201E+02 -0.18540075494E+03  0.35564143850E+03  0.16777062558E+03 0.  0.
        -24    2    5    5    0    0  0.11444498499E+03  0.70433698362E+01 -0.22005732826E+02  0.14119451397E+03  0.79400093506E+02 0.  0.
          5    1    3    3  501    0 -0.71994078723E+02 -0.67621362128E+02 -0.15624075304E+02  0.10010992816E+03  0.47000000000E+01 0. -1.
        -11    1    4    4    0    0 -0.63462346944E+02  0.51486893957E+02 -0.61151788513E+02  0.10206816824E+03  0.00000000000E+00 0.  1.
         12    1    4    4    0    0 -0.11514836394E+03 -0.17889780030E+02 -0.87095801472E+02  0.14548150598E+03  0.00000000000E+00 0. -1.
         -5    1    5    5    0  502  0.13615980462E+03  0.26980878365E+02 -0.16339502211E+03  0.21444692454E+03  0.47000000000E+01 0.  1.
         13    1    6    6    0    0  0.58487678849E+01 -0.25060149978E+02  0.49624242467E+00  0.25738404364E+02  0.00000000000E+00 0. -1.
        -14    1    6    6    0    0  0.10859621711E+03  0.32103519814E+02 -0.22501975250E+02  0.11545610960E+03  0.00000000000E+00 0.  1.
</event>
<event>
12    1  0.8421768E-002  0.2301518E+03  0.7818608E-02  0.1126593E+00
         21   -1    0    0  501  502  0.00000000000E+00  0.00000000000E+00  0.94075192211E+03  0.94075192211E+03  0.00000000000E+00 0. -1.
         21   -1    0    0  502  503 -0.00000000000E+00 -0.00000000000E+00 -0.27048280905E+03  0.27048280905E+03  0.00000000000E+00 0. -1.
         -6    2    1    2    0  503  0.13586329392E+03 -0.67274759133E+02 -0.20382654054E+03  0.30743308837E+03  0.17316211291E+03 0.  0.
        -24    2    3    3    0    0  0.40327676407E+02  0.15743474484E+02 -0.13532449463E+03  0.16344106908E+03  0.80784192408E+02 0.  0.
          6    2    1    2  501    0 -0.13586329392E+03  0.67274759133E+02  0.87409565360E+03  0.90380164279E+03  0.17271210155E+03 0.  0.
         24    2    5    5    0    0 -0.77810888149E+01 -0.64220606610E+01  0.35783138282E+03  0.36678473450E+03  0.79912168800E+02 0.  0.
          5    1    5    5  501    0 -0.12808220510E+03  0.73696819794E+02  0.51626427078E+03  0.53701690829E+03  0.47000000000E+01 0. -1.
        -11    1    6    6    0    0  0.16126428285E+02  0.27535648747E+02  0.23421506400E+03  0.23637886929E+03  0.00000000000E+00 0.  1.
         12    1    6    6    0    0 -0.23907517100E+02 -0.33957709408E+02  0.12361631882E+03  0.13040586521E+03  0.00000000000E+00 0. -1.
         -5    1    3    3    0  503  0.95535617509E+02 -0.83018233617E+02 -0.68502045909E+02  0.14399201929E+03  0.47000000000E+01 0.  1.
         13    1    4    4    0    0  0.51031358022E+02 -0.18995999139E+02 -0.70018610381E+02  0.88699793035E+02  0.00000000000E+00 0. -1.
        -14    1    4    4    0    0 -0.10703681615E+02  0.34739473623E+02 -0.65305884246E+02  0.74741276046E+02  0.00000000000E+00 0.  1.
</event>
<event>
12    1  0.8421768E-002  0.2627393E+03  0.7818608E-02  0.1105664E+00
         21   -1    0    0  503  502  0.00000000000E+00  0.00000000000E+00  0.76619174471E+02  0.76619174471E+02  0.00000000000E+00 0.  1.
         21   -1    0    0  501  503 -0.00000000000E+00 -0.00000000000E+00 -0.11478036592E+04  0.11478036592E+04  0.00000000000E+00 0.  1.
          6    2    1    2  501    0  0.12125950863E+03  0.15561283425E+03 -0.82070882839E+03  0.86142147722E+03  0.17194405430E+03 0.  0.
         24    2    3    3    0    0  0.13109598423E+03  0.11632823094E+03 -0.47785377733E+03  0.51615098566E+03  0.85727434880E+02 0.  0.
         -6    2    1    2    0  502 -0.12125950863E+03 -0.15561283425E+03 -0.25047565633E+03  0.36300135644E+03  0.17353013498E+03 0.  0.
        -24    2    5    5    0    0 -0.10461646962E+03 -0.31765654389E+02 -0.15662943615E+03  0.20665456962E+03  0.78864874068E+02 0.  0.
          5    1    3    3  501    0 -0.98364755975E+01  0.39284603304E+02 -0.34285505106E+03  0.34527049156E+03  0.47000000000E+01 0. -1.
        -11    1    4    4    0    0  0.15780144358E+02  0.45065698139E+02 -0.58963124866E+02  0.75872130580E+02  0.00000000000E+00 0.  1.
         12    1    4    4    0    0  0.11531583987E+03  0.71262532803E+02 -0.41889065246E+03  0.44027885508E+03  0.00000000000E+00 0. -1.
         -5    1    5    5    0  502 -0.16643039011E+02 -0.12384717986E+03 -0.93846220178E+02  0.15634678682E+03  0.47000000000E+01 0.  1.
         11    1    6    6    0    0 -0.99133847573E+01 -0.70361501976E+01  0.84041706975E+01  0.14778791969E+02  0.00000000000E+00 0. -1.
        -12    1    6    6    0    0 -0.94703084864E+02 -0.24729504191E+02 -0.16503360685E+03  0.19187577765E+03  0.00000000000E+00 0.  1.
</event>
<event>
12    1  0.8421768E-002  0.1879019E+03  0.7818608E-02  0.1160981E+00
         21   -1    0    0  503  502  0.00000000000E+00  0.00000000000E+00  0.42892842645E+03  0.42892842645E+03  0.00000000000E+00 0. -1.
         21   -1    0    0  501  503 -0.00000000000E+00 -0.00000000000E+00 -0.11373068541E+03  0.11373068541E+03  0.00000000000E+00 0. -1.
          6    2    1    2  501    0 -0.15126386829E+02  0.66109574923E+02  0.13185369102E+02  0.18836397065E+03  0.17523654872E+03 0.  0.
         24    2    3    3    0    0  0.18796029218E+02  0.64439296800E+02 -0.49362740520E+02  0.11703462076E+03  0.82187034364E+02 0.  0.
         -6    2    1    2    0  502  0.15126386829E+02 -0.66109574923E+02  0.30201237193E+03  0.35429514121E+03  0.17237833625E+03 0.  0.
        -24    2    5    5    0    0 -0.30069964927E+01  0.29729620776E+02  0.10780889871E+03  0.13692207472E+03  0.78943039751E+02 0.  0.
          5    1    3    3  501    0 -0.33922416047E+02  0.16702781234E+01  0.62548109623E+02  0.71329349898E+02  0.47000000000E+01 0. -1.
        -11    1    4    4    0    0  0.15755139775E+02 -0.47633252434E+01  0.15154529189E+02  0.22373498869E+02  0.00000000000E+00 0.  1.
         12    1    4    4    0    0  0.30408894432E+01  0.69202622043E+02 -0.64517269709E+02  0.94661121887E+02  0.00000000000E+00 0. -1.
         -5    1    5    5    0  502  0.18133383322E+02 -0.95839195699E+02  0.19420347322E+03  0.21737306648E+03  0.47000000000E+01 0.  1.
         11    1    6    6    0    0  0.20108344777E+02  0.59575017418E+01  0.10089447435E+03  0.10305111504E+03  0.00000000000E+00 0. -1.
        -12    1    6    6    0    0 -0.23115341269E+02  0.23772119035E+02  0.69144243603E+01  0.33870959680E+02  0.00000000000E+00 0.  1.
</event>
<event>
12    1  0.8421768E-002  0.2261865E+03  0.7818608E-02  0.1129372E+00
         21   -1    0    0  503  502  0.00000000000E+00  0.00000000000E+00  0.90407972161E+03  0.90407972161E+03  0.00000000000E+00 0. -1.
         21   -1    0    0  501  503 -0.00000000000E+00 -0.00000000000E+00 -0.61038397625E+02  0.61038397625E+02  0.00000000000E+00 0. -1.
          6    2    1    2  501    0  0.85894178213E+02  0.11965500170E+03  0.29074281571E+03  0.36829823052E+03  0.17151405900E+03 0.  0.
         24    2    3    3    0    0  0.89751601147E+02  0.24659875015E+02  0.21407452133E+03  0.24607273739E+03  0.77848776886E+02 0.  0.
         -6    2    1    2    0  502 -0.85894178213E+02 -0.11965500170E+03  0.55229850828E+03  0.59681988872E+03  0.17165432718E+03 0.  0.
        -24    2    5    5    0    0 -0.27232656062E+02 -0.90689574147E+02  0.18300517832E+03  0.22174679754E+03  0.81942238878E+02 0.  0.
          5    1    3    3  501    0 -0.38574229338E+01  0.94995126689E+02  0.76668294383E+02  0.12222549313E+03  0.47000000000E+01 0. -1.
        -13    1    4    4    0    0  0.15044344263E+02  0.23721568455E+02  0.13253906846E+03  0.13548302393E+03  0.00000000000E+00 0.  1.
         14    1    4    4    0    0  0.74707256883E+02  0.93830655947E+00  0.81535452869E+02  0.11058971347E+03  0.00000000000E+00 0. -1.
         -5    1    5    5    0  502 -0.58661522151E+02 -0.28965427558E+02  0.36929332996E+03  0.37507309118E+03  0.47000000000E+01 0.  1.
         11    1    6    6    0    0 -0.46196373038E+02 -0.22742450782E+02  0.53365763777E+02  0.74156784538E+02  0.00000000000E+00 0. -1.
        -12    1    6    6    0    0  0.18963716976E+02 -0.67947123365E+02  0.12963941454E+03  0.14759001300E+03  0.00000000000E+00 0.  1.
</event>
<event>
12    1  0.8421768E-002  0.1793558E+03  0.7818608E-02  0.1168543E+00
         21   -1    0    0  503  502  0.00000000000E+00  0.00000000000E+00  0.14573211770E+03  0.14573211770E+03  0.00000000000E+00 0.  1.
         21   -1    0    0  501  503 -0.00000000000E+00 -0.00000000000E+00 -0.89230534409E+03  0.89230534409E+03  0.00000000000E+00 0.  1.
          6    2    1    2  501    0  0.50963911706E-01  0.50810230666E+02 -0.82386993502E+03  0.84316674908E+03  0.17200818228E+03 0.  0.
         24    2    3    3    0    0  0.56494752584E+02  0.51855234300E+02 -0.36658919013E+03  0.38239048779E+03  0.77163647132E+02 0.  0.
         -6    2    1    2    0  502 -0.50963911706E-01 -0.50810230666E+02  0.77296708631E+02  0.19487071271E+03  0.17151714599E+03 0.  0.
        -24    2    5    5    0    0  0.19603321831E+02  0.24455558084E+02  0.94222334890E+01  0.91525348616E+02  0.85473659143E+02 0.  0.
          5    1    3    3  501    0 -0.56443788673E+02 -0.10450036347E+01 -0.45728074489E+03  0.46077626128E+03  0.47000000000E+01 0. -1.
        -13    1    4    4    0    0  0.49923282862E+02  0.50040136903E+02 -0.36857333524E+03  0.37529009170E+03  0.00000000000E+00 0.  1.
         14    1    4    4    0    0  0.65714697220E+01  0.18150973975E+01  0.19841451132E+01  0.71003960945E+01  0.00000000000E+00 0. -1.
         -5    1    5    5    0  502 -0.19654285742E+02 -0.75265788750E+02  0.67874475142E+02  0.10334536410E+03  0.47000000000E+01 0.  1.
         13    1    6    6    0    0 -0.24797562464E+02  0.23160321717E+02  0.27392641163E+02  0.43608214777E+02  0.00000000000E+00 0. -1.
        -14    1    6    6    0    0  0.44400884294E+02  0.12952363676E+01 -0.17970407674E+02  0.47917133839E+02  0.00000000000E+00 0.  1.
</event>
<event>
12    1  0.8421768E-002  0.2157372E+03  0.7818608E-02  0.1141335E+00
         21   -1    0    0  501  502  0.00000000000E+00  0.00000000000E+00  0.55739575300E+03  0.55739575300E+03  0.00000000000E+00 0. -1.
         21   -1    0    0  502  503 -0.00000000000E+00 -0.00000000000E+00 -0.76639009862E+02  0.76639009862E+02  0.00000000000E+00 0.  1.
         -6    2    1    2    0  503 -0.73146723440E+02  0.71272088528E+02  0.26546127407E+03  0.32924849790E+03  0.16584550518E+03 0.  0.
        -24    2    3    3    0    0 -0.34473655722E+02 -0.20740652361E+01  0.21301879364E+03  0.23102646274E+03  0.82483242885E+02 0.  0.
          6    2    1    2  501    0  0.73146723440E+02 -0.71272088528E+02  0.21529546907E+03  0.30478626496E+03  0.19003256182E+03 0.  0.
         24    2    5    5    0    0  0.52967005713E+02 -0.83460099857E+02  0.51877733684E+02  0.13960995048E+03  0.83836430369E+02 0.  0.
          5    1    5    5  501    0  0.20179717728E+02  0.12188011330E+02  0.16341773539E+03  0.16517631448E+03  0.47000000000E+01 0. -1.
        -11    1    6    6    0    0  0.39827300692E+02 -0.91658043814E+01 -0.99535421629E+01  0.42063034269E+02  0.00000000000E+00 0.  1.
         12    1    6    6    0    0  0.13139705021E+02 -0.74294295476E+02  0.61831275847E+02  0.97546916206E+02  0.00000000000E+00 0. -1.
         -5    1    3    3    0  503 -0.38673067718E+02  0.73346153764E+02  0.52442480435E+02  0.98222035169E+02  0.47000000000E+01 0.  1.
         11    1    4    4    0    0 -0.20264698723E+02  0.39096378328E+02  0.13033455317E+03  0.13757281913E+03  0.00000000000E+00 0. -1.
        -12    1    4    4    0    0 -0.14208956999E+02 -0.41170443565E+02  0.82684240468E+02  0.93453643610E+02  0.00000000000E+00 0.  1.
</event>
<event>
12    1  0.8421768E-002  0.2662709E+03  0.7818608E-02  0.1103454E+00
         21   -1    0    0  503  502  0.00000000000E+00  0.00000000000E+00  0.51925311367E+03  0.51925311367E+03  0.00000000000E+00 0. -1.
         21   -1    0    0  501  503 -0.00000000000E+00 -0.00000000000E+00 -0.15289985664E+03  0.15289985664E+03  0.00000000000E+00 0. -1.
          6    2    1    2  501    0  0.12209437513E+03  0.16245395905E+03  0.72964836184E+02  0.27594975950E+03  0.17183153726E+03 0.  0.
         24    2    3    3    0    0  0.13294110046E+03  0.89579629454E+02  0.10935971243E+02  0.17952367666E+03  0.80070648869E+02 0.  0.
         -6    2    1    2    0  502 -0.12209437513E+03 -0.16245395905E+03  0.29338842084E+03  0.39620321082E+03  0.17205200821E+03 0.  0.
        -24    2    5    5    0    0 -0.63331476545E+02 -0.17889903776E+03  0.23683832906E+03  0.31287541387E+03  0.76045307936E+02 0.  0.
          5    1    3    3  501    0 -0.10846725334E+02  0.72874329600E+02  0.62028864941E+02  0.96426082835E+02  0.47000000000E+01 0. -1.
        -11    1    4    4    0    0  0.31023096329E+02 -0.87743282452E+01  0.19413983106E+02  0.37634081390E+02  0.00000000000E+00 0.  1.
         12    1    4    4    0    0  0.10191800413E+03  0.98353957700E+02 -0.84780118637E+01  0.14188959527E+03  0.00000000000E+00 0. -1.
         -5    1    5    5    0  502 -0.58762898580E+02  0.16445078708E+02  0.56550091778E+02  0.83327796943E+02  0.47000000000E+01 0.  1.
         13    1    6    6    0    0 -0.77963108620E+02 -0.11557226884E+03  0.15856463932E+03  0.21113488691E+03  0.00000000000E+00 0. -1.
        -14    1    6    6    0    0  0.14631632075E+02 -0.63326768926E+02  0.78273689744E+02  0.10174052696E+03  0.00000000000E+00 0.  1.
</event>
<event>
12    1  0.8421768E-002  0.2071202E+03  0.7818608E-02  0.1144038E+00
         21   -1    0    0  501  502  0.00000000000E+00  0.00000000000E+00  0.27364061585E+03  0.27364061585E+03  0.00000000000E+00 0.  1.
         21   -1    0    0  502  503 -0.00000000000E+00 -0.00000000000E+00 -0.33809047714E+03  0.33809047714E+03  0.00000000000E+00 0. -1.
         -6    2    1    2    0  503  0.51830810279E+02  0.10763325350E+03 -0.25664419185E+03  0.32979543140E+03  0.16919643970E+03 0.  0.
        -24    2    3    3    0    0  0.56953301584E+02  0.13324142313E+03 -0.16239641049E+03  0.23188346808E+03  0.80002457640E+02 0.  0.
          6    2    1    2  501    0 -0.51830810279E+02 -0.10763325350E+03  0.19219433056E+03  0.28193566159E+03  0.16815976458E+03 0.  0.
         24    2    5    5    0    0 -0.44973385843E+02 -0.12497425901E+03  0.20813398426E+03  0.25695772527E+03  0.71178271419E+02 0.  0.
          5    1    5    5  501    0 -0.68574244359E+01  0.17341005517E+02 -0.15939653706E+02  0.24977936314E+02  0.47000000000E+01 0. -1.
        -13    1    6    6    0    0 -0.27814210007E+02 -0.15619716938E+02  0.17159351506E+02  0.36222219419E+02  0.00000000000E+00 0.  1.
         14    1    6    6    0    0 -0.17159175836E+02 -0.10935454208E+03  0.19097463276E+03  0.22073550585E+03  0.00000000000E+00 0. -1.
         -5    1    3    3    0  503 -0.51224913053E+01 -0.25608169637E+02 -0.94247781363E+02  0.97911963320E+02  0.47000000000E+01 0.  1.
         13    1    4    4    0    0 -0.18933427902E+02  0.35446185775E+02 -0.26906920204E+02  0.48362062952E+02  0.00000000000E+00 0. -1.
        -14    1    4    4    0    0  0.75886729485E+02  0.97795237359E+02 -0.13548949028E+03  0.18352140512E+03  0.00000000000E+00 0.  1.
</event>
<event>
12    1  0.8421768E-002  0.2254219E+03  0.7818608E-02  0.1133585E+00
         21   -1    0    0  503  502  0.00000000000E+00  0.00000000000E+00  0.22312224304E+03  0.22312224304E+03  0.00000000000E+00 0. -1.
         21   -1    0    0  501  503 -0.00000000000E+00 -0.00000000000E+00 -0.21077302654E+03  0.21077302654E+03  0.00000000000E+00 0. -1.
          6    2    1    2  501    0 -0.11617619087E+03  0.36083551548E+02  0.28188289882E+02  0.20791754652E+03  0.16624138006E+03 0.  0.
         24    2    3    3    0    0 -0.53553836610E+02  0.11705273787E+02 -0.46445265596E+02  0.10737841342E+03  0.79799336606E+02 0.  0.
         -6    2    1    2    0  502  0.11617619087E+03 -0.36083551548E+02 -0.15839073380E+02  0.22597772305E+03  0.18977914810E+03 0.  0.
        -24    2    5    5    0    0  0.14533532898E+03 -0.54591221910E+02 -0.45123098820E+02  0.18045373659E+03  0.80155459215E+02 0.  0.
          5    1    3    3  501    0 -0.62622354265E+02  0.24378277761E+02  0.74633555479E+02  0.10053913310E+03  0.47000000000E+01 0. -1.
        -13    1    4    4    0    0  0.52969367509E+01  0.33297588877E+02 -0.11587975275E+02  0.35652042508E+02  0.00000000000E+00 0.  1.
         14    1    4    4    0    0 -0.58850773361E+02 -0.21592315091E+02 -0.34857290321E+02  0.71726370915E+02  0.00000000000E+00 0. -1.
         -5    1    5    5    0  502 -0.29159138110E+02  0.18507670362E+02  0.29284025441E+02  0.45523986464E+02  0.47000000000E+01 0.  1.
         11    1    6    6    0    0  0.21590504001E+02 -0.40615291154E+02  0.48859478569E+01  0.46256072304E+02  0.00000000000E+00 0. -1.
        -12    1    6    6    0    0  0.12374482498E+03 -0.13975930756E+02 -0.50009046677E+02  0.13419766429E+03  0.00000000000E+00 0.  1.
</event>
<event>
12    1  0.8421768E-002  0.2131996E+03  0.7818608E-02  0.1139209E+00
         21   -1    0    0  501  502  0.00000000000E+00  0.00000000000E+00  0.29552674016E+03  0.29552674016E+03  0.00000000000E+00 0.  1.
         21   -1    0    0  502  503 -0.00000000000E+00 -0.00000000000E+00 -0.23416896649E+03  0.23416896649E+03  0.00000000000E+00 0.  1.
         -6    2    1    2    0  503 -0.73275153842E+02 -0.10020215497E+03 -0.12497960307E+03  0.24713146440E+03  0.17333303055E+03 0.  0.
        -24    2    3    3    0    0 -0.79564594433E+02 -0.79382387807E+01 -0.97543190202E+02  0.15055489351E+03  0.82210471856E+02 0.  0.
          6    2    1    2  501    0  0.73275153842E+02  0.10020215497E+03  0.18633737674E+03  0.28256424225E+03  0.17236940853E+03 0.  0.
         24    2    5    5    0    0  0.68640179668E+02  0.23612376147E+02  0.17608357139E+03  0.20500969545E+03  0.75858635249E+02 0.  0.
          5    1    5    5  501    0  0.46349741737E+01  0.76589778821E+02  0.10253805350E+02  0.77554546801E+02  0.47000000000E+01 0. -1.
        -13    1    6    6    0    0  0.30737346562E+02  0.46529522660E+02  0.12808190363E+03  0.13969522179E+03  0.00000000000E+00 0.  1.
         14    1    6    6    0    0  0.37902833106E+02 -0.22917146513E+02  0.48001667758E+02  0.65314473659E+02  0.00000000000E+00 0. -1.
         -5    1    3    3    0  503  0.62894405914E+01 -0.92263916187E+02 -0.27436412871E+02  0.96576570887E+02  0.47000000000E+01 0.  1.
         11    1    4    4    0    0  0.34408926640E+01  0.16073340149E+02 -0.48475016369E+02  0.51186123294E+02  0.00000000000E+00 0. -1.
        -12    1    4    4    0    0 -0.83005487097E+02 -0.24011578930E+02 -0.49068173833E+02  0.99368770216E+02  0.00000000000E+00 0.  1.
</event>
<event>
12    1  0.8421768E-002  0.1891194E+03  0.7818608E-02  0.1159367E+00
         21   -1    0    0  503  502  0.00000000000E+00  0.00000000000E+00  0.94942763318E+02  0.94942763318E+02  0.00000000000E+00 0. -1.
         21   -1    0    0  501  503 -0.00000000000E+00 -0.00000000000E+00 -0.11375979326E+04  0.11375979326E+04  0.00000000000E+00 0. -1.
          6    2    1    2  501    0  0.75294983515E+02 -0.17794631708E+02 -0.10254317658E+04  0.10426386362E+04  0.17204370359E+03 0.  0.
         24    2    3    3    0    0  0.11415590937E+03 -0.39945063617E+02 -0.78397501673E+03  0.79702865094E+03  0.77528470978E+02 0.  0.
         -6    2    1    2    0  502 -0.75294983515E+02  0.17794631708E+02 -0.17223403488E+02  0.18990205971E+03  0.17256929969E+03 0.  0.
        -24    2    5    5    0    0 -0.76736969602E+02 -0.11236039004E+02  0.45724094940E+02  0.12040863035E+03  0.79954576664E+02 0.  0.
          5    1    3    3  501    0 -0.38860925858E+02  0.22150431909E+02 -0.24145674903E+03  0.24560998523E+03  0.47000000000E+01 0. -1.
        -11    1    4    4    0    0  0.38408928227E+02 -0.53571321777E+02 -0.32070873490E+03  0.32741292725E+03  0.00000000000E+00 0.  1.
         12    1    4    4    0    0  0.75746981147E+02  0.13626258160E+02 -0.46326628182E+03  0.46961572369E+03  0.00000000000E+00 0. -1.
         -5    1    5    5    0  502  0.14419860870E+01  0.29030670711E+02 -0.62947498428E+02  0.69493429360E+02  0.47000000000E+01 0.  1.
         13    1    6    6    0    0 -0.52266679133E+02  0.89056836183E+01 -0.12177511591E+02  0.54400447947E+02  0.00000000000E+00 0. -1.
        -14    1    6    6    0    0 -0.24470290469E+02 -0.20141722622E+02  0.57901606531E+02  0.66008182407E+02  0.00000000000E+00 0.  1.
</event>
<event>
12    1  0.8421768E-002  0.2673174E+03  0.7818608E-02  0.1102920E+00
         21   -1    0    0  501  502  0.00000000000E+00  0.00000000000E+00  0.93890844802E+03  0.93890844802E+03  0.00000000000E+00 0. -1.
         21   -1    0    0  502  503 -0.00000000000E+00 -0.00000000000E+00 -0.75981683087E+02  0.75981683087E+02  0.00000000000E+00 0. -1.
         -6    2    1    2    0  503 -0.19609443590E+03  0.54320100648E+02  0.41779999055E+03  0.49599939512E+03  0.17336339501E+03 0.  0.
        -24    2    3    3    0    0 -0.66227174361E+02 -0.76740341460E+01  0.25722789695E+03  0.28032773353E+03  0.89288956734E+02 0.  0.
          6    2    1    2  501    0  0.19609443590E+03 -0.54320100648E+02  0.44512677438E+03  0.51889073599E+03  0.17235442988E+03 0.  0.
         24    2    5    5    0    0  0.35754685699E+02  0.18523753278E+02  0.16621761478E+03  0.18900064541E+03  0.80445146026E+02 0.  0.
          5    1    5    5  501    0  0.16033975020E+03 -0.72843853926E+02  0.27890915960E+03  0.32989009057E+03  0.47000000000E+01 0. -1.
        -11    1    6    6    0    0 -0.19580141204E+02 -0.28352068730E+01  0.10562535626E+02  0.22427382514E+02  0.00000000000E+00 0.  1.
         12    1    6    6    0    0  0.55334826903E+02  0.21358960151E+02  0.15565507915E+03  0.16657326290E+03  0.00000000000E+00 0. -1.
         -5    1    3    3    0  503 -0.12986726154E+03  0.61994134793E+02  0.16057209360E+03  0.21567166159E+03  0.47000000000E+01 0.  1.
         13    1    4    4    0    0 -0.58508427607E+02  0.95289210572E+01  0.68200612466E+02  0.90362381433E+02  0.00000000000E+00 0. -1.
        -14    1    4    4    0    0 -0.77187467549E+01 -0.17202955203E+02  0.18902728448E+03  0.18996535210E+03  0.00000000000E+00 0.  1.
</event>
<event>
12    1  0.8421768E-002  0.1795836E+03  0.7818608E-02  0.1168573E+00
         21   -1    0    0  503  502  0.00000000000E+00  0.00000000000E+00  0.13112262557E+03  0.13112262557E+03  0.00000000000E+00 0.  1.
         21   -1    0    0  501  503 -0.00000000000E+00 -0.00000000000E+00 -0.49156254310E+03  0.49156254310E+03  0.00000000000E+00 0.  1.
          6    2    1    2  501    0  0.46718474927E+02 -0.64604589783E-01 -0.40083677427E+03  0.43861403759E+03  0.17184159652E+03 0.  0.
         24    2    3    3    0    0  0.35918341149E+02 -0.57025508923E+02 -0.33246554400E+03  0.34884821648E+03  0.81361565218E+02 0.  0.
         -6    2    1    2    0  502 -0.46718474927E+02  0.64604589783E-01  0.40396856742E+02  0.18407113108E+03  0.17340027447E+03 0.  0.
        -24    2    5    5    0    0 -0.10269268148E+01 -0.49182095627E+02  0.63435985277E+02  0.11289637084E+03  0.79382197068E+02 0.  0.
          5    1    3    3  501    0  0.10800133778E+02  0.56960904333E+02 -0.68371230265E+02  0.89765821113E+02  0.47000000000E+01 0. -1.
        -11    1    4    4    0    0  0.42020795900E+02 -0.65783152316E+02 -0.18236677581E+03  0.19837038926E+03  0.00000000000E+00 0.  1.
         12    1    4    4    0    0 -0.61024547510E+01  0.87576433939E+01 -0.15009876819E+03  0.15047782722E+03  0.00000000000E+00 0. -1.
         -5    1    5    5    0  502 -0.45691548112E+02  0.49246700217E+02 -0.23039128535E+02  0.71174760237E+02  0.47000000000E+01 0.  1.
         11    1    6    6    0    0  0.12690551529E+02  0.47017749290E+01 -0.12739637105E+02  0.18586423518E+02  0.00000000000E+00 0. -1.
        -12    1    6    6    0    0 -0.13717478344E+02 -0.53883870556E+02  0.76175622382E+02  0.94309947321E+02  0.00000000000E+00 0.  1.
</event>
<event>
12    1  0.8421768E-002  0.3289051E+03  0.7818608E-02  0.1071730E+00
         21   -1    0    0  501  502  0.00000000000E+00  0.00000000000E+00  0.13166808344E+03  0.13166808344E+03  0.00000000000E+00 0. -1.
         21   -1    0    0  502  503 -0.00000000000E+00 -0.00000000000E+00 -0.97144335969E+03  0.97144335969E+03  0.00000000000E+00 0.  1.
         -6    2    1    2    0  503  0.23709628492E+03 -0.14763872617E+03 -0.63772462961E+03  0.71710237609E+03  0.17184665489E+03 0.  0.
        -24    2    3    3    0    0  0.10099430553E+03 -0.55520983747E+01 -0.27391372065E+03  0.30346869024E+03  0.82667067505E+02 0.  0.
          6    2    1    2  501    0 -0.23709628492E+03  0.14763872617E+03 -0.20205064664E+03  0.38600906704E+03  0.17368561898E+03 0.  0.
         24    2    5    5    0    0 -0.22988504211E+03  0.76451322962E+02 -0.13759745434E+03  0.28959354757E+03  0.78990037230E+02 0.  0.
          5    1    5    5  501    0 -0.72112428118E+01  0.71187403205E+02 -0.64453192302E+02  0.96415519476E+02  0.47000000000E+01 0. -1.
        -13    1    6    6    0    0 -0.13134623682E+03  0.12650949532E+02 -0.10244492790E+03  0.16705341572E+03  0.00000000000E+00 0.  1.
         14    1    6    6    0    0 -0.98538805294E+02  0.63800373430E+02 -0.35152526441E+02  0.12254013185E+03  0.00000000000E+00 0. -1.
         -5    1    3    3    0  503  0.13610197939E+03 -0.14208662779E+03 -0.36381090896E+03  0.41363368585E+03  0.47000000000E+01 0.  1.
         13    1    4    4    0    0 -0.10989262253E+02 -0.11190619371E+02 -0.16872737255E+02  0.23036560274E+02  0.00000000000E+00 0. -1.
        -14    1    4    4    0    0  0.11198356778E+03  0.56385209968E+01 -0.25704098340E+03  0.28043212997E+03  0.00000000000E+00 0.  1.
</event>
<event>
12    1  0.8421768E-002  0.2185159E+03  0.7818608E-02  0.1135024E+00
         21   -1    0    0  503  502  0.00000000000E+00  0.00000000000E+00  0.20035243675E+03  0.20035243675E+03  0.00000000000E+00 0.  1.
         21   -1    0    0  501  503 -0.00000000000E+00 -0.00000000000E+00 -0.24632128523E+03  0.24632128523E+03  0.00000000000E+00 0.  1.
          6    2    1    2  501    0 -0.12013855274E+03  0.55817717745E+02 -0.63639883782E+02  0.22744450263E+03  0.17358593693E+03 0.  0.
         24    2    3    3    0    0  0.48061628709E+01  0.51610329183E+02 -0.33166975703E+02  0.98682814988E+02  0.77146123796E+02 0.  0.
         -6    2    1    2    0  502  0.12013855274E+03 -0.55817717745E+02  0.17671035295E+02  0.21922921935E+03  0.17378232262E+03 0.  0.
        -24    2    5    5    0    0 -0.10679608284E+02 -0.20366016092E+02 -0.21048624923E+01  0.82176709196E+02  0.78865407142E+02 0.  0.
          5    1    3    3  501    0 -0.12494471561E+03  0.42073885619E+01 -0.30472908079E+02  0.12876168765E+03  0.47000000000E+01 0. -1.
        -13    1    4    4    0    0 -0.19603744825E+02 -0.10305211882E+02  0.39228252360E+01  0.22492059953E+02  0.00000000000E+00 0.  1.
         14    1    4    4    0    0  0.24409907696E+02  0.61915541066E+02 -0.37089800939E+02  0.76190755035E+02  0.00000000000E+00 0. -1.
         -5    1    5    5    0  502  0.13081816103E+03 -0.35451701653E+02  0.19775897788E+02  0.13705251015E+03  0.47000000000E+01 0.  1.
         13    1    6    6    0    0  0.28342085740E+02 -0.11480635561E+02 -0.21817827312E+02  0.37564563163E+02  0.00000000000E+00 0. -1.
        -14    1    6    6    0    0 -0.39021694025E+02 -0.88853805308E+01  0.19712964820E+02  0.44612146033E+02  0.00000000000E+00 0.  1.
</event>
<event>
12    1  0.8421768E-002  0.2083235E+03  0.7818608E-02  0.1142930E+00
         21   -1    0    0  501  502  0.00000000000E+00  0.00000000000E+00  0.22836922900E+03  0.22836922900E+03  0.00000000000E+00 0. -1.
         21   -1    0    0  502  503 -0.00000000000E+00 -0.00000000000E+00 -0.19348057349E+03  0.19348057349E+03  0.00000000000E+00 0. -1.
         -6    2    1    2    0  503  0.63959148699E+02  0.98782705987E+02 -0.11222749887E+02  0.20862552701E+03  0.17190074083E+03 0.  0.
        -24    2    3    3    0    0  0.36009058009E+02  0.10047018246E+03 -0.65230893560E+02  0.14760893312E+03  0.78373578709E+02 0.  0.
          6    2    1    2  501    0 -0.63959148699E+02 -0.98782705987E+02  0.46111405399E+02  0.21322427548E+03  0.17172517067E+03 0.  0.
         24    2    5    5    0    0 -0.86328237385E+02 -0.83400684952E+02  0.83633724561E+02  0.16667325900E+03  0.79856975662E+02 0.  0.
          5    1    5    5  501    0  0.22369088687E+02 -0.15382021035E+02 -0.37522319162E+02  0.46551016478E+02  0.47000000000E+01 0. -1.
        -11    1    6    6    0    0  0.11082344367E+02  0.27232986329E+00 -0.33405392599E+01  0.11578070770E+02  0.00000000000E+00 0.  1.
         12    1    6    6    0    0 -0.97410581752E+02 -0.83673014815E+02  0.86974263821E+02  0.15509518823E+03  0.00000000000E+00 0. -1.
         -5    1    3    3    0  503  0.27950090689E+02 -0.16874764745E+01  0.54008143673E+02  0.61016593885E+02  0.47000000000E+01 0.  1.
         11    1    4    4    0    0  0.22334173108E+00  0.78025857677E+02 -0.70350028897E+02  0.10505813112E+03  0.00000000000E+00 0. -1.
        -12    1    4    4    0    0  0.35785716278E+02  0.22444324785E+02  0.51191353373E+01  0.42550802004E+02  0.00000000000E+00 0.  1.
</event>
<event>
12    1  0.8421768E-002  0.2200790E+03  0.7818608E-02  0.1133844E+00
         21   -1    0    0  501  502  0.00000000000E+00  0.00000000000E+00  0.34359461976E+02  0.34359461976E+02  0.00000000000E+00 0. -1.
         21   -1    0    0  502  503 -0.00000000000E+00 -0.00000000000E+00 -0.14216148713E+04  0.14216148713E+04  0.00000000000E+00 0. -1.
         -6    2    1    2    0  503  0.10323844764E+03  0.89894458163E+02 -0.76246740461E+03  0.79359392382E+03  0.17232406148E+03 0.  0.
        -24    2    3    3    0    0  0.35598572325E+02  0.54392503244E+02 -0.64667189098E+03  0.65479106898E+03  0.79630438146E+02 0.  0.
          6    2    1    2  501    0 -0.10323844764E+03 -0.89894458163E+02 -0.62478800473E+03  0.66238040947E+03  0.17218758756E+03 0.  0.
         24    2    5    5    0    0 -0.10058217675E+03 -0.41217987620E+01 -0.44614858008E+03  0.46414282747E+03  0.79033191000E+02 0.  0.
          5    1    5    5  501    0 -0.26562708873E+01 -0.85772659401E+02 -0.17863942465E+03  0.19823758200E+03  0.47000000000E+01 0. -1.
        -11    1    6    6    0    0 -0.85399404716E+02 -0.86093797216E+00 -0.43867115129E+03  0.44690734891E+03  0.00000000000E+00 0.  1.
         12    1    6    6    0    0 -0.15182772034E+02 -0.32608607898E+01 -0.74774287903E+01  0.17235478555E+02  0.00000000000E+00 0. -1.
         -5    1    3    3    0  503  0.67639875312E+02  0.35501954919E+02 -0.11579551363E+03  0.13880285484E+03  0.47000000000E+01 0.  1.
         11    1    4    4    0    0 -0.16149983004E+02  0.19799574530E+02 -0.65690190295E+02  0.70484368505E+02  0.00000000000E+00 0. -1.
        -12    1    4    4    0    0  0.51748555329E+02  0.34592928714E+02 -0.58098170068E+03  0.58430670048E+03  0.00000000000E+00 0.  1.
</event>
<event>
12    1  0.8421768E-002  0.2051114E+03  0.7818608E-02  0.1147814E+00
         21   -1    0    0  503  502  0.00000000000E+00  0.00000000000E+00  0.13064374891E+03  0.13064374891E+03  0.00000000000E+00 0. -1.
         21   -1    0    0  501  503 -0.00000000000E+00 -0.00000000000E+00 -0.55211058726E+03  0.55211058726E+03  0.00000000000E+00 0. -1.
          6    2    1    2  501    0 -0.40165507588E+02 -0.80318289016E+02 -0.44230429752E+03  0.48754873144E+03  0.18440818413E+03 0.  0.
         24    2    3    3    0    0 -0.74081791861E+02 -0.18918929814E+02 -0.37291503190E+03  0.38877041483E+03  0.78935268658E+02 0.  0.
         -6    2    1    2    0  502  0.40165507588E+02  0.80318289016E+02  0.20837459170E+02  0.19520560473E+03  0.17206607121E+03 0.  0.
        -24    2    5    5    0    0  0.25287299339E+01 -0.15743534233E+02 -0.16175302365E+02  0.85494915029E+02  0.82422610636E+02 0.  0.
          5    1    3    3  501    0  0.33916284273E+02 -0.61399359202E+02 -0.69389265623E+02  0.98778316613E+02  0.47000000000E+01 0. -1.
        -11    1    4    4    0    0 -0.16722997396E+02  0.68579206793E+01 -0.10423590485E+02  0.20864825821E+02  0.00000000000E+00 0.  1.
         12    1    4    4    0    0 -0.57358794465E+02 -0.25776850493E+02 -0.36249144142E+03  0.36790558901E+03  0.00000000000E+00 0. -1.
         -5    1    5    5    0  502  0.37636777654E+02  0.96061823248E+02  0.37012761534E+02  0.10971068970E+03  0.47000000000E+01 0.  1.
         11    1    6    6    0    0  0.17693828019E+01 -0.42629547745E+02  0.14158300705E+02  0.44954049154E+02  0.00000000000E+00 0. -1.
        -12    1    6    6    0    0  0.75934713200E+00  0.26886013513E+02 -0.30333603070E+02  0.40540865875E+02  0.00000000000E+00 0.  1.
</event>
<event>
12    1  0.8421768E-002  0.1853561E+03  0.7818608E-02  0.1163130E+00
         21   -1    0    0  503  502  0.00000000000E+00  0.00000000000E+00  0.35741464909E+02  0.35741464909E+02  0.00000000000E+00 0.  1.
         21   -1    0    0  501  503 -0.00000000000E+00 -0.00000000000E+00 -0.95576234906E+03  0.95576234906E+03  0.00000000000E+00 0.  1.
          6    2    1    2  501    0 -0.46276685872E+01  0.63650708082E+02 -0.49265059435E+03  0.52636630018E+03  0.17402311887E+03 0.  0.
         24    2    3    3    0    0  0.10618463561E+02  0.10293325775E+03 -0.43597644189E+03  0.45558768187E+03  0.82320536129E+02 0.  0.
         -6    2    1    2    0  502  0.46276685872E+01 -0.63650708082E+02 -0.42737028980E+03  0.46513751378E+03  0.17214736178E+03 0.  0.
        -24    2    5    5    0    0  0.61881136651E+02 -0.34964214080E+02 -0.32791946372E+03  0.34675917391E+03  0.87515590968E+02 0.  0.
          5    1    3    3  501    0 -0.15246132148E+02 -0.39282549667E+02 -0.56674152458E+02  0.70778618315E+02  0.47000000000E+01 0. -1.
        -11    1    4    4    0    0  0.13653201551E+02  0.94603998345E+01 -0.21493383789E+03  0.21557472892E+03  0.00000000000E+00 0.  1.
         12    1    4    4    0    0 -0.30347379897E+01  0.93472857915E+02 -0.22104260400E+03  0.24001295295E+03  0.00000000000E+00 0. -1.
         -5    1    5    5    0  502 -0.57253468064E+02 -0.28686494002E+02 -0.99450826079E+02  0.11837833987E+03  0.47000000000E+01 0.  1.
         13    1    6    6    0    0  0.49054066131E+02 -0.16306916325E+02 -0.65863991321E+02  0.83727428462E+02  0.00000000000E+00 0. -1.
        -14    1    6    6    0    0  0.12827070520E+02 -0.18657297755E+02 -0.26205547240E+03  0.26303174545E+03  0.00000000000E+00 0.  1.
</event>
<event>
12    1  0.8421768E-002  0.3518738E+03  0.7818608E-02  0.1062647E+00
         21   -1    0    0  503  502  0.00000000000E+00  0.00000000000E+00  0.53097384229E+03  0.53097384229E+03  0.00000000000E+00 0.  1.
         21   -1    0    0  501  503 -0.00000000000E+00 -0.00000000000E+00 -0.29860139812E+03  0.29860139812E+03  0.00000000000E+00 0. -1.
          6    2    1    2  501    0 -0.19918890320E+03 -0.23312576292E+03 -0.86365247087E+02  0.35480278279E+03  0.15621209387E+03 0.  0.
         24    2    3    3    0    0 -0.16613385311E+03 -0.11611540505E+03 -0.41211090541E+02  0.22501430857E+03  0.88599326406E+02 0.  0.
         -6    2    1    2    0  502  0.19918890320E+03  0.23312576292E+03  0.31873769126E+03  0.47477245762E+03  0.17260165177E+03 0.  0.
        -24    2    5    5    0    0  0.15514745525E+03  0.19530479626E+03  0.32365495182E+03  0.41632295713E+03  0.79734437255E+02 0.  0.
          5    1    3    3  501    0 -0.33055050091E+02 -0.11701035787E+03 -0.45154156546E+02  0.12978847421E+03  0.47000000000E+01 0. -1.
        -13    1    4    4    0    0  0.15867078047E+01 -0.81274551932E+00  0.14011697579E+02  0.14124654544E+02  0.00000000000E+00 0.  1.
         14    1    4    4    0    0 -0.16772056092E+03 -0.11530265953E+03 -0.55222788120E+02  0.21088965403E+03  0.00000000000E+00 0. -1.
         -5    1    5    5    0  502  0.44041447952E+02  0.37820966655E+02 -0.49172605585E+01  0.58449500493E+02  0.47000000000E+01 0.  1.
         13    1    6    6    0    0  0.60617173910E+02  0.10544825775E+03  0.10018511413E+03  0.15757802489E+03  0.00000000000E+00 0. -1.
        -14    1    6    6    0    0  0.94530281340E+02  0.89856538513E+02  0.22346983769E+03  0.25874493224E+03  0.00000000000E+00 0.  1.
</event>
<event>
12    1  0.8421768E-002  0.2086417E+03  0.7818608E-02  0.1142888E+00
         21   -1    0    0  503  502  0.00000000000E+00  0.00000000000E+00  0.14342625724E+03  0.14342625724E+03  0.00000000000E+00 0. -1.
         21   -1    0    0  501  503 -0.00000000000E+00 -0.00000000000E+00 -0.48684155377E+03  0.48684155377E+03  0.00000000000E+00 0.  1.
          6    2    1    2  501    0  0.78022696730E+02  0.85446694221E+02 -0.36632262976E+03  0.42157278743E+03  0.17361643720E+03 0.  0.
         24    2    3    3    0    0  0.30088892532E+00  0.38932145636E+02 -0.27575352935E+03  0.29339660170E+03  0.92335012004E+02 0.  0.
         -6    2    1    2    0  502 -0.78022696730E+02 -0.85446694221E+02  0.22907333229E+02  0.20869502359E+03  0.17216326030E+03 0.  0.
        -24    2    5    5    0    0  0.88692996770E+01 -0.84555320865E+01  0.41594391137E+02  0.91012594059E+02  0.80018987769E+02 0.  0.
          5    1    3    3  501    0  0.77721807805E+02  0.46514548586E+02 -0.90569100414E+02  0.12817618573E+03  0.47000000000E+01 0. -1.
        -11    1    4    4    0    0  0.86206398279E+01  0.15116397151E+02 -0.26565333410E+03  0.26622267899E+03  0.00000000000E+00 0.  1.
         12    1    4    4    0    0 -0.83197509026E+01  0.23815748485E+02 -0.10100195251E+02  0.27173922703E+02  0.00000000000E+00 0. -1.
         -5    1    5    5    0  502 -0.86891996407E+02 -0.76991162135E+02 -0.18687057908E+02  0.11768242953E+03  0.47000000000E+01 0.  1.
         13    1    6    6    0    0 -0.34888976454E+02  0.17552359852E+01  0.10893951431E+02  0.36592344953E+02  0.00000000000E+00 0. -1.
        -14    1    6    6    0    0  0.43758276131E+02 -0.10210768072E+02  0.30700439706E+02  0.54420249106E+02  0.00000000000E+00 0.  1.
</event>
<event>
12    1  0.8421768E-002  0.1849803E+03  0.7818608E-02  0.1164519E+00
         21   -1    0    0  501  502  0.00000000000E+00  0.00000000000E+00  0.18294074895E+03  0.18294074895E+03  0.00000000000E+00 0. -1.
         21   -1    0    0  502  503 -0.00000000000E+00 -0.00000000000E+00 -0.18633095407E+03  0.18633095407E+03  0.00000000000E+00 0. -1.
         -6    2    1    2    0  503  0.42972026874E+02 -0.27163113274E+02 -0.33118998442E+02  0.18191770336E+03  0.17150146624E+03 0.  0.
        -24    2    3    3    0    0  0.84387861444E+02 -0.57079774620E+02 -0.22132724420E+02  0.12944803406E+03  0.76730203979E+02 0.  0.
          6    2    1    2  501    0 -0.42972026874E+02  0.27163113274E+02  0.29728793330E+02  0.18735399966E+03  0.17785749975E+03 0.  0.
         24    2    5    5    0    0 -0.20674063778E+02  0.77886330999E+02 -0.16856021785E+02  0.11481243244E+03  0.80025444103E+02 0.  0.
          5    1    5    5  501    0 -0.22297963096E+02 -0.50723217725E+02  0.46584815115E+02  0.72541567214E+02  0.47000000000E+01 0. -1.
        -11    1    6    6    0    0 -0.19209247374E+02  0.63715910282E+02  0.24621024732E+02  0.70957080454E+02  0.00000000000E+00 0.  1.
         12    1    6    6    0    0 -0.14648164042E+01  0.14170420717E+02 -0.41477046517E+02  0.43855351990E+02  0.00000000000E+00 0. -1.
         -5    1    3    3    0  503 -0.41415834570E+02  0.29916661346E+02 -0.10986274022E+02  0.52469669297E+02  0.47000000000E+01 0.  1.
         11    1    4    4    0    0  0.55867542749E+02  0.20197577673E+01 -0.29850477373E+02  0.63374385627E+02  0.00000000000E+00 0. -1.
        -12    1    4    4    0    0  0.28520318696E+02 -0.59099532388E+02  0.77177529535E+01  0.66073648436E+02  0.00000000000E+00 0.  1.
</event>
<event>
12    1  0.8421768E-002  0.2118730E+03  0.7818608E-02  0.1140488E+00
         21   -1    0    0  503  502  0.00000000000E+00  0.00000000000E+00  0.30912418210E+03  0.30912418210E+03  0.00000000000E+00 0.  1.
         21   -1    0    0  501  503 -0.00000000000E+00 -0.00000000000E+00 -0.19681335558E+03  0.19681335558E+03  0.00000000000E+00 0.  1.
          6    2    1    2  501    0 -0.30186320235E+02  0.12147522067E+03 -0.74890630246E+02  0.22471931300E+03  0.17094654126E+03 0.  0.
         24    2    3    3    0    0 -0.41914536636E+01  0.12643977203E+03 -0.10592319860E+03  0.18366459150E+03  0.80674493698E+02 0.  0.
         -6    2    1    2    0  502  0.30186320235E+02 -0.12147522067E+03  0.18720145677E+03  0.28121822468E+03  0.16843948857E+03 0.  0.
        -24    2    5    5    0    0  0.67325641876E+02 -0.50520207896E+02  0.73944427501E+02  0.14242633829E+03  0.87934350626E+02 0.  0.
          5    1    3    3  501    0 -0.25994866571E+02 -0.49645513668E+01  0.31032568357E+02  0.41054721496E+02  0.47000000000E+01 0. -1.
        -13    1    4    4    0    0  0.37084579113E+02  0.46638731242E+02 -0.50452279092E+02  0.78076050908E+02  0.00000000000E+00 0.  1.
         14    1    4    4    0    0 -0.41276032777E+02  0.79801040792E+02 -0.55470919511E+02  0.10558854059E+03  0.00000000000E+00 0. -1.
         -5    1    5    5    0  502 -0.37139321641E+02 -0.70955012771E+02  0.11325702927E+03  0.13879188639E+03  0.47000000000E+01 0.  1.
         11    1    6    6    0    0  0.12808359028E+02 -0.38797185283E+02 -0.96110261570E+01  0.41971984354E+02  0.00000000000E+00 0. -1.
        -12    1    6    6    0    0  0.54517282848E+02 -0.11723022613E+02  0.83555453658E+02  0.10045435393E+03  0.00000000000E+00 0.  1.
</event>
<event>
12    1  0.8421768E-002  0.2004509E+03  0.7818608E-02  0.1149535E+00
         21   -1    0    0  501  502  0.00000000000E+00  0.00000000000E+00  0.15470102125E+04  0.15470102125E+04  0.00000000000E+00 0. -1.
         21   -1    0    0  502  503 -0.00000000000E+00 -0.00000000000E+00 -0.56930847271E+02  0.56930847271E+02  0.00000000000E+00 0. -1.
         -6    2    1    2    0  503  0.96351075276E+02  0.31773356946E+02  0.15192002613E+03  0.25085164216E+03  0.17191211742E+03 0.  0.
        -24    2    3    3    0    0 -0.15523333005E+02  0.24011490173E+02  0.52000719158E+02  0.10057826558E+03  0.81205832213E+02 0.  0.
          6    2    1    2  501    0 -0.96351075276E+02 -0.31773356946E+02  0.13381593391E+04  0.13530894176E+04  0.17287995636E+03 0.  0.
         24    2    5    5    0    0 -0.89852657994E+02 -0.30778004823E+02  0.50562387033E+03  0.52051472612E+03  0.79115713545E+02 0.  0.
          5    1    5    5  501    0 -0.64984172821E+01 -0.99535212235E+00  0.83253546877E+03  0.83257469149E+03  0.47000000000E+01 0. -1.
        -11    1    6    6    0    0 -0.30981791404E+02 -0.41743796571E+02  0.34868806014E+03  0.35254188295E+03  0.00000000000E+00 0.  1.
         12    1    6    6    0    0 -0.58870866590E+02  0.10965791748E+02  0.15693581018E+03  0.16797284316E+03  0.00000000000E+00 0. -1.
         -5    1    3    3    0  503  0.11187440828E+03  0.77618667727E+01  0.99919306971E+02  0.15027337658E+03  0.47000000000E+01 0.  1.
         11    1    4    4    0    0  0.35074538372E+01 -0.29010990318E+02  0.12545989250E+02  0.31801598040E+02  0.00000000000E+00 0. -1.
        -12    1    4    4    0    0 -0.19030786843E+02  0.53022480491E+02  0.39454729909E+02  0.68776667536E+02  0.00000000000E+00 0.  1.
</event>
<event>
12    1  0.8421768E-002  0.1851482E+03  0.7818608E-02  0.1163106E+00
         21   -1    0    0  503  502  0.00000000000E+00  0.00000000000E+00  0.23393941562E+03  0.23393941562E+03  0.00000000000E+00 0.  1.
         21   -1    0    0  501  503 -0.00000000000E+00 -0.00000000000E+00 -0.16224595482E+03  0.16224595482E+03  0.00000000000E+00 0.  1.
          6    2    1    2  501    0 -0.50296414906E+02  0.44722269373E+02 -0.27151402146E+02  0.18630402754E+03  0.17158724110E+03 0.  0.
         24    2    3    3    0    0  0.39641505772E+02  0.35923814498E+02 -0.17935226949E+02  0.95346508503E+02  0.76859058607E+02 0.  0.
         -6    2    1    2    0  502  0.50296414906E+02 -0.44722269373E+02  0.98844862948E+02  0.20988134290E+03  0.17248205830E+03 0.  0.
        -24    2    5    5    0    0 -0.21055195453E+02 -0.29946420591E+01  0.46852176951E+01  0.84500419403E+02  0.81646068355E+02 0.  0.
          5    1    3    3  501    0 -0.89937920678E+02  0.87984548750E+01 -0.92161751973E+01  0.90957519037E+02  0.47000000000E+01 0. -1.
        -11    1    4    4    0    0  0.12330883718E+02  0.41776814827E+02  0.20250741281E+02  0.48035876934E+02  0.00000000000E+00 0.  1.
         12    1    4    4    0    0  0.27310622054E+02 -0.58530003290E+01 -0.38185968229E+02  0.47310631569E+02  0.00000000000E+00 0. -1.
         -5    1    5    5    0  502  0.71351610359E+02 -0.41727627314E+02  0.94159645252E+02  0.12538092349E+03  0.47000000000E+01 0.  1.
         13    1    6    6    0    0 -0.47918921807E+02  0.14278442399E+02  0.12666744682E+02  0.51580455653E+02  0.00000000000E+00 0. -1.
        -14    1    6    6    0    0  0.26863726354E+02 -0.17273084458E+02 -0.79815269868E+01  0.32919963751E+02  0.00000000000E+00 0.  1.
</event>
<event>
12    1  0.8421768E-002  0.2254264E+03  0.7818608E-02  0.1129979E+00
         21   -1    0    0  501  502  0.00000000000E+00  0.00000000000E+00  0.17284724525E+03  0.17284724525E+03  0.00000000000E+00 0. -1.
         21   -1    0    0  502  503 -0.00000000000E+00 -0.00000000000E+00 -0.60354320491E+03  0.60354320491E+03  0.00000000000E+00 0.  1.
         -6    2    1    2    0  503  0.47505994219E+02 -0.13722238830E+03 -0.49370948264E+03  0.54273943531E+03  0.17242458655E+03 0.  0.
        -24    2    3    3    0    0 -0.51061922010E+01 -0.10481048972E+03 -0.44478931546E+03  0.46378472622E+03  0.79040655219E+02 0.  0.
          6    2    1    2  501    0 -0.47505994219E+02  0.13722238830E+03  0.63013522987E+02  0.23365101485E+03  0.17185834086E+03 0.  0.
         24    2    5    5    0    0 -0.46689066489E+02  0.17102001059E+03  0.64996088736E+02  0.19946085237E+03  0.64283956964E+02 0.  0.
          5    1    5    5  501    0 -0.81692773024E+00 -0.33797622294E+02 -0.19825657484E+01  0.34190162483E+02  0.47000000000E+01 0. -1.
        -13    1    6    6    0    0 -0.45024988301E+02  0.79654634701E+02  0.81950312426E+01  0.91865493728E+02  0.00000000000E+00 0.  1.
         14    1    6    6    0    0 -0.16640781878E+01  0.91365375893E+02  0.56801057493E+02  0.10759535864E+03  0.00000000000E+00 0. -1.
         -5    1    3    3    0  503  0.52612186420E+02 -0.32411898578E+02 -0.48920167189E+02  0.78954709088E+02  0.47000000000E+01 0.  1.
         11    1    4    4    0    0 -0.16079818057E+02 -0.63026424840E+02 -0.12329369642E+03  0.13939952064E+03  0.00000000000E+00 0. -1.
        -12    1    4    4    0    0  0.10973625856E+02 -0.41784064882E+02 -0.32149561904E+03  0.32438520558E+03  0.00000000000E+00 0.  1.
</event>
<event>
12    1  0.8421768E-002  0.3912911E+03  0.7818608E-02  0.1046881E+00
         21   -1    0    0  501  502  0.00000000000E+00  0.00000000000E+00  0.12010586320E+04  0.12010586320E+04  0.00000000000E+00 0. -1.
         21   -1    0    0  502  503 -0.00000000000E+00 -0.00000000000E+00 -0.12732669935E+03  0.12732669935E+03  0.00000000000E+00 0.  1.
         -6    2    1    2    0  503  0.98750804986E+02  0.33580628436E+03  0.53263763164E+03  0.66091724672E+03  0.17490333980E+03 0.  0.
        -24    2    3    3    0    0  0.13630101360E+03  0.27145236265E+03  0.46046811987E+03  0.55708096291E+03  0.77742898890E+02 0.  0.
          6    2    1    2  501    0 -0.98750804986E+02 -0.33580628436E+03  0.54109430102E+03  0.66746808463E+03  0.17381892677E+03 0.  0.
         24    2    5    5    0    0 -0.30466686525E+02 -0.71231512881E+02  0.93409092600E+02  0.14296196801E+03  0.75569294700E+02 0.  0.
          5    1    5    5  501    0 -0.68284118461E+02 -0.26457477148E+03  0.44768520842E+03  0.52450611662E+03  0.47000000000E+01 0. -1.
        -11    1    6    6    0    0 -0.50405159084E+02 -0.58209141081E+02  0.45442978535E+02  0.89409442823E+02  0.00000000000E+00 0.  1.
         12    1    6    6    0    0  0.19938472560E+02 -0.13022371800E+02  0.47966114065E+02  0.53552525186E+02  0.00000000000E+00 0. -1.
         -5    1    3    3    0  503 -0.37550208610E+02  0.64353921712E+02  0.72169511770E+02  0.10383628381E+03  0.47000000000E+01 0.  1.
         13    1    4    4    0    0  0.62235467674E+02  0.20398093148E+03  0.31937426226E+03  0.38403306269E+03  0.00000000000E+00 0. -1.
        -14    1    4    4    0    0  0.74065545921E+02  0.67471431172E+02  0.14109385761E+03  0.17304790022E+03  0.00000000000E+00 0.  1.
</event>
<event>
12    1  0.8421768E-002  0.1898855E+03  0.7818608E-02  0.1158913E+00
         21   -1    0    0  501  502  0.00000000000E+00  0.00000000000E+00  0.80172691626E+02  0.80172691626E+02  0.00000000000E+00 0. -1.
         21   -1    0    0  502  503 -0.00000000000E+00 -0.00000000000E+00 -0.64218500794E+03  0.64218500794E+03  0.00000000000E+00 0. -1.
         -6    2    1    2    0  503  0.29878542446E+02 -0.67969597286E+02 -0.48137190793E+03  0.51747019173E+03  0.17476810962E+03 0.  0.
        -24    2    3    3    0    0  0.90871240220E+02 -0.30165541234E+02 -0.30196640460E+03  0.32418884121E+03  0.68899586953E+02 0.  0.
          6    2    1    2  501    0 -0.29878542446E+02  0.67969597286E+02 -0.80640408387E+02  0.20488750783E+03  0.17309945681E+03 0.  0.
         24    2    5    5    0    0  0.32914018117E+01 -0.27817765472E+02 -0.19617451469E+02  0.86475703787E+02  0.79426327760E+02 0.  0.
          5    1    5    5  501    0 -0.33169944257E+02  0.95787362758E+02 -0.61022956918E+02  0.11841180405E+03  0.47000000000E+01 0. -1.
        -13    1    6    6    0    0 -0.10325382976E+02 -0.17971520904E+02 -0.48677881826E+02  0.52906760214E+02  0.00000000000E+00 0.  1.
         14    1    6    6    0    0  0.13616784787E+02 -0.98462445686E+01  0.29060430357E+02  0.33568943573E+02  0.00000000000E+00 0. -1.
         -5    1    3    3    0  503 -0.60992697774E+02 -0.37804056052E+02 -0.17940550333E+03  0.19328135052E+03  0.47000000000E+01 0.  1.
         13    1    4    4    0    0  0.29477604053E+02 -0.18612043227E+02 -0.32793970830E+02  0.47862112538E+02  0.00000000000E+00 0. -1.
        -14    1    4    4    0    0  0.61393636167E+02 -0.11553498007E+02 -0.26917243377E+03  0.27632672867E+03  0.00000000000E+00 0.  1.
</event>
<event>
12    1  0.8421768E-002  0.3251338E+03  0.7818608E-02  0.1073481E+00
         21   -1    0    0  501  502  0.00000000000E+00  0.00000000000E+00  0.13886591816E+04  0.13886591816E+04  0.00000000000E+00 0.  1.
         21   -1    0    0  502  503 -0.00000000000E+00 -0.00000000000E+00 -0.77511632752E+02  0.77511632752E+02  0.00000000000E+00 0. -1.
         -6    2    1    2    0  503  0.92834343517E+01  0.27515930200E+03  0.76387873580E+03  0.82960572674E+03  0.17010618801E+03 0.  0.
        -24    2    3    3    0    0 -0.15557210650E+02  0.26460835800E+03  0.74888567024E+03  0.79837654042E+03  0.79471650779E+02 0.  0.
          6    2    1    2  501    0 -0.92834343517E+01 -0.27515930200E+03  0.54726881300E+03  0.63656508757E+03  0.17295413669E+03 0.  0.
         24    2    5    5    0    0  0.18522922665E+02 -0.13680337127E+03  0.40795790809E+03  0.43820890470E+03  0.80864876949E+02 0.  0.
          5    1    5    5  501    0 -0.27806357017E+02 -0.13835593072E+03  0.13931090491E+03  0.19835618287E+03  0.47000000000E+01 0. -1.
        -11    1    6    6    0    0  0.21951424245E+02 -0.25963664026E+02  0.19668098998E+03  0.19959806787E+03  0.00000000000E+00 0.  1.
         12    1    6    6    0    0 -0.34285015796E+01 -0.11083970725E+03  0.21127691811E+03  0.23861083683E+03  0.00000000000E+00 0. -1.
         -5    1    3    3    0  503  0.24840645002E+02  0.10550943999E+02  0.14993065567E+02  0.31229186324E+02  0.47000000000E+01 0.  1.
         13    1    4    4    0    0 -0.47247380417E+02  0.18368078871E+03  0.50114317038E+03  0.53583152605E+03  0.00000000000E+00 0. -1.
        -14    1    4    4    0    0  0.31690169767E+02  0.80927569290E+02  0.24774249986E+03  0.26254501436E+03  0.00000000000E+00 0.  1.
</event>
<event>
12    1  0.8421768E-002  0.2426136E+03  0.7818608E-02  0.1118240E+00
         21   -1    0    0  501  502  0.00000000000E+00  0.00000000000E+00  0.42037302177E+03  0.42037302177E+03  0.00000000000E+00 0. -1.
         21   -1    0    0  502  503 -0.00000000000E+00 -0.00000000000E+00 -0.17825445351E+03  0.17825445351E+03  0.00000000000E+00 0.  1.
         -6    2    1    2    0  503  0.11507985170E+03 -0.12832581020E+03  0.26100376549E+03  0.35634856695E+03  0.17073502785E+03 0.  0.
        -24    2    3    3    0    0  0.87331371989E+02 -0.24504834646E+02  0.20190912125E+03  0.23361698964E+03  0.74715119947E+02 0.  0.
          6    2    1    2  501    0 -0.11507985170E+03  0.12832581020E+03 -0.18885197236E+02  0.24227890833E+03  0.16920854859E+03 0.  0.
         24    2    5    5    0    0 -0.10203608552E+03  0.13812451411E+03  0.29096433236E+02  0.19138213734E+03  0.79314411794E+02 0.  0.
          5    1    5    5  501    0 -0.13043766183E+02 -0.97987039151E+01 -0.47981630473E+02  0.50896770992E+02  0.47000000000E+01 0. -1.
        -13    1    6    6    0    0 -0.11419149620E+03  0.11021066721E+03  0.25152982287E+02  0.16068217539E+03  0.00000000000E+00 0.  1.
         14    1    6    6    0    0  0.12155410685E+02  0.27913846906E+02  0.39434509489E+01  0.30699961944E+02  0.00000000000E+00 0. -1.
         -5    1    3    3    0  503  0.27748479712E+02 -0.10382097555E+03  0.59094644237E+02  0.12273157731E+03  0.47000000000E+01 0.  1.
         11    1    4    4    0    0  0.10892086604E+02 -0.38192465260E+02  0.73870494598E+02  0.83869851110E+02  0.00000000000E+00 0. -1.
        -12    1    4    4    0    0  0.76439285385E+02  0.13687630614E+02  0.12803862665E+03  0.14974713853E+03  0.00000000000E+00 0.  1.
</event>
<event>
12    1  0.8421768E-002  0.1762072E+03  0.7818608E-02  0.1172276E+00
         21   -1    0    0  503  502  0.00000000000E+00  0.00000000000E+00  0.18597311804E+03  0.18597311804E+03  0.00000000000E+00 0. -1.
         21   -1    0    0  501  503 -0.00000000000E+00 -0.00000000000E+00 -0.20471937083E+03  0.20471937083E+03  0.00000000000E+00 0. -1.
          6    2    1    2  501    0 -0.22519007743E+02 -0.33776313637E+02 -0.96413571338E+02  0.20085952095E+03  0.17146727194E+03 0.  0.
         24    2    3    3    0    0  0.13995664246E+02  0.18802474596E+02  0.23384963637E+01  0.83080443364E+02  0.79671072766E+02 0.  0.
         -6    2    1    2    0  502  0.22519007743E+02  0.33776313637E+02  0.77667318538E+02  0.18983296792E+03  0.16839358143E+03 0.  0.
        -24    2    5    5    0    0  0.71642732740E+02  0.27844520321E+02  0.83323985443E+02  0.13980882964E+03  0.81826791636E+02 0.  0.
          5    1    3    3  501    0 -0.36514671989E+02 -0.52578788233E+02 -0.98752067702E+02  0.11777907759E+03  0.47000000000E+01 0. -1.
        -13    1    4    4    0    0 -0.13409390046E+02  0.39251903110E+02 -0.15784296016E+02  0.44380937799E+02  0.00000000000E+00 0.  1.
         14    1    4    4    0    0  0.27405054292E+02 -0.20449428514E+02  0.18122792380E+02  0.38699505565E+02  0.00000000000E+00 0. -1.
         -5    1    5    5    0  502 -0.49123724998E+02  0.59317933159E+01 -0.56566669044E+01  0.50024138274E+02  0.47000000000E+01 0.  1.
         13    1    6    6    0    0  0.69406153251E+00  0.16809998913E+02 -0.11856947982E+02  0.20582638323E+02  0.00000000000E+00 0. -1.
        -14    1    6    6    0    0  0.70948671208E+02  0.11034521408E+02  0.95180933425E+02  0.11922619132E+03  0.00000000000E+00 0.  1.
</event>
<event>
12    1  0.8421768E-002  0.1890329E+03  0.7818608E-02  0.1159663E+00
         21   -1    0    0  501  502  0.00000000000E+00  0.00000000000E+00  0.86831361737E+02  0.86831361737E+02  0.00000000000E+00 0. -1.
         21   -1    0    0  502  503 -0.00000000000E+00 -0.00000000000E+00 -0.65801365597E+03  0.65801365597E+03  0.00000000000E+00 0. -1.
         -6    2    1    2    0  503  0.73092100608E+02 -0.78609857482E+01 -0.51428705164E+03  0.54743554825E+03  0.17259854498E+03 0.  0.
        -24    2    3    3    0    0  0.34448754379E+01 -0.27528626133E+02 -0.41991638912E+03  0.42841679344E+03  0.80258847627E+02 0.  0.
          6    2    1    2  501    0 -0.73092100608E+02  0.78609857482E+01 -0.56895242587E+02  0.19740946945E+03  0.17415274828E+03 0.  0.
         24    2    5    5    0    0 -0.95269891341E+02 -0.45540296335E+02 -0.51545253344E+02  0.13914915951E+03  0.74533916197E+02 0.  0.
          5    1    5    5  501    0  0.22177790732E+02  0.53401282083E+02 -0.53499892433E+01  0.58260309944E+02  0.47000000000E+01 0. -1.
        -13    1    6    6    0    0 -0.47608832961E+02 -0.59636596488E+02 -0.15799318524E+02  0.77927806863E+02  0.00000000000E+00 0.  1.
         14    1    6    6    0    0 -0.47661058379E+02  0.14096300153E+02 -0.35745934820E+02  0.61221352648E+02  0.00000000000E+00 0. -1.
         -5    1    3    3    0  503  0.69647225170E+02  0.19667640385E+02 -0.94370662522E+02  0.11901875481E+03  0.47000000000E+01 0.  1.
         11    1    4    4    0    0 -0.58453143555E+01 -0.41464718928E+02 -0.10480899697E+03  0.11286459349E+03  0.00000000000E+00 0. -1.
        -12    1    4    4    0    0  0.92901897934E+01  0.13936092796E+02 -0.31510739215E+03  0.31555219995E+03  0.00000000000E+00 0.  1.
</event>
<event>
12    1  0.8421768E-002  0.1872187E+03  0.7818608E-02  0.1161425E+00
         21   -1    0    0  501  502  0.00000000000E+00  0.00000000000E+00  0.13039918290E+03  0.13039918290E+03  0.00000000000E+00 0. -1.
         21   -1    0    0  502  503 -0.00000000000E+00 -0.00000000000E+00 -0.36452525560E+03  0.36452525560E+03  0.00000000000E+00 0. -1.
         -6    2    1    2    0  503 -0.25209556745E+01 -0.73417727347E+02 -0.24606192242E+03  0.30918814211E+03  0.17220429626E+03 0.  0.
        -24    2    3    3    0    0 -0.50548367711E+02 -0.37526076087E+02 -0.22326211620E+03  0.24487046102E+03  0.78436128697E+02 0.  0.
          6    2    1    2  501    0  0.25209556745E+01  0.73417727347E+02  0.11935849727E+02  0.18573629639E+03  0.17017340974E+03 0.  0.
         24    2    5    5    0    0 -0.17291343936E+02  0.28858297166E+02  0.67571602292E+02  0.11160467697E+03  0.82206390237E+02 0.  0.
          5    1    5    5  501    0  0.19812299611E+02  0.44559430180E+02 -0.55635752565E+02  0.74131619417E+02  0.47000000000E+01 0. -1.
        -11    1    6    6    0    0  0.23709334239E+02  0.12895676165E+01  0.56049555420E+02  0.60871571176E+02  0.00000000000E+00 0.  1.
         12    1    6    6    0    0 -0.41000678175E+02  0.27568729550E+02  0.11522046872E+02  0.50733105798E+02  0.00000000000E+00 0. -1.
         -5    1    3    3    0  503  0.48027412036E+02 -0.35891651259E+02 -0.22799806220E+02  0.64317681089E+02  0.47000000000E+01 0.  1.
         13    1    4    4    0    0  0.54395220698E+01  0.14211318486E+02 -0.90567448388E+02  0.91836880832E+02  0.00000000000E+00 0. -1.
        -14    1    4    4    0    0 -0.55987889780E+02 -0.51737394573E+02 -0.13269466782E+03  0.15303358019E+03  0.00000000000E+00 0.  1.
</event>
<event>
12    1  0.8421768E-002  0.2455909E+03  0.7818608E-02  0.1116153E+00
         21   -1    0    0  501  502  0.00000000000E+00  0.00000000000E+00  0.29858795006E+03  0.29858795006E+03  0.00000000000E+00 0. -1.
         21   -1    0    0  502  503 -0.00000000000E+00 -0.00000000000E+00 -0.23828051008E+03  0.23828051008E+03  0.00000000000E+00 0. -1.
         -6    2    1    2    0  503  0.14329825178E+03  0.10082062142E+03 -0.74814841121E+02  0.25655980860E+03  0.17183273340E+03 0.  0.
        -24    2    3    3    0    0  0.16380238892E+03  0.77051725845E+02 -0.29003657132E+02  0.20082710173E+03  0.81988545480E+02 0.  0.
          6    2    1    2  501    0 -0.14329825178E+03 -0.10082062142E+03  0.13512228110E+03  0.28030865154E+03  0.17209219218E+03 0.  0.
         24    2    5    5    0    0 -0.20874459039E+02  0.77578409679E+01  0.30633292415E+02  0.86100242142E+02  0.77323514897E+02 0.  0.
          5    1    5    5  501    0 -0.12242379275E+03 -0.10857846239E+03  0.10448898869E+03  0.19420840940E+03  0.47000000000E+01 0. -1.
        -11    1    6    6    0    0  0.14746377321E+02 -0.20364884187E+02 -0.81195729463E+01  0.26421801923E+02  0.00000000000E+00 0.  1.
         12    1    6    6    0    0 -0.35620836360E+02  0.28122725155E+02  0.38752865362E+02  0.59678440218E+02  0.00000000000E+00 0. -1.
         -5    1    3    3    0  503 -0.20504137135E+02  0.23768895574E+02 -0.45811183988E+02  0.55732706868E+02  0.47000000000E+01 0.  1.
         13    1    4    4    0    0  0.11695961474E+03  0.71087777576E+02  0.13188525571E+02  0.13750258473E+03  0.00000000000E+00 0. -1.
        -14    1    4    4    0    0  0.46842774182E+02  0.59639482696E+01 -0.42192182703E+02  0.63324517000E+02  0.00000000000E+00 0.  1.
</event>
<event>
12    1  0.8421768E-002  0.2201753E+03  0.7818608E-02  0.1133961E+00
         21   -1    0    0  503  502  0.00000000000E+00  0.00000000000E+00  0.30180133812E+02  0.30180133812E+02  0.00000000000E+00 0. -1.
         21   -1    0    0  501  503 -0.00000000000E+00 -0.00000000000E+00 -0.15985180132E+04  0.15985180132E+04  0.00000000000E+00 0.  1.
          6    2    1    2  501    0  0.10328318457E+03  0.88684683601E+02 -0.76918745101E+03  0.79977197986E+03  0.17162020758E+03 0.  0.
         24    2    3    3    0    0  0.11938765215E+03  0.47557513355E+02 -0.70888289869E+03  0.72487520396E+03  0.80087256822E+02 0.  0.
         -6    2    1    2    0  502 -0.10328318457E+03 -0.88684683601E+02 -0.79915042833E+03  0.82892616711E+03  0.17304564166E+03 0.  0.
        -24    2    5    5    0    0 -0.87812901779E+02 -0.11821754163E+03 -0.49842898191E+03  0.52632577437E+03  0.83071522701E+02 0.  0.
          5    1    3    3  501    0 -0.16104467580E+02  0.41127170245E+02 -0.60304552324E+02  0.74896775895E+02  0.47000000000E+01 0. -1.
        -11    1    4    4    0    0  0.13996063876E+02 -0.20429133476E+02 -0.15538478050E+03  0.15734570001E+03  0.00000000000E+00 0.  1.
         12    1    4    4    0    0  0.10539158827E+03  0.67986646832E+02 -0.55349811819E+03  0.56752950396E+03  0.00000000000E+00 0. -1.
         -5    1    5    5    0  502 -0.15470282787E+02  0.29532858030E+02 -0.30072144641E+03  0.30260039274E+03  0.47000000000E+01 0.  1.
         13    1    6    6    0    0 -0.28706506730E+01 -0.34424865129E+02 -0.41104149075E+02  0.53692299687E+02  0.00000000000E+00 0. -1.
        -14    1    6    6    0    0 -0.84942251106E+02 -0.83792676501E+02 -0.45732483284E+03  0.47263347468E+03  0.00000000000E+00 0.  1.
</event>
<event>
12    1  0.8421768E-002  0.2065835E+03  0.7818608E-02  0.1144668E+00
         21   -1    0    0  503  502  0.00000000000E+00  0.00000000000E+00  0.63325028205E+03  0.63325028205E+03  0.00000000000E+00 0.  1.
         21   -1    0    0  501  503 -0.00000000000E+00 -0.00000000000E+00 -0.96087227996E+02  0.96087227996E+02  0.00000000000E+00 0.  1.
          6    2    1    2  501    0 -0.10754413110E+03  0.33295158917E+02  0.68091152792E+02  0.21751583893E+03  0.17321208779E+03 0.  0.
         24    2    3    3    0    0 -0.21860638292E+02 -0.42401359580E+02  0.27576632250E+02  0.96127453048E+02  0.78767085655E+02 0.  0.
         -6    2    1    2    0  502  0.10754413110E+03 -0.33295158917E+02  0.46907190126E+03  0.51182167111E+03  0.17105164930E+03 0.  0.
        -24    2    5    5    0    0  0.27582889937E+02 -0.37398516611E+02  0.38275439559E+03  0.39399366333E+03  0.81059327280E+02 0.  0.
          5    1    3    3  501    0 -0.85683492808E+02  0.75696518497E+02  0.40514520542E+02  0.12138838588E+03  0.47000000000E+01 0. -1.
        -11    1    4    4    0    0 -0.35170539797E+02 -0.39377241277E+02  0.48138164007E+02  0.71448000911E+02  0.00000000000E+00 0.  1.
         12    1    4    4    0    0  0.13309901505E+02 -0.30241183026E+01 -0.20561531757E+02  0.24679452137E+02  0.00000000000E+00 0. -1.
         -5    1    5    5    0  502  0.79961241163E+02  0.41033576935E+01  0.86317505664E+02  0.11782800778E+03  0.47000000000E+01 0.  1.
         11    1    6    6    0    0  0.37509100438E+02 -0.65905302707E+00  0.74635196627E+02  0.83533104468E+02  0.00000000000E+00 0. -1.
        -12    1    6    6    0    0 -0.99262105014E+01 -0.36739463584E+02  0.30811919897E+03  0.31046055887E+03  0.00000000000E+00 0.  1.
</event>
<event>
12    1  0.8421768E-002  0.2353452E+03  0.7818608E-02  0.1123002E+00
         21   -1    0    0  503  502  0.00000000000E+00  0.00000000000E+00  0.35585387515E+02  0.35585387515E+02  0.00000000000E+00 0.  1.
         21   -1    0    0  501  503 -0.00000000000E+00 -0.00000000000E+00 -0.16750853416E+04  0.16750853416E+04  0.00000000000E+00 0.  1.
          6    2    1    2  501    0 -0.23810712360E+02 -0.15855963255E+03 -0.10492586343E+04  0.10752400150E+04  0.17172449186E+03 0.  0.
         24    2    3    3    0    0  0.14882947973E+02 -0.13486572073E+03 -0.97712340600E+03  0.98989259576E+03  0.81895884079E+02 0.  0.
         -6    2    1    2    0  502  0.23810712360E+02  0.15855963255E+03 -0.59024131983E+03  0.63543071416E+03  0.17227672439E+03 0.  0.
        -24    2    5    5    0    0  0.72675982988E+01  0.22811770694E+02 -0.12182933206E+03  0.14744194696E+03  0.79520731306E+02 0.  0.
          5    1    3    3  501    0 -0.38693660333E+02 -0.23693911822E+02 -0.72135228265E+02  0.85347419200E+02  0.47000000000E+01 0. -1.
        -11    1    4    4    0    0  0.22834571330E+02 -0.14382297898E+03 -0.92629276311E+03  0.93766985124E+03  0.00000000000E+00 0.  1.
         12    1    4    4    0    0 -0.79516233566E+01  0.89572582493E+01 -0.50830642885E+02  0.52222744522E+02  0.00000000000E+00 0. -1.
         -5    1    5    5    0  502  0.16543114061E+02  0.13574786186E+03 -0.46841198777E+03  0.48798876719E+03  0.47000000000E+01 0.  1.
         13    1    6    6    0    0  0.25242435563E+02 -0.13126891284E+02 -0.94891268794E+02  0.99064871278E+02  0.00000000000E+00 0. -1.
        -14    1    6    6    0    0 -0.17974837265E+02  0.35938661978E+02 -0.26938063264E+02  0.48377075685E+02  0.00000000000E+00 0.  1.
</event>
<event>
12    1  0.8421768E-002  0.1857668E+03  0.7818608E-02  0.1163226E+00
         21   -1    0    0  503  502  0.00000000000E+00  0.00000000000E+00  0.13965085721E+03  0.13965085721E+03  0.00000000000E+00 0.  1.
         21   -1    0    0  501  503 -0.00000000000E+00 -0.00000000000E+00 -0.57263098643E+03  0.57263098643E+03  0.00000000000E+00 0.  1.
          6    2    1    2  501    0  0.66759993193E+02 -0.41039026685E+01 -0.48800677457E+03  0.52216848003E+03  0.17330773441E+03 0.  0.
         24    2    3    3    0    0  0.10174641319E+03  0.12863323327E+02 -0.44644219875E+03  0.46505770780E+03  0.80313367969E+02 0.  0.
         -6    2    1    2    0  502 -0.66759993193E+02  0.41039026685E+01  0.55026645354E+02  0.19011336360E+03  0.16923776356E+03 0.  0.
        -24    2    5    5    0    0 -0.34280810414E+02 -0.62079293242E+02  0.43605632181E+02  0.11536282998E+03  0.79863125228E+02 0.  0.
          5    1    3    3  501    0 -0.34986419999E+02 -0.16967225996E+02 -0.41564575824E+02  0.57110772239E+02  0.47000000000E+01 0. -1.
        -11    1    4    4    0    0  0.71933067350E+02 -0.82516109369E+01 -0.39718812398E+03  0.40373365117E+03  0.00000000000E+00 0.  1.
         12    1    4    4    0    0  0.29813345842E+02  0.21114934264E+02 -0.49254074770E+02  0.61324056623E+02  0.00000000000E+00 0. -1.
         -5    1    5    5    0  502 -0.32479182779E+02  0.66183195910E+02  0.11421013173E+02  0.74750533622E+02  0.47000000000E+01 0.  1.
         11    1    6    6    0    0 -0.21949705668E+02 -0.71963908960E+01 -0.19926859756E+02  0.30506677311E+02  0.00000000000E+00 0. -1.
        -12    1    6    6    0    0 -0.12331104746E+02 -0.54882902346E+02  0.63532491937E+02  0.84856152670E+02  0.00000000000E+00 0.  1.
</event>
<event>
12    1  0.8421768E-002  0.2035950E+03  0.7818608E-02  0.1146745E+00
         21   -1    0    0  503  502  0.00000000000E+00  0.00000000000E+00  0.13771141216E+03  0.13771141216E+03  0.00000000000E+00 0.  1.
         21   -1    0    0  501  503 -0.00000000000E+00 -0.00000000000E+00 -0.46473084991E+03  0.46473084991E+03  0.00000000000E+00 0.  1.
          6    2    1    2  501    0 -0.10901215751E+03 -0.28763269313E+01 -0.34231516252E+03  0.39827353692E+03  0.17190176258E+03 0.  0.
         24    2    3    3    0    0 -0.49342340818E+02  0.55141947704E+02 -0.12188366565E+03  0.16260694610E+03  0.78167064508E+02 0.  0.
         -6    2    1    2    0  502  0.10901215751E+03  0.28763269313E+01  0.15295724772E+02  0.20416872515E+03  0.17192726774E+03 0.  0.
        -24    2    5    5    0    0  0.14345874977E+03 -0.74345990106E+01  0.25965641520E+02  0.16636898923E+03  0.79804385144E+02 0.  0.
          5    1    3    3  501    0 -0.59669816688E+02 -0.58018274635E+02 -0.22043149687E+03  0.23566659082E+03  0.47000000000E+01 0. -1.
        -13    1    4    4    0    0 -0.88708846595E+01  0.65300288825E+02 -0.75624031932E+02  0.10030859645E+03  0.00000000000E+00 0.  1.
         14    1    4    4    0    0 -0.40471456159E+02 -0.10158341121E+02 -0.46259633716E+02  0.62298349653E+02  0.00000000000E+00 0. -1.
         -5    1    5    5    0  502 -0.34446592264E+02  0.10310925942E+02 -0.10669916748E+02  0.37799735922E+02  0.47000000000E+01 0.  1.
         11    1    6    6    0    0  0.10415820955E+02  0.23142309976E+02  0.14854831802E+02  0.29406153523E+02  0.00000000000E+00 0. -1.
        -12    1    6    6    0    0  0.13304292882E+03 -0.30576908986E+02  0.11110809718E+02  0.13696283570E+03  0.00000000000E+00 0.  1.
</event>
<event>
12    1  0.8421768E-002  0.1819120E+03  0.7818608E-02  0.1166510E+00
         21   -1    0    0  503  502  0.00000000000E+00  0.00000000000E+00  0.68653564574E+03  0.68653564574E+03  0.00000000000E+00 0. -1.
         21   -1    0    0  501  503 -0.00000000000E+00 -0.00000000000E+00 -0.23855144477E+03  0.23855144477E+03  0.00000000000E+00 0. -1.
          6    2    1    2  501    0  0.30981775692E+02  0.44183776131E+02 -0.18955397131E+03  0.26272170856E+03  0.17372366451E+03 0.  0.
         24    2    3    3    0    0  0.55666904061E+01  0.87275689732E+02 -0.81671659314E+02  0.14371110895E+03  0.79590130295E+02 0.  0.
         -6    2    1    2    0  502 -0.30981775692E+02 -0.44183776131E+02  0.63753817228E+03  0.66236538195E+03  0.17135023079E+03 0.  0.
        -24    2    5    5    0    0 -0.44449104742E+02 -0.73668071101E+02  0.28437293461E+03  0.30768458503E+03  0.79994564291E+02 0.  0.
          5    1    3    3  501    0  0.25415085286E+02 -0.43091913601E+02 -0.10788231199E+03  0.11901059961E+03  0.47000000000E+01 0. -1.
        -11    1    4    4    0    0 -0.10757484341E+02 -0.12054464765E+02 -0.42148302553E+01  0.16697256787E+02  0.00000000000E+00 0.  1.
         12    1    4    4    0    0  0.16324174747E+02  0.99330154497E+02 -0.77456829059E+02  0.12701385216E+03  0.00000000000E+00 0. -1.
         -5    1    5    5    0  502  0.13467329049E+02  0.29484294970E+02  0.35316523767E+03  0.35468079692E+03  0.47000000000E+01 0.  1.
         11    1    6    6    0    0  0.11623098325E+02  0.22218531083E+01  0.98742631487E+02  0.99449184606E+02  0.00000000000E+00 0. -1.
        -12    1    6    6    0    0 -0.56072203067E+02 -0.75889924209E+02  0.18563030312E+03  0.20823540042E+03  0.00000000000E+00 0.  1.
</event>
<event>
12    1  0.8421768E-002  0.1802319E+03  0.7818608E-02  0.1168039E+00
         21   -1    0    0  503  502  0.00000000000E+00  0.00000000000E+00  0.53182048192E+02  0.53182048192E+02  0.00000000000E+00 0. -1.
         21   -1    0    0  501  503 -0.00000000000E+00 -0.00000000000E+00 -0.78674471954E+03  0.78674471954E+03  0.00000000000E+00 0. -1.
          6    2    1    2  501    0  0.98558965037E+01  0.51573710488E+02 -0.57044897806E+03  0.59824373863E+03  0.17241388555E+03 0.  0.
         24    2    3    3    0    0 -0.58530501754E+02  0.29604467525E+02 -0.38965508147E+03  0.40364705277E+03  0.82447659529E+02 0.  0.
         -6    2    1    2    0  502 -0.98558965037E+01 -0.51573710488E+02 -0.16311369329E+03  0.24168302911E+03  0.17043363315E+03 0.  0.
        -24    2    5    5    0    0 -0.35758285916E+01 -0.14437112379E+02  0.59391916906E+01  0.68421567458E+02  0.66520824796E+02 0.  0.
          5    1    3    3  501    0  0.68386398258E+02  0.21969242963E+02 -0.18079389659E+03  0.19459668586E+03  0.47000000000E+01 0. -1.
        -13    1    4    4    0    0 -0.27563201599E+02  0.15154438825E+02 -0.33863792619E+02  0.46218433000E+02  0.00000000000E+00 0.  1.
         14    1    4    4    0    0 -0.30967300155E+02  0.14450028700E+02 -0.35579128885E+03  0.35742861977E+03  0.00000000000E+00 0. -1.
         -5    1    5    5    0  502 -0.62800679121E+01 -0.37136598108E+02 -0.16905288498E+03  0.17326146165E+03  0.47000000000E+01 0.  1.
         13    1    6    6    0    0  0.65975017014E+01 -0.30829435556E+02 -0.19061972479E+02  0.36842094406E+02  0.00000000000E+00 0. -1.
        -14    1    6    6    0    0 -0.10173330293E+02  0.16392323177E+02  0.25001164170E+02  0.31579473052E+02  0.00000000000E+00 0.  1.
</event>
<event>
12    1  0.8421768E-002  0.1831911E+03  0.7818608E-02  0.1165696E+00
         21   -1    0    0  501  502  0.00000000000E+00  0.00000000000E+00  0.53695142659E+03  0.53695142659E+03  0.00000000000E+00 0. -1.
         21   -1    0    0  502  503 -0.00000000000E+00 -0.00000000000E+00 -0.62370496792E+02  0.62370496792E+02  0.00000000000E+00 0.  1.
         -6    2    1    2    0  503  0.16725377312E+02 -0.54693983345E+02  0.19297210861E+03  0.26337175273E+03  0.16986840604E+03 0.  0.
        -24    2    3    3    0    0  0.61366463795E+02 -0.75377072066E+02  0.11296077226E+03  0.16932644074E+03  0.80397522302E+02 0.  0.
          6    2    1    2  501    0 -0.16725377312E+02  0.54693983345E+02  0.28160882119E+03  0.33595017066E+03  0.17403395914E+03 0.  0.
         24    2    5    5    0    0  0.41685241842E+02  0.73358138351E+02  0.21990755796E+03  0.24883365675E+03  0.80248232588E+02 0.  0.
          5    1    5    5  501    0 -0.58410619153E+02 -0.18664155007E+02  0.61701263233E+02  0.87116513914E+02  0.47000000000E+01 0. -1.
        -13    1    6    6    0    0  0.43384520122E+02  0.19560273665E+01  0.63982109649E+02  0.77328862558E+02  0.00000000000E+00 0.  1.
         14    1    6    6    0    0 -0.16992782806E+01  0.71402110985E+02  0.15592544831E+03  0.17150479419E+03  0.00000000000E+00 0. -1.
         -5    1    3    3    0  503 -0.44641086483E+02  0.20683088722E+02  0.80011336357E+02  0.94045311989E+02  0.47000000000E+01 0.  1.
         13    1    4    4    0    0  0.17922218673E+02 -0.26242794340E+02  0.96652604520E+02  0.10174289232E+03  0.00000000000E+00 0. -1.
        -14    1    4    4    0    0  0.43444245122E+02 -0.49134277727E+02  0.16308167735E+02  0.67583548418E+02  0.00000000000E+00 0.  1.
</event>
<event>
12    1  0.8421768E-002  0.2134678E+03  0.7818608E-02  0.1140037E+00
         21   -1    0    0  501  502  0.00000000000E+00  0.00000000000E+00  0.73281452728E+03  0.73281452728E+03  0.00000000000E+00 0.  1.
         21   -1    0    0  502  503 -0.00000000000E+00 -0.00000000000E+00 -0.60626225145E+02  0.60626225145E+02  0.00000000000E+00 0. -1.
         -6    2    1    2    0  503  0.97123596633E+02  0.65174269847E+02  0.35342345434E+03  0.40980088274E+03  0.17131242495E+03 0.  0.
        -24    2    3    3    0    0  0.12908039569E+03  0.77086737962E+02  0.26698235538E+03  0.31675628326E+03  0.80317191055E+02 0.  0.
          6    2    1    2  501    0 -0.97123596633E+02 -0.65174269847E+02  0.31876484780E+03  0.38363986969E+03  0.17857167455E+03 0.  0.
         24    2    5    5    0    0 -0.10394284227E+03  0.13343591573E+02  0.16542859253E+03  0.21117058589E+03  0.79020448155E+02 0.  0.
          5    1    5    5  501    0  0.68192456336E+01 -0.78517861420E+02  0.15333625527E+03  0.17246928379E+03  0.47000000000E+01 0. -1.
        -11    1    6    6    0    0 -0.43734523207E+00  0.17579458259E+02  0.63312274251E+02  0.65709000102E+02  0.00000000000E+00 0.  1.
         12    1    6    6    0    0 -0.10350549703E+03 -0.42358666855E+01  0.10211631828E+03  0.14546158579E+03  0.00000000000E+00 0. -1.
         -5    1    3    3    0  503 -0.31956799056E+02 -0.11912468115E+02  0.86441098960E+02  0.93044599477E+02  0.47000000000E+01 0.  1.
         13    1    4    4    0    0  0.55141074790E+02  0.39185587890E+02  0.49152732076E+02  0.83618416020E+02  0.00000000000E+00 0. -1.
        -14    1    4    4    0    0  0.73939320900E+02  0.37901150072E+02  0.21782962330E+03  0.23313786724E+03  0.00000000000E+00 0.  1.
</event>
<event>
12    1  0.8421768E-002  0.1781794E+03  0.7818608E-02  0.1170439E+00
         21   -1    0    0  501  502  0.00000000000E+00  0.00000000000E+00  0.25557006846E+04  0.25557006846E+04  0.00000000000E+00 0. -1.
         21   -1    0    0  502  503 -0.00000000000E+00 -0.00000000000E+00 -0.17433188460E+02  0.17433188460E+02  0.00000000000E+00 0. -1.
         -6    2    1    2    0  503  0.31029648079E+02  0.17020152652E+02  0.55422891262E+03  0.58111053283E+03  0.17107670540E+03 0.  0.
        -24    2    3    3    0    0 -0.73663800815E+00 -0.29492981454E+02  0.48201954138E+03  0.48941074073E+03  0.79433344915E+02 0.  0.
          6    2    1    2  501    0 -0.31029648079E+02 -0.17020152652E+02  0.19840385835E+04  0.19920233402E+04  0.17462921419E+03 0.  0.
         24    2    5    5    0    0 -0.26330046270E+02 -0.66248749697E+02  0.17219539090E+04  0.17252725058E+04  0.79735729340E+02 0.  0.
          5    1    5    5  501    0 -0.46996018093E+01  0.49228597045E+02  0.26208467453E+03  0.26675083439E+03  0.47000000000E+01 0. -1.
        -13    1    6    6    0    0  0.23354337338E+02 -0.38355938612E+02  0.50758017338E+03  0.50956278858E+03  0.00000000000E+00 0.  1.
         14    1    6    6    0    0 -0.49684383608E+02 -0.27892811085E+02  0.12143737356E+04  0.12157097173E+04  0.00000000000E+00 0. -1.
         -5    1    3    3    0  503  0.31766286088E+02  0.46513134106E+02  0.72209371238E+02  0.91699792098E+02  0.47000000000E+01 0.  1.
         11    1    4    4    0    0 -0.17613777222E+02 -0.41704340289E+02  0.14864733010E+03  0.15538830681E+03  0.00000000000E+00 0. -1.
        -12    1    4    4    0    0  0.16877139214E+02  0.12211358835E+02  0.33337221128E+03  0.33402243393E+03  0.00000000000E+00 0.  1.
</event>
<event>
12    1  0.8421768E-002  0.2218557E+03  0.7818608E-02  0.1132566E+00
         21   -1    0    0  503  502  0.00000000000E+00  0.00000000000E+00  0.11385643397E+03  0.11385643397E+03  0.00000000000E+00 0. -1.
         21   -1    0    0  501  503 -0.00000000000E+00 -0.00000000000E+00 -0.45552452510E+03  0.45552452510E+03  0.00000000000E+00 0. -1.
          6    2    1    2  501    0  0.13230327964E+03  0.45151824320E+02 -0.23585119318E+03  0.32358194896E+03  0.17186229176E+03 0.  0.
         24    2    3    3    0    0  0.64227315400E+02 -0.25125560640E+02 -0.18483776515E+03  0.21313871656E+03  0.80663940096E+02 0.  0.
         -6    2    1    2    0  502 -0.13230327964E+03 -0.45151824320E+02 -0.10581689795E+03  0.24579901010E+03  0.17227040498E+03 0.  0.
        -24    2    5    5    0    0 -0.61943777569E+02  0.12925876356E+01  0.37221851969E+01  0.10749339319E+03  0.87762591994E+02 0.  0.
          5    1    3    3  501    0  0.68075964242E+02  0.70277384959E+02 -0.51013428028E+02  0.11044323240E+03  0.47000000000E+01 0. -1.
        -13    1    4    4    0    0 -0.12609675166E+02  0.10992058080E+02 -0.59090796858E+02  0.61412958909E+02  0.00000000000E+00 0.  1.
         14    1    4    4    0    0  0.76836990567E+02 -0.36117618720E+02 -0.12574696829E+03  0.15172575765E+03  0.00000000000E+00 0. -1.
         -5    1    5    5    0  502 -0.70359502074E+02 -0.46444411955E+02 -0.10953908315E+03  0.13830561692E+03  0.47000000000E+01 0.  1.
         11    1    6    6    0    0 -0.66639975873E+02 -0.71132783194E+01 -0.29265098099E+02  0.73129549975E+02  0.00000000000E+00 0. -1.
        -12    1    6    6    0    0  0.46961983042E+01  0.84058659550E+01  0.32987283296E+02  0.34363843210E+02  0.00000000000E+00 0.  1.
</event>
<event>
12    1  0.8421768E-002  0.2130032E+03  0.7818608E-02  0.1140024E+00
         21   -1    0    0  501  502  0.00000000000E+00  0.00000000000E+00  0.47736076961E+02  0.47736076961E+02  0.00000000000E+00 0. -1.
         21   -1    0    0  502  503 -0.00000000000E+00 -0.00000000000E+00 -0.10892055345E+04  0.10892055345E+04  0.00000000000E+00 0. -1.
         -6    2    1    2    0  503 -0.11690687982E+03 -0.20134070957E+02 -0.73229188865E+03  0.76149372636E+03  0.17189731163E+03 0.  0.
        -24    2    3    3    0    0 -0.45700182453E+02 -0.21788953057E+02 -0.17120650855E+03  0.19588606540E+03  0.80600352944E+02 0.  0.
          6    2    1    2  501    0  0.11690687982E+03  0.20134070957E+02 -0.30917756892E+03  0.37544788513E+03  0.17691168972E+03 0.  0.
         24    2    5    5    0    0  0.47210109786E+02 -0.48643080849E+02 -0.21555304367E+03  0.23989133570E+03  0.80559260978E+02 0.  0.
          5    1    5    5  501    0  0.69696770035E+02  0.68777151806E+02 -0.93624525254E+02  0.13555654943E+03  0.47000000000E+01 0. -1.
        -11    1    6    6    0    0 -0.13220626498E+02  0.12297165652E+02 -0.24381930331E+02  0.30339475518E+02  0.00000000000E+00 0.  1.
         12    1    6    6    0    0  0.60430736284E+02 -0.60940246501E+02 -0.19117111334E+03  0.20955186018E+03  0.00000000000E+00 0. -1.
         -5    1    3    3    0  503 -0.71206697368E+02  0.16548820999E+01 -0.56108538009E+03  0.56560766096E+03  0.47000000000E+01 0.  1.
         13    1    4    4    0    0  0.15916986657E+02 -0.53076830207E+01 -0.95178607614E+02  0.96646206912E+02  0.00000000000E+00 0. -1.
        -14    1    4    4    0    0 -0.61617169110E+02 -0.16481270037E+02 -0.76027900940E+02  0.99239858487E+02  0.00000000000E+00 0.  1.
</event>
<event>
12    1  0.8421768E-002  0.2638264E+03  0.7818608E-02  0.1104920E+00
         21   -1    0    0  503  502  0.00000000000E+00  0.00000000000E+00  0.44983108503E+03  0.44983108503E+03  0.00000000000E+00 0.  1.
         21   -1    0    0  501  503 -0.00000000000E+00 -0.00000000000E+00 -0.33431642671E+03  0.33431642671E+03  0.00000000000E+00 0.  1.
          6    2    1    2  501    0  0.19392324110E+03 -0.51697161374E+02 -0.22975353238E+03  0.34984429232E+03  0.17124696580E+03 0.  0.
         24    2    3    3    0    0  0.13224825849E+03 -0.97214601110E+02 -0.19127248626E+03  0.26394597039E+03  0.78371109106E+02 0.  0.
         -6    2    1    2    0  502 -0.19392324110E+03  0.51697161374E+02  0.34526819071E+03  0.43430321942E+03  0.17067613468E+03 0.  0.
        -24    2    5    5    0    0 -0.15617859029E+03  0.19023731347E+02  0.34006811835E+03  0.38389149016E+03  0.83502674687E+02 0.  0.
          5    1    3    3  501    0  0.61674982608E+02  0.45517439737E+02 -0.38481046117E+02  0.85898321928E+02  0.47000000000E+01 0. -1.
        -13    1    4    4    0    0  0.63464818135E+02 -0.48471799221E+02 -0.36718773425E+02  0.87895203410E+02  0.00000000000E+00 0.  1.
         14    1    4    4    0    0  0.68783440356E+02 -0.48742801889E+02 -0.15455371284E+03  0.17605076698E+03  0.00000000000E+00 0. -1.
         -5    1    5    5    0  502 -0.37744650812E+02  0.32673430027E+02  0.52000723592E+01  0.50411729262E+02  0.47000000000E+01 0.  1.
         11    1    6    6    0    0 -0.68234003528E+02 -0.24381819649E+02  0.91777460937E+02  0.11693354824E+03  0.00000000000E+00 0. -1.
        -12    1    6    6    0    0 -0.87944586758E+02  0.43405550996E+02  0.24829065741E+03  0.26695794192E+03  0.00000000000E+00 0.  1.
</event>
<event>
12    1  0.8421768E-002  0.1788606E+03  0.7818608E-02  0.1168957E+00
         21   -1    0    0  503  502  0.00000000000E+00  0.00000000000E+00  0.28990624863E+02  0.28990624863E+02  0.00000000000E+00 0.  1.
         21   -1    0    0  501  503 -0.00000000000E+00 -0.00000000000E+00 -0.17780483771E+04  0.17780483771E+04  0.00000000000E+00 0.  1.
          6    2    1    2  501    0 -0.26624354756E+02 -0.40138232117E+02 -0.14312359631E+04  0.14423448816E+04  0.17205360065E+03 0.  0.
         24    2    3    3    0    0 -0.55657091811E+02 -0.77596097764E+02 -0.83961410273E+03  0.84880928269E+03  0.80040556098E+02 0.  0.
         -6    2    1    2    0  502  0.26624354756E+02  0.40138232117E+02 -0.31782178913E+03  0.36469412035E+03  0.17225323749E+03 0.  0.
        -24    2    5    5    0    0 -0.20741164710E+02  0.73545082963E+02 -0.26080757549E+03  0.28325567320E+03  0.79838022400E+02 0.  0.
          5    1    3    3  501    0  0.29032737055E+02  0.37457865647E+02 -0.59162186040E+03  0.59353559895E+03  0.47000000000E+01 0. -1.
        -11    1    4    4    0    0 -0.50624663033E+01  0.23048297366E+01 -0.35553734989E+03  0.35558085996E+03  0.00000000000E+00 0.  1.
         12    1    4    4    0    0 -0.50594625508E+02 -0.79900927501E+02 -0.48407675284E+03  0.49322842273E+03  0.00000000000E+00 0. -1.
         -5    1    5    5    0  502  0.47365519467E+02 -0.33406850847E+02 -0.57014213640E+02  0.81438447154E+02  0.47000000000E+01 0.  1.
         13    1    6    6    0    0 -0.32379005225E+02  0.23922854013E+02 -0.40408332086E+02  0.57039777572E+02  0.00000000000E+00 0. -1.
        -14    1    6    6    0    0  0.11637840515E+02  0.49622228950E+02 -0.22039924341E+03  0.22621589562E+03  0.00000000000E+00 0.  1.
</event>
<event>
12    1  0.8421768E-002  0.2476404E+03  0.7818608E-02  0.1114846E+00
         21   -1    0    0  503  502  0.00000000000E+00  0.00000000000E+00  0.56813856574E+03  0.56813856574E+03  0.00000000000E+00 0. -1.
         21   -1    0    0  501  503 -0.00000000000E+00 -0.00000000000E+00 -0.10905363038E+03  0.10905363038E+03  0.00000000000E+00 0.  1.
          6    2    1    2  501    0  0.13961079496E+03  0.11019966031E+03  0.19354832980E+03  0.31410065554E+03  0.17193931093E+03 0.  0.
         24    2    3    3    0    0  0.49567035232E+02 -0.53127349442E+01  0.43012894057E+02  0.10401971986E+03  0.80528733569E+02 0.  0.
         -6    2    1    2    0  502 -0.13961079496E+03 -0.11019966031E+03  0.26553660557E+03  0.36309154057E+03  0.17230971749E+03 0.  0.
        -24    2    5    5    0    0 -0.27369451065E+02 -0.94355356566E+02  0.88923534308E+02  0.15317863440E+03  0.76839305818E+02 0.  0.
          5    1    3    3  501    0  0.90043759724E+02  0.11551239525E+03  0.15053543574E+03  0.21008093568E+03  0.47000000000E+01 0. -1.
        -13    1    4    4    0    0 -0.16462728233E+02  0.17842152503E+02  0.15671223059E+02  0.28895519705E+02  0.00000000000E+00 0.  1.
         14    1    4    4    0    0  0.66029763465E+02 -0.23154887447E+02  0.27341670998E+02  0.75124200155E+02  0.00000000000E+00 0. -1.
         -5    1    5    5    0  502 -0.11224134389E+03 -0.15844303743E+02  0.17661307126E+03  0.20991290617E+03  0.47000000000E+01 0.  1.
         11    1    6    6    0    0  0.55560734039E+01 -0.23354619901E+01  0.46071147867E+02  0.46463695507E+02  0.00000000000E+00 0. -1.
        -12    1    6    6    0    0 -0.32925524469E+02 -0.92019894576E+02  0.42852386441E+02  0.10671493889E+03  0.00000000000E+00 0.  1.
</event>
<event>
12    1  0.8421768E-002  0.1726741E+03  0.7818608E-02  0.1175559E+00
         21   -1    0    0  503  502  0.00000000000E+00  0.00000000000E+00  0.71838910303E+02  0.71838910303E+02  0.00000000000E+00 0.  1.
         21   -1    0    0  501  503 -0.00000000000E+00 -0.00000000000E+00 -0.11230843856E+04  0.11230843856E+04  0.00000000000E+00 0.  1.
          6    2    1    2  501    0 -0.34401875551E+01  0.42365796679E+00 -0.10025041599E+04  0.10172664040E+04  0.17263931133E+03 0.  0.
         24    2    3    3    0    0  0.16232096383E+02 -0.30555908183E+02 -0.27055596905E+03  0.28438375562E+03  0.80476354272E+02 0.  0.
         -6    2    1    2    0  502  0.34401875551E+01 -0.42365796679E+00 -0.48741315445E+02  0.17765689190E+03  0.17080468680E+03 0.  0.
        -24    2    5    5    0    0 -0.17475585708E+02  0.24442651353E+02 -0.90816284937E+02  0.12428839962E+03  0.79354706034E+02 0.  0.
          5    1    3    3  501    0 -0.19672283938E+02  0.30979566150E+02 -0.73194819083E+03  0.73288264841E+03  0.47000000000E+01 0. -1.
        -11    1    4    4    0    0  0.32620759765E+02 -0.43863457701E+02 -0.24600126335E+03  0.25200146519E+03  0.00000000000E+00 0.  1.
         12    1    4    4    0    0 -0.16388663382E+02  0.13307549518E+02 -0.24554705695E+02  0.32382290428E+02  0.00000000000E+00 0. -1.
         -5    1    5    5    0  502  0.20915773263E+02 -0.24866309320E+02  0.42074969492E+02  0.53368492279E+02  0.47000000000E+01 0.  1.
         11    1    6    6    0    0 -0.31707621674E+01 -0.69660081540E+01 -0.89420456099E+02  0.89747406488E+02  0.00000000000E+00 0. -1.
        -12    1    6    6    0    0 -0.14304823541E+02  0.31408659507E+02 -0.13958288382E+01  0.34540993134E+02  0.00000000000E+00 0.  1.
</event>
<event>
12    1  0.8421768E-002  0.1852541E+03  0.7818608E-02  0.1163030E+00
         21   -1    0    0  503  502  0.00000000000E+00  0.00000000000E+00  0.53517585951E+03  0.53517585951E+03  0.00000000000E+00 0. -1.
         21   -1    0    0  501  503 -0.00000000000E+00 -0.00000000000E+00 -0.73975841271E+02  0.73975841271E+02  0.00000000000E+00 0. -1.
          6    2    1    2  501    0 -0.18061765637E+02 -0.64225307431E+02  0.11716743755E+03  0.21841203265E+03  0.17182691899E+03 0.  0.
         24    2    3    3    0    0 -0.43343356007E+02 -0.67873720063E+02  0.16473286317E+02  0.11442226479E+03  0.79596464323E+02 0.  0.
         -6    2    1    2    0  502  0.18061765637E+02  0.64225307431E+02  0.34403258069E+03  0.39073966813E+03  0.17282347695E+03 0.  0.
        -24    2    5    5    0    0 -0.34141876800E+01  0.46460461569E+02  0.58225557234E+02  0.10353843037E+03  0.71831468597E+02 0.  0.
          5    1    3    3  501    0  0.25281590370E+02  0.36484126320E+01  0.10069415124E+03  0.10398976786E+03  0.47000000000E+01 0. -1.
        -11    1    4    4    0    0 -0.20154150201E+01 -0.46359959614E+02  0.40864060294E+02  0.61831862149E+02  0.00000000000E+00 0.  1.
         12    1    4    4    0    0 -0.41327940987E+02 -0.21513760449E+02 -0.24390773977E+02  0.52590402642E+02  0.00000000000E+00 0. -1.
         -5    1    5    5    0  502  0.21475953317E+02  0.17764845862E+02  0.28580702345E+03  0.28720123777E+03  0.47000000000E+01 0.  1.
         13    1    6    6    0    0 -0.15809384968E+02  0.62330427521E+02  0.36605365345E+02  0.73993051160E+02  0.00000000000E+00 0. -1.
        -14    1    6    6    0    0  0.12395197288E+02 -0.15869965952E+02  0.21620191889E+02  0.29545379206E+02  0.00000000000E+00 0.  1.
</event>
<event>
12    1  0.8421768E-002  0.2145244E+03  0.7818608E-02  0.1138178E+00
         21   -1    0    0  501  502  0.00000000000E+00  0.00000000000E+00  0.17945738323E+03  0.17945738323E+03  0.00000000000E+00 0.  1.
         21   -1    0    0  502  503 -0.00000000000E+00 -0.00000000000E+00 -0.34491874205E+03  0.34491874205E+03  0.00000000000E+00 0. -1.
         -6    2    1    2    0  503  0.12446771411E+03  0.18726289760E+02 -0.21630095235E+03  0.30464214574E+03  0.17371772847E+03 0.  0.
        -24    2    3    3    0    0  0.89362378803E+02  0.33885926327E+01 -0.45561574843E+02  0.12959456777E+03  0.81986447582E+02 0.  0.
          6    2    1    2  501    0 -0.12446771411E+03 -0.18726289760E+02  0.50839593527E+02  0.21973397954E+03  0.17278735981E+03 0.  0.
         24    2    5    5    0    0 -0.27588005685E+02 -0.27609705393E+02  0.78124150219E+02  0.11858493104E+03  0.80222248372E+02 0.  0.
          5    1    5    5  501    0 -0.96879708425E+02  0.88834156329E+01 -0.27284556691E+02  0.10114904850E+03  0.47000000000E+01 0. -1.
        -13    1    6    6    0    0 -0.49246153976E+02 -0.18172537735E+02  0.20584228832E+02  0.56383821135E+02  0.00000000000E+00 0.  1.
         14    1    6    6    0    0  0.21658148291E+02 -0.94371676578E+01  0.57539921387E+02  0.62201109910E+02  0.00000000000E+00 0. -1.
         -5    1    3    3    0  503  0.35105335308E+02  0.15337697127E+02 -0.17073937751E+03  0.17504757797E+03  0.47000000000E+01 0.  1.
         13    1    4    4    0    0  0.18357346735E+01 -0.22936389895E+02 -0.28477786405E+02  0.36611913659E+02  0.00000000000E+00 0. -1.
        -14    1    4    4    0    0  0.87526644129E+02  0.26324982528E+02 -0.17083788437E+02  0.92982654108E+02  0.00000000000E+00 0.  1.
</event>
<event>
12    1  0.8421768E-002  0.1948296E+03  0.7818608E-02  0.1158122E+00
         21   -1    0    0  503  502  0.00000000000E+00  0.00000000000E+00  0.12605876998E+03  0.12605876998E+03  0.00000000000E+00 0.  1.
         21   -1    0    0  501  503 -0.00000000000E+00 -0.00000000000E+00 -0.57242873338E+03  0.57242873338E+03  0.00000000000E+00 0.  1.
          6    2    1    2  501    0 -0.12893266210E+02 -0.43747483928E+02 -0.46979866942E+03  0.50225425223E+03  0.17166381514E+03 0.  0.
         24    2    3    3    0    0  0.59733467728E+02 -0.29492664137E+02 -0.25099878646E+03  0.27122758460E+03  0.78269454078E+02 0.  0.
         -6    2    1    2    0  502  0.12893266210E+02  0.43747483928E+02  0.23428706025E+02  0.19623325113E+03  0.18941622401E+03 0.  0.
        -24    2    5    5    0    0  0.38908161145E+02  0.45296882370E+02 -0.54026649779E+02  0.11437607345E+03  0.81224101938E+02 0.  0.
          5    1    3    3  501    0 -0.72626733938E+02 -0.14254819791E+02 -0.21879988296E+03  0.23102666763E+03  0.47000000000E+01 0. -1.
        -11    1    4    4    0    0  0.50379454980E+01 -0.33408155857E+02 -0.17057239105E+03  0.17388624546E+03  0.00000000000E+00 0.  1.
         12    1    4    4    0    0  0.54695522230E+02  0.39154917201E+01 -0.80426395410E+02  0.97341339143E+02  0.00000000000E+00 0. -1.
         -5    1    5    5    0  502 -0.26014894936E+02 -0.15493984426E+01  0.77455355804E+02  0.81857177674E+02  0.47000000000E+01 0.  1.
         13    1    6    6    0    0 -0.21200581539E+02  0.20339516873E+02  0.62975979603E+00  0.29386343794E+02  0.00000000000E+00 0. -1.
        -14    1    6    6    0    0  0.60108742684E+02  0.24957365497E+02 -0.54656409575E+02  0.84989729657E+02  0.00000000000E+00 0.  1.
</event>
<event>
12    1  0.8421768E-002  0.1945551E+03  0.7818608E-02  0.1154539E+00
         21   -1    0    0  503  502  0.00000000000E+00  0.00000000000E+00  0.64013264506E+03  0.64013264506E+03  0.00000000000E+00 0.  1.
         21   -1    0    0  501  503 -0.00000000000E+00 -0.00000000000E+00 -0.68507733845E+02  0.68507733845E+02  0.00000000000E+00 0.  1.
          6    2    1    2  501    0  0.80838778857E+02  0.42038299455E+02  0.15389388758E+03  0.24806253938E+03  0.17189987789E+03 0.  0.
         24    2    3    3    0    0 -0.29643898354E+01  0.13591382534E+02  0.13478174379E+03  0.15740073813E+03  0.80095946333E+02 0.  0.
         -6    2    1    2    0  502 -0.80838778857E+02 -0.42038299455E+02  0.41773102364E+03  0.46057783953E+03  0.17126182110E+03 0.  0.
        -24    2    5    5    0    0 -0.93264305072E+02 -0.75149332617E+02  0.37592899081E+03  0.40562118236E+03  0.94129085057E+02 0.  0.
          5    1    3    3  501    0  0.83803168693E+02  0.28446916921E+02  0.19112143791E+02  0.90661801248E+02  0.47000000000E+01 0. -1.
        -13    1    4    4    0    0  0.27379074550E+00 -0.21431056038E+02  0.37850076841E+01  0.21764452841E+02  0.00000000000E+00 0.  1.
         14    1    4    4    0    0 -0.32381805809E+01  0.35022438573E+02  0.13099673610E+03  0.13563628529E+03  0.00000000000E+00 0. -1.
         -5    1    5    5    0  502  0.12425526215E+02  0.33111033161E+02  0.41802032829E+02  0.54956657170E+02  0.47000000000E+01 0.  1.
         11    1    6    6    0    0 -0.60486981808E+02  0.63740576369E+01  0.11198171275E+03  0.12743314941E+03  0.00000000000E+00 0. -1.
        -12    1    6    6    0    0 -0.32777323264E+02 -0.81523390254E+02  0.26394727806E+03  0.27818803295E+03  0.00000000000E+00 0.  1.
</event>
<event>
12    1  0.8421768E-002  0.2279187E+03  0.7818608E-02  0.1128244E+00
         21   -1    0    0  501  502  0.00000000000E+00  0.00000000000E+00  0.68821695621E+02  0.68821695621E+02  0.00000000000E+00 0.  1.
         21   -1    0    0  502  503 -0.00000000000E+00 -0.00000000000E+00 -0.78489920426E+03  0.78489920426E+03  0.00000000000E+00 0.  1.
         -6    2    1    2    0  503 -0.11923343936E+03 -0.89494436802E+02 -0.44437309057E+03  0.49907992105E+03  0.17142770106E+03 0.  0.
        -24    2    3    3    0    0 -0.68137095023E+02  0.14976246331E+02 -0.16579066282E+03  0.19716069494E+03  0.80739358932E+02 0.  0.
          6    2    1    2  501    0  0.11923343936E+03  0.89494436802E+02 -0.27170441807E+03  0.35464097884E+03  0.17239798662E+03 0.  0.
         24    2    5    5    0    0  0.12030485348E+03  0.12531053656E+03 -0.22217064900E+03  0.29332519613E+03  0.80646668046E+02 0.  0.
          5    1    5    5  501    0 -0.10714141248E+01 -0.35816099756E+02 -0.49533769072E+02  0.61315782703E+02  0.47000000000E+01 0. -1.
        -13    1    6    6    0    0  0.33485651834E+02  0.41406142070E+02 -0.18157869498E+02  0.56262471547E+02  0.00000000000E+00 0.  1.
         14    1    6    6    0    0  0.86819201646E+02  0.83904394488E+02 -0.20401277950E+03  0.23706272459E+03  0.00000000000E+00 0. -1.
         -5    1    3    3    0  503 -0.51096344332E+02 -0.10447068313E+03 -0.27858242776E+03  0.30191922611E+03  0.47000000000E+01 0.  1.
         11    1    4    4    0    0  0.86964400030E+01  0.68490191715E+01  0.30497958150E+01  0.11482089829E+02  0.00000000000E+00 0. -1.
        -12    1    4    4    0    0 -0.76833535026E+02  0.81272271593E+01 -0.16884045863E+03  0.18567860511E+03  0.00000000000E+00 0.  1.
</event>
<event>
12    1  0.8421768E-002  0.1740930E+03  0.7818608E-02  0.1173786E+00
         21   -1    0    0  503  502  0.00000000000E+00  0.00000000000E+00  0.16940671437E+03  0.16940671437E+03  0.00000000000E+00 0.  1.
         21   -1    0    0  501  503 -0.00000000000E+00 -0.00000000000E+00 -0.33864973947E+03  0.33864973947E+03  0.00000000000E+00 0.  1.
          6    2    1    2  501    0 -0.86127705106E+01 -0.19223509526E+02 -0.25932878376E+03  0.31203650534E+03  0.17225457743E+03 0.  0.
         24    2    3    3    0    0 -0.31803657816E+02 -0.27788745768E+02 -0.27001477375E+03  0.28469677403E+03  0.79753294953E+02 0.  0.
         -6    2    1    2    0  502  0.86127705106E+01  0.19223509526E+02  0.90085758651E+02  0.19601994850E+03  0.17281392641E+03 0.  0.
        -24    2    5    5    0    0 -0.22324844030E+02 -0.32026819285E+02  0.11051681144E+03  0.13259085332E+03  0.61985909350E+02 0.  0.
          5    1    3    3  501    0  0.23190887306E+02  0.85652362418E+01  0.10685989997E+02  0.27339731310E+02  0.47000000000E+01 0. -1.
        -11    1    4    4    0    0 -0.47928954789E+02 -0.75715597617E+01 -0.84930823491E+02  0.97814917079E+02  0.00000000000E+00 0.  1.
         12    1    4    4    0    0  0.16125296972E+02 -0.20217186006E+02 -0.18508395026E+03  0.18688185695E+03  0.00000000000E+00 0. -1.
         -5    1    5    5    0  502  0.30937614540E+02  0.51250328811E+02 -0.20431052792E+02  0.63429095176E+02  0.47000000000E+01 0.  1.
         13    1    6    6    0    0 -0.43637683907E+02 -0.23037780726E+02  0.83826359077E+02  0.97272016910E+02  0.00000000000E+00 0. -1.
        -14    1    6    6    0    0  0.21312839877E+02 -0.89890385586E+01  0.26690452366E+02  0.35318836410E+02  0.00000000000E+00 0.  1.
</event>
<event>
12    1  0.8421768E-002  0.1835241E+03  0.7818608E-02  0.1164469E+00
         21   -1    0    0  503  502  0.00000000000E+00  0.00000000000E+00  0.19163831408E+03  0.19163831408E+03  0.00000000000E+00 0. -1.
         21   -1    0    0  501  503 -0.00000000000E+00 -0.00000000000E+00 -0.26101812648E+03  0.26101812648E+03  0.00000000000E+00 0. -1.
          6    2    1    2  501    0  0.52729789353E+02 -0.34470497808E+02 -0.16414036023E+03  0.24611188545E+03  0.17222182324E+03 0.  0.
         24    2    3    3    0    0 -0.34488788140E+02 -0.11914467928E+02 -0.11081392997E+03  0.14131850346E+03  0.79748111529E+02 0.  0.
         -6    2    1    2    0  502 -0.52729789353E+02  0.34470497808E+02  0.94760547833E+02  0.20654455511E+03  0.17237298488E+03 0.  0.
        -24    2    5    5    0    0 -0.10359487809E+03  0.22814030110E+02  0.65913132615E+02  0.14673323632E+03  0.77030661782E+02 0.  0.
          5    1    3    3  501    0  0.87218577493E+02 -0.22556029880E+02 -0.53326430262E+02  0.10479338199E+03  0.47000000000E+01 0. -1.
        -13    1    4    4    0    0 -0.14015762566E+02 -0.31866296865E+02 -0.95524800163E+01  0.36099201524E+02  0.00000000000E+00 0.  1.
         14    1    4    4    0    0 -0.20473025574E+02  0.19951828937E+02 -0.10126144995E+03  0.10521930194E+03  0.00000000000E+00 0. -1.
         -5    1    5    5    0  502  0.50865088733E+02  0.11656467698E+02  0.28847415218E+02  0.59811318793E+02  0.47000000000E+01 0.  1.
         11    1    6    6    0    0 -0.47354608964E+02 -0.25664037865E+02  0.43322027421E+02  0.69122354485E+02  0.00000000000E+00 0. -1.
        -12    1    6    6    0    0 -0.56240269122E+02  0.48478067975E+02  0.22591105194E+02  0.77610881836E+02  0.00000000000E+00 0.  1.
</event>
<event>
12    1  0.8421768E-002  0.1793978E+03  0.7818608E-02  0.1168596E+00
         21   -1    0    0  503  502  0.00000000000E+00  0.00000000000E+00  0.44582246433E+03  0.44582246433E+03  0.00000000000E+00 0.  1.
         21   -1    0    0  501  503 -0.00000000000E+00 -0.00000000000E+00 -0.89207243584E+02  0.89207243584E+02  0.00000000000E+00 0.  1.
          6    2    1    2  501    0 -0.19957331652E+02  0.45658476524E+02  0.60632070513E+02  0.18936691534E+03  0.17233858850E+03 0.  0.
         24    2    3    3    0    0  0.53110283614E+02  0.39030268987E+02  0.17650857811E+02  0.10420657140E+03  0.78761618938E+02 0.  0.
         -6    2    1    2    0  502  0.19957331652E+02 -0.45658476524E+02  0.29598315024E+03  0.34566279258E+03  0.17144605385E+03 0.  0.
        -24    2    5    5    0    0 -0.25481663040E+01  0.26100766657E+02  0.23611620060E+03  0.24942336158E+03  0.75982958238E+02 0.  0.
          5    1    3    3  501    0 -0.73067615266E+02  0.66282075371E+01  0.42981212701E+02  0.85160343947E+02  0.47000000000E+01 0. -1.
        -11    1    4    4    0    0 -0.43526288637E+01  0.89631239841E+01 -0.24778208858E+02  0.26706602251E+02  0.00000000000E+00 0.  1.
         12    1    4    4    0    0  0.57462912478E+02  0.30067145003E+02  0.42429066669E+02  0.77499969145E+02  0.00000000000E+00 0. -1.
         -5    1    5    5    0  502  0.22505497956E+02 -0.71759243182E+02  0.59866949637E+02  0.96239431000E+02  0.47000000000E+01 0.  1.
         11    1    6    6    0    0  0.29577531316E+02  0.14710544151E+02  0.48153258888E+02  0.58394921093E+02  0.00000000000E+00 0. -1.
        -12    1    6    6    0    0 -0.32125697620E+02  0.11390222506E+02  0.18796294171E+03  0.19102844048E+03  0.00000000000E+00 0.  1.
</event>
<event>
12    1  0.8421768E-002  0.1967012E+03  0.7818608E-02  0.1152782E+00
         21   -1    0    0  503  502  0.00000000000E+00  0.00000000000E+00  0.31711485369E+03  0.31711485369E+03  0.00000000000E+00 0.  1.
         21   -1    0    0  501  503 -0.00000000000E+00 -0.00000000000E+00 -0.16904954700E+03  0.16904954700E+03  0.00000000000E+00 0. -1.
          6    2    1    2  501    0  0.29564222859E+02 -0.89457347376E+02 -0.55231228752E+02  0.20328483936E+03  0.17145721627E+03 0.  0.
         24    2    3    3    0    0  0.28263086370E+02 -0.54036668507E+02  0.34510842252E+02  0.10668231995E+03  0.80444736074E+02 0.  0.
         -6    2    1    2    0  502 -0.29564222859E+02  0.89457347376E+02  0.20329653543E+03  0.28287956133E+03  0.17266935058E+03 0.  0.
        -24    2    5    5    0    0 -0.74925655437E+02  0.91050493613E+02  0.17979436294E+03  0.23155081897E+03  0.85940226856E+02 0.  0.
          5    1    3    3  501    0  0.13011364886E+01 -0.35420678869E+02 -0.89742071004E+02  0.96602519407E+02  0.47000000000E+01 0. -1.
        -11    1    4    4    0    0 -0.26274695126E+02 -0.20696929170E+02 -0.11875149548E+01  0.33468383182E+02  0.00000000000E+00 0.  1.
         12    1    4    4    0    0  0.54537781496E+02 -0.33339739337E+02  0.35698357207E+02  0.73213936767E+02  0.00000000000E+00 0. -1.
         -5    1    5    5    0  502  0.45361432578E+02 -0.15931462365E+01  0.23502172494E+02  0.51328742361E+02  0.47000000000E+01 0.  1.
         13    1    6    6    0    0 -0.40386169720E+02  0.26348840871E+02  0.13928489051E+02  0.50192697946E+02  0.00000000000E+00 0. -1.
        -14    1    6    6    0    0 -0.34539485717E+02  0.64701652741E+02  0.16586587389E+03  0.18135812103E+03  0.00000000000E+00 0.  1.
</event>
<event>
12    1  0.8421768E-002  0.1784116E+03  0.7818608E-02  0.1172899E+00
         21   -1    0    0  501  502  0.00000000000E+00  0.00000000000E+00  0.32064733920E+02  0.32064733920E+02  0.00000000000E+00 0.  1.
         21   -1    0    0  502  503 -0.00000000000E+00 -0.00000000000E+00 -0.92032453460E+03  0.92032453460E+03  0.00000000000E+00 0.  1.
         -6    2    1    2    0  503  0.10605311453E+01  0.45162328256E+02 -0.45506479178E+03  0.48389312957E+03  0.15820188211E+03 0.  0.
        -24    2    3    3    0    0 -0.49685849010E+02  0.29672726575E+02 -0.19428995581E+03  0.21773391418E+03  0.79437498461E+02 0.  0.
          6    2    1    2  501    0 -0.10605311453E+01 -0.45162328256E+02 -0.43319500890E+03  0.46849613895E+03  0.17259767049E+03 0.  0.
         24    2    5    5    0    0  0.21185066976E+02  0.20285000151E+02 -0.34986253078E+03  0.36012358089E+03  0.80155566090E+02 0.  0.
          5    1    5    5  501    0 -0.22245598122E+02 -0.65447328407E+02 -0.83332478111E+02  0.10837255806E+03  0.47000000000E+01 0. -1.
        -13    1    6    6    0    0  0.35298624235E+02  0.38339283973E+01 -0.32583499453E+03  0.32776384111E+03  0.00000000000E+00 0.  1.
         14    1    6    6    0    0 -0.14113557259E+02  0.16451071753E+02 -0.24027536253E+02  0.32359739782E+02  0.00000000000E+00 0. -1.
         -5    1    3    3    0  503  0.50746380156E+02  0.15489601681E+02 -0.26077483598E+03  0.26615921539E+03  0.47000000000E+01 0.  1.
         11    1    4    4    0    0 -0.91953000700E+01  0.39250659594E+02 -0.15621967081E+03  0.16133738987E+03  0.00000000000E+00 0. -1.
        -12    1    4    4    0    0 -0.40490548940E+02 -0.95779330192E+01 -0.38070284998E+02  0.56396524310E+02  0.00000000000E+00 0.  1.
</event>
<event>
12    1  0.8421768E-002  0.2450548E+03  0.7818608E-02  0.1116682E+00
         21   -1    0    0  503  502  0.00000000000E+00  0.00000000000E+00  0.11001033976E+03  0.11001033976E+03  0.00000000000E+00 0.  1.
         21   -1    0    0  501  503 -0.00000000000E+00 -0.00000000000E+00 -0.65024763871E+03  0.65024763871E+03  0.00000000000E+00 0. -1.
          6    2    1    2  501    0  0.17153237161E+03  0.44302988921E+01 -0.11512624949E+03  0.26957348684E+03  0.17312662830E+03 0.  0.
         24    2    3    3    0    0  0.19595955574E+03 -0.57929818032E+01 -0.82492274238E+02  0.22728555554E+03  0.80125166624E+02 0.  0.
         -6    2    1    2    0  502 -0.17153237161E+03 -0.44302988921E+01 -0.42511104946E+03  0.49068449163E+03  0.17495394793E+03 0.  0.
        -24    2    5    5    0    0 -0.13296846430E+03 -0.67660910687E+02 -0.27810561137E+03  0.32600913208E+03  0.81735009588E+02 0.  0.
          5    1    3    3  501    0 -0.24427184128E+02  0.10223280695E+02 -0.32633975250E+02  0.42287931295E+02  0.47000000000E+01 0. -1.
        -13    1    4    4    0    0  0.97984843625E+02  0.70997612428E+01  0.49400809806E+00  0.98242965315E+02  0.00000000000E+00 0.  1.
         14    1    4    4    0    0  0.97974712113E+02 -0.12892743046E+02 -0.82986282336E+02  0.12904259023E+03  0.00000000000E+00 0. -1.
         -5    1    5    5    0  502 -0.38563907312E+02  0.63230611795E+02 -0.14700543810E+03  0.16467535956E+03  0.47000000000E+01 0.  1.
         11    1    6    6    0    0 -0.39175910336E+02 -0.49657610791E+02 -0.17195403547E+03  0.18321795920E+03  0.00000000000E+00 0. -1.
        -12    1    6    6    0    0 -0.93792553962E+02 -0.18003299897E+02 -0.10615157589E+03  0.14279117287E+03  0.00000000000E+00 0.  1.
</event>
<event>
12    1  0.8421768E-002  0.2786323E+03  0.7818608E-02  0.1096559E+00
         21   -1    0    0  501  502  0.00000000000E+00  0.00000000000E+00  0.30105317514E+03  0.30105317514E+03  0.00000000000E+00 0.  1.
         21   -1    0    0  502  503 -0.00000000000E+00 -0.00000000000E+00 -0.34446697042E+03  0.34446697042E+03  0.00000000000E+00 0.  1.
         -6    2    1    2    0  503  0.10613512786E+03  0.19094531448E+03 -0.18425546491E+03  0.33331456002E+03  0.17153349844E+03 0.  0.
        -24    2    3    3    0    0  0.56231587911E+02  0.10400745933E+03 -0.18593981207E+03  0.23294782757E+03  0.75574688766E+02 0.  0.
          6    2    1    2  501    0 -0.10613512786E+03 -0.19094531448E+03  0.14084166963E+03  0.31220558553E+03  0.17294846992E+03 0.  0.
         24    2    5    5    0    0 -0.52534381554E+02 -0.16973408009E+03  0.43730515418E+02  0.19917628517E+03  0.78672202246E+02 0.  0.
          5    1    5    5  501    0 -0.53600746310E+02 -0.21211234390E+02  0.97111154211E+02  0.11302930037E+03  0.47000000000E+01 0. -1.
        -11    1    6    6    0    0  0.34168075461E+01 -0.81760446407E+02  0.47925733319E+02  0.94833122297E+02  0.00000000000E+00 0.  1.
         12    1    6    6    0    0 -0.55951189100E+02 -0.87973633678E+02 -0.41952179007E+01  0.10434316287E+03  0.00000000000E+00 0. -1.
         -5    1    3    3    0  503  0.49903539953E+02  0.86937855141E+02  0.16843471638E+01  0.10036673244E+03  0.47000000000E+01 0.  1.
         13    1    4    4    0    0 -0.57416082029E+01  0.51843528903E+02 -0.11077982623E+03  0.12244544685E+03  0.00000000000E+00 0. -1.
        -14    1    4    4    0    0  0.61973196113E+02  0.52163930432E+02 -0.75159985838E+02  0.11050238072E+03  0.00000000000E+00 0.  1.
</event>
<event>
12    1  0.8421768E-002  0.2566263E+03  0.7818608E-02  0.1110290E+00
         21   -1    0    0  503  502  0.00000000000E+00  0.00000000000E+00  0.19073852771E+03  0.19073852771E+03  0.00000000000E+00 0.  1.
         21   -1    0    0  501  503 -0.00000000000E+00 -0.00000000000E+00 -0.44406660056E+03  0.44406660056E+03  0.00000000000E+00 0. -1.
          6    2    1    2  501    0  0.11413528999E+03 -0.14146996638E+03  0.31412597349E+02  0.25148501178E+03  0.17093081662E+03 0.  0.
         24    2    3    3    0    0  0.26567789087E+02 -0.10490085638E+02 -0.17916699600E+02  0.86320651488E+02  0.79462931201E+02 0.  0.
         -6    2    1    2    0  502 -0.11413528999E+03  0.14146996638E+03 -0.28474067020E+03  0.38332011649E+03  0.18115310274E+03 0.  0.
        -24    2    5    5    0    0 -0.13280720702E+01  0.36980014121E+02 -0.16623460601E+03  0.18913104422E+03  0.82263737048E+02 0.  0.
          5    1    3    3  501    0  0.87567500906E+02 -0.13097988074E+03  0.49329296949E+02  0.16516436030E+03  0.47000000000E+01 0. -1.
        -13    1    4    4    0    0  0.32223561441E+02 -0.27650389650E+02  0.17997598672E+02  0.46117410137E+02  0.00000000000E+00 0.  1.
         14    1    4    4    0    0 -0.56557723539E+01  0.17160304012E+02 -0.35914298273E+02  0.40203241351E+02  0.00000000000E+00 0. -1.
         -5    1    5    5    0  502 -0.11280721792E+03  0.10448995226E+03 -0.11850606419E+03  0.19418907227E+03  0.47000000000E+01 0.  1.
         11    1    6    6    0    0 -0.14747262756E+02 -0.22734391969E+02 -0.70231652541E+02  0.75278279441E+02  0.00000000000E+00 0. -1.
        -12    1    6    6    0    0  0.13419190686E+02  0.59714406090E+02 -0.96002953469E+02  0.11385276478E+03  0.00000000000E+00 0.  1.
</event>
<event>
12    1  0.8421768E-002  0.2053672E+03  0.7818608E-02  0.1146059E+00
         21   -1    0    0  501  502  0.00000000000E+00  0.00000000000E+00  0.85096100821E+03  0.85096100821E+03  0.00000000000E+00 0. -1.
         21   -1    0    0  502  503 -0.00000000000E+00 -0.00000000000E+00 -0.12791555426E+03  0.12791555426E+03  0.00000000000E+00 0.  1.
         -6    2    1    2    0  503  0.64942167966E+02  0.92203387906E+02 -0.22456346638E+02  0.20659130055E+03  0.17162962459E+03 0.  0.
        -24    2    3    3    0    0  0.83974105239E+02  0.32583193535E+02 -0.56912778436E+02  0.13499438787E+03  0.82892132045E+02 0.  0.
          6    2    1    2  501    0 -0.64942167966E+02 -0.92203387906E+02  0.74550180058E+03  0.77228526193E+03  0.16713061117E+03 0.  0.
         24    2    5    5    0    0 -0.97452532560E+02 -0.74459442917E+02  0.68982322643E+03  0.70524821985E+03  0.80484552202E+02 0.  0.
          5    1    5    5  501    0  0.32510364594E+02 -0.17743944989E+02  0.55678574157E+02  0.67037042073E+02  0.47000000000E+01 0. -1.
        -11    1    6    6    0    0 -0.31530563026E+02 -0.20534893643E+02  0.68846543440E+02  0.78458299786E+02  0.00000000000E+00 0.  1.
         12    1    6    6    0    0 -0.65921969534E+02 -0.53924549274E+02  0.62097668299E+03  0.62678992007E+03  0.00000000000E+00 0. -1.
         -5    1    3    3    0  503 -0.19031937273E+02  0.59620194371E+02  0.34456431798E+02  0.71596912681E+02  0.47000000000E+01 0.  1.
         13    1    4    4    0    0  0.53878079317E+02 -0.13745386823E+02  0.10249646760E+00  0.55603899101E+02  0.00000000000E+00 0. -1.
        -14    1    4    4    0    0  0.30096025923E+02  0.46328580357E+02 -0.57015274904E+02  0.79390488767E+02  0.00000000000E+00 0.  1.
</event>
<event>
12    1  0.8421768E-002  0.3521508E+03  0.7818608E-02  0.1061761E+00
         21   -1    0    0  501  502  0.00000000000E+00  0.00000000000E+00  0.21552979207E+03  0.21552979207E+03  0.00000000000E+00 0.  1.
         21   -1    0    0  502  503 -0.00000000000E+00 -0.00000000000E+00 -0.59087418908E+03  0.59087418908E+03  0.00000000000E+00 0. -1.
         -6    2    1    2    0  503  0.19360531784E+03  0.23798510307E+03 -0.25376130100E+03  0.43385518745E+03  0.17238212617E+03 0.  0.
        -24    2    3    3    0    0  0.20392139675E+03  0.15535267880E+03 -0.19755044982E+03  0.33327542401E+03  0.79548332258E+02 0.  0.
          6    2    1    2  501    0 -0.19360531784E+03 -0.23798510307E+03 -0.12158309601E+03  0.37254879370E+03  0.17288790032E+03 0.  0.
         24    2    5    5    0    0 -0.13393178273E+03 -0.24486265270E+03 -0.86460029216E+02  0.30280675973E+03  0.79505697747E+02 0.  0.
          5    1    5    5  501    0 -0.59673535103E+02  0.68775496354E+01 -0.35123066794E+02  0.69742033965E+02  0.47000000000E+01 0. -1.
        -11    1    6    6    0    0 -0.20236392650E+02 -0.11381474163E+03 -0.21691849364E+02  0.11761735981E+03  0.00000000000E+00 0.  1.
         12    1    6    6    0    0 -0.11369539008E+03 -0.13104791107E+03 -0.64768179852E+02  0.18518939992E+03  0.00000000000E+00 0. -1.
         -5    1    3    3    0  503 -0.10316078911E+02  0.82632424263E+02 -0.56210851177E+02  0.10057976344E+03  0.47000000000E+01 0.  1.
         11    1    4    4    0    0  0.14637849775E+03  0.73806268356E+02 -0.15203682951E+03  0.22358270814E+03  0.00000000000E+00 0. -1.
        -12    1    4    4    0    0  0.57542898995E+02  0.81546410448E+02 -0.45513620310E+02  0.10969271587E+03  0.00000000000E+00 0.  1.
</event>
<event>
12    1  0.8421768E-002  0.1782721E+03  0.7818608E-02  0.1169888E+00
         21   -1    0    0  503  502  0.00000000000E+00  0.00000000000E+00  0.45464750067E+02  0.45464750067E+02  0.00000000000E+00 0.  1.
         21   -1    0    0  501  503 -0.00000000000E+00 -0.00000000000E+00 -0.72879867410E+03  0.72879867410E+03  0.00000000000E+00 0.  1.
          6    2    1    2  501    0  0.28057715892E+02  0.32127590716E+02 -0.42640704641E+03  0.46154573735E+03  0.17141202097E+03 0.  0.
         24    2    3    3    0    0 -0.10983888364E+02 -0.41121219876E+02 -0.17261286790E+03  0.19448168106E+03  0.78843652738E+02 0.  0.
         -6    2    1    2    0  502 -0.28057715892E+02 -0.32127590716E+02 -0.25692687763E+03  0.31271768682E+03  0.17309394471E+03 0.  0.
        -24    2    5    5    0    0 -0.13640846547E+02  0.98099259473E+01 -0.25573225229E+03  0.26810694197E+03  0.78740333590E+02 0.  0.
          5    1    3    3  501    0  0.39041604256E+02  0.73248810592E+02 -0.25379417851E+03  0.26706405629E+03  0.47000000000E+01 0. -1.
        -13    1    4    4    0    0 -0.23180181607E+01  0.20402844119E+02 -0.82557963497E+02  0.85073301294E+02  0.00000000000E+00 0.  1.
         14    1    4    4    0    0 -0.86658702034E+01 -0.61524063994E+02 -0.90054904403E+02  0.10940837977E+03  0.00000000000E+00 0. -1.
         -5    1    5    5    0  502 -0.14416869345E+02 -0.41937516664E+02 -0.11946253391E+01  0.44610744841E+02  0.47000000000E+01 0.  1.
         13    1    6    6    0    0 -0.10262115153E+02  0.44493199001E+02 -0.14367364487E+03  0.15075500653E+03  0.00000000000E+00 0. -1.
        -14    1    6    6    0    0 -0.33787313937E+01 -0.34683273054E+02 -0.11205860742E+03  0.11735193544E+03  0.00000000000E+00 0.  1.
</event>
<event>
12    1  0.8421768E-002  0.2758390E+03  0.7818608E-02  0.1098257E+00
         21   -1    0    0  503  502  0.00000000000E+00  0.00000000000E+00  0.91712393463E+02  0.91712393463E+02  0.00000000000E+00 0. -1.
         21   -1    0    0  501  503 -0.00000000000E+00 -0.00000000000E+00 -0.82381451058E+03  0.82381451058E+03  0.00000000000E+00 0.  1.
          6    2    1    2  501    0  0.20135280288E+03 -0.75281613553E+02 -0.37137819318E+03  0.46261095188E+03  0.17284923451E+03 0.  0.
         24    2    3    3    0    0  0.87732210009E+02 -0.10204533880E+03 -0.17582955236E+03  0.23482311850E+03  0.78202772674E+02 0.  0.
         -6    2    1    2    0  502 -0.20135280288E+03  0.75281613553E+02 -0.36072392394E+03  0.45291595216E+03  0.16970809601E+03 0.  0.
        -24    2    5    5    0    0 -0.14046088342E+03  0.25823997307E+02 -0.13533395025E+03  0.21421821045E+03  0.84723225785E+02 0.  0.
          5    1    3    3  501    0  0.11362059287E+03  0.26763725250E+02 -0.19554864081E+03  0.22778783338E+03  0.47000000000E+01 0. -1.
        -13    1    4    4    0    0  0.75793537577E+02 -0.83561836635E+02 -0.17999589053E+03  0.21242825022E+03  0.00000000000E+00 0.  1.
         14    1    4    4    0    0  0.11938672432E+02 -0.18483502168E+02  0.41663381700E+01  0.22394868287E+02  0.00000000000E+00 0. -1.
         -5    1    5    5    0  502 -0.60891919453E+02  0.49457616246E+02 -0.22538997369E+03  0.23869774171E+03  0.47000000000E+01 0.  1.
         13    1    6    6    0    0 -0.18006038809E+02 -0.23977240940E+02 -0.88591021632E+01  0.31266742840E+02  0.00000000000E+00 0. -1.
        -14    1    6    6    0    0 -0.12245484462E+03  0.49801238247E+02 -0.12647484809E+03  0.18295146761E+03  0.00000000000E+00 0.  1.
</event>
<event>
12    1  0.8421768E-002  0.2235972E+03  0.7818608E-02  0.1131397E+00
         21   -1    0    0  501  502  0.00000000000E+00  0.00000000000E+00  0.76771324309E+03  0.76771324309E+03  0.00000000000E+00 0. -1.
         21   -1    0    0  502  503 -0.00000000000E+00 -0.00000000000E+00 -0.73489071468E+02  0.73489071468E+02  0.00000000000E+00 0. -1.
         -6    2    1    2    0  503  0.13894138630E+03 -0.35678797572E+02  0.20233313211E+03  0.30087604182E+03  0.17032325376E+03 0.  0.
        -24    2    3    3    0    0  0.12284048264E+03  0.49505122164E+01  0.74876552495E+02  0.16605301115E+03  0.82781716894E+02 0.  0.
          6    2    1    2  501    0 -0.13894138630E+03  0.35678797572E+02  0.49189103951E+03  0.54032627274E+03  0.17151676547E+03 0.  0.
         24    2    5    5    0    0 -0.40862645900E+02  0.76413145470E+02  0.25311530012E+03  0.27895552047E+03  0.78994320162E+02 0.  0.
          5    1    5    5  501    0 -0.98078740395E+02 -0.40734347898E+02  0.23877573940E+03  0.26137075227E+03  0.47000000000E+01 0. -1.
        -11    1    6    6    0    0 -0.27827803418E+00  0.30294657589E+02  0.18402848033E+03  0.18650556370E+03  0.00000000000E+00 0.  1.
         12    1    6    6    0    0 -0.40584367866E+02  0.46118487880E+02  0.69086819785E+02  0.92449956774E+02  0.00000000000E+00 0. -1.
         -5    1    3    3    0  503  0.16100903656E+02 -0.40629309788E+02  0.12745657961E+03  0.13482303067E+03  0.47000000000E+01 0.  1.
         11    1    4    4    0    0  0.21948194432E+02 -0.31085206592E+02  0.35111235507E+02  0.51776560010E+02  0.00000000000E+00 0. -1.
        -12    1    4    4    0    0  0.10089228821E+03  0.36035718808E+02  0.39765316988E+02  0.11427645114E+03  0.00000000000E+00 0.  1.
</event>
<event>
12    1  0.8421768E-002  0.2256595E+03  0.7818608E-02  0.1129885E+00
         21   -1    0    0  503  502  0.00000000000E+00  0.00000000000E+00  0.38161610917E+02  0.38161610917E+02  0.00000000000E+00 0.  1.
         21   -1    0    0  501  503 -0.00000000000E+00 -0.00000000000E+00 -0.16012413813E+04  0.16012413813E+04  0.00000000000E+00 0. -1.
          6    2    1    2  501    0  0.20528454094E+02 -0.14477041678E+03 -0.11180646982E+04  0.11404434568E+04  0.17077095167E+03 0.  0.
         24    2    3    3    0    0  0.74871728249E+02 -0.12446869154E+03 -0.80396266572E+03  0.82099466863E+03  0.81105161264E+02 0.  0.
         -6    2    1    2    0  502 -0.20528454094E+02  0.14477041678E+03 -0.44501507222E+03  0.49895953539E+03  0.17187877255E+03 0.  0.
        -24    2    5    5    0    0  0.28676619335E+02  0.60263457826E+02 -0.32502802600E+03  0.34409977102E+03  0.91144949833E+02 0.  0.
          5    1    3    3  501    0 -0.54343274155E+02 -0.20301725240E+02 -0.31410203246E+03  0.31944878821E+03  0.47000000000E+01 0. -1.
        -11    1    4    4    0    0  0.15601460600E+02 -0.31512834853E+01 -0.26138301581E+03  0.26186717456E+03  0.00000000000E+00 0.  1.
         12    1    4    4    0    0  0.59270267649E+02 -0.12131740805E+03 -0.54257964991E+03  0.55912749406E+03  0.00000000000E+00 0. -1.
         -5    1    5    5    0  502 -0.49205073429E+02  0.84506958954E+02 -0.11998704621E+03  0.15485976437E+03  0.47000000000E+01 0.  1.
         13    1    6    6    0    0  0.42611529646E+00 -0.20783597278E+02 -0.12069890051E+03  0.12247597346E+03  0.00000000000E+00 0. -1.
        -14    1    6    6    0    0  0.28250504038E+02  0.81047055103E+02 -0.20432912549E+03  0.22162379756E+03  0.00000000000E+00 0.  1.
</event>
<event>
12    1  0.8421768E-002  0.3044723E+03  0.7818608E-02  0.1083078E+00
         21   -1    0    0  501  502  0.00000000000E+00  0.00000000000E+00  0.11747879681E+03  0.11747879681E+03  0.00000000000E+00 0.  1.
         21   -1    0    0  502  503 -0.00000000000E+00 -0.00000000000E+00 -0.79466960030E+03  0.79466960030E+03  0.00000000000E+00 0.  1.
         -6    2    1    2    0  503  0.17952869941E+03 -0.17537353084E+03 -0.29662912375E+03  0.42477730789E+03  0.17164059837E+03 0.  0.
        -24    2    3    3    0    0  0.12988558659E+03 -0.18512755984E+03 -0.28772800667E+03  0.37319339937E+03  0.73098758545E+02 0.  0.
          6    2    1    2  501    0 -0.17952869941E+03  0.17537353084E+03 -0.38056167975E+03  0.48737108922E+03  0.17238607045E+03 0.  0.
         24    2    5    5    0    0 -0.62464040584E+02  0.15689513257E+03 -0.25786247274E+03  0.31671713835E+03  0.72793213173E+02 0.  0.
          5    1    5    5  501    0 -0.11706465882E+03  0.18478398266E+02 -0.12269920701E+03  0.17065395087E+03  0.47000000000E+01 0. -1.
        -11    1    6    6    0    0 -0.38964572513E+02  0.29142784793E+02 -0.10761554223E+03  0.11810438073E+03  0.00000000000E+00 0.  1.
         12    1    6    6    0    0 -0.23499468071E+02  0.12775234778E+03 -0.15024693051E+03  0.19861275762E+03  0.00000000000E+00 0. -1.
         -5    1    3    3    0  503  0.49643112823E+02  0.97540289949E+01 -0.89011170826E+01  0.51583908516E+02  0.47000000000E+01 0.  1.
         13    1    4    4    0    0  0.41988064998E+01 -0.59443096995E+02 -0.63911656988E+02  0.87383131412E+02  0.00000000000E+00 0. -1.
        -14    1    4    4    0    0  0.12568678009E+03 -0.12568446284E+03 -0.22381634968E+03  0.28581026796E+03  0.00000000000E+00 0.  1.
</event>
<event>
12    1  0.8421768E-002  0.1959214E+03  0.7818608E-02  0.1153286E+00
         21   -1    0    0  501  502  0.00000000000E+00  0.00000000000E+00  0.89780698090E+02  0.89780698090E+02  0.00000000000E+00 0.  1.
         21   -1    0    0  502  503 -0.00000000000E+00 -0.00000000000E+00 -0.71667502573E+03  0.71667502573E+03  0.00000000000E+00 0.  1.
         -6    2    1    2    0  503  0.79092737456E+02  0.48386905410E+02 -0.56995812062E+03  0.60269185284E+03  0.17259274750E+03 0.  0.
        -24    2    3    3    0    0 -0.19313510061E+02  0.42125254611E+02 -0.34183125203E+03  0.35412203168E+03  0.80039113623E+02 0.  0.
          6    2    1    2  501    0 -0.79092737456E+02 -0.48386905410E+02 -0.56936207023E+02  0.20376387098E+03  0.17228183222E+03 0.  0.
         24    2    5    5    0    0 -0.92777014497E+01 -0.11764538336E+02 -0.88549166278E+02  0.11869445100E+03  0.77607588178E+02 0.  0.
          5    1    5    5  501    0 -0.69815036006E+02 -0.36622367074E+02  0.31612959256E+02  0.85069419979E+02  0.47000000000E+01 0. -1.
        -13    1    6    6    0    0 -0.33733996129E+02 -0.22783441735E+02 -0.20558998716E+02  0.45604168015E+02  0.00000000000E+00 0.  1.
         14    1    6    6    0    0  0.24456294679E+02  0.11018903399E+02 -0.67990167562E+02  0.73090282984E+02  0.00000000000E+00 0. -1.
         -5    1    3    3    0  503  0.98406247517E+02  0.62616507991E+01 -0.22812686858E+03  0.24856982116E+03  0.47000000000E+01 0.  1.
         11    1    4    4    0    0 -0.57547999931E+01  0.44137841530E+01  0.23437059082E+01  0.76218220193E+01  0.00000000000E+00 0. -1.
        -12    1    4    4    0    0 -0.13558710068E+02  0.37711470458E+02 -0.34417495794E+03  0.34650020966E+03  0.00000000000E+00 0.  1.
</event>
<event>
12    1  0.8421768E-002  0.2325701E+03  0.7818608E-02  0.1125388E+00
         21   -1    0    0  503  502  0.00000000000E+00  0.00000000000E+00  0.10206922719E+03  0.10206922719E+03  0.00000000000E+00 0. -1.
         21   -1    0    0  501  503 -0.00000000000E+00 -0.00000000000E+00 -0.12730769805E+04  0.12730769805E+04  0.00000000000E+00 0.  1.
          6    2    1    2  501    0 -0.56096591401E+02 -0.14782840360E+03 -0.11117004695E+04  0.11351332377E+04  0.16628129423E+03 0.  0.
         24    2    3    3    0    0 -0.81149587245E+01 -0.15473087676E+03 -0.73133893005E+03  0.75166632654E+03  0.78346276661E+02 0.  0.
         -6    2    1    2    0  502  0.56096591401E+02  0.14782840360E+03 -0.59307283815E+02  0.24001297007E+03  0.17055441188E+03 0.  0.
        -24    2    5    5    0    0  0.59187728334E+02  0.38659530360E+02  0.15769757653E+02  0.10740056429E+03  0.79299744514E+02 0.  0.
          5    1    3    3  501    0 -0.47981632677E+02  0.69024731581E+01 -0.38036153949E+03  0.38346691114E+03  0.47000000000E+01 0. -1.
        -11    1    4    4    0    0  0.13631640475E+02 -0.98593539780E+02 -0.58534656268E+03  0.59374835255E+03  0.00000000000E+00 0.  1.
         12    1    4    4    0    0 -0.21746599199E+02 -0.56137336977E+02 -0.14599236736E+03  0.15791797399E+03  0.00000000000E+00 0. -1.
         -5    1    5    5    0  502 -0.30911369332E+01  0.10916887324E+03 -0.75077041467E+02  0.13261240578E+03  0.47000000000E+01 0.  1.
         13    1    6    6    0    0  0.35360246718E+01 -0.13544640891E+02  0.26865160695E+02  0.30293524498E+02  0.00000000000E+00 0. -1.
        -14    1    6    6    0    0  0.55651703663E+02  0.52204171251E+02 -0.11095403042E+02  0.77107039790E+02  0.00000000000E+00 0.  1.
</event>
<event>
12    1  0.8421768E-002  0.2210229E+03  0.7818608E-02  0.1134653E+00
         21   -1    0    0  501  502  0.00000000000E+00  0.00000000000E+00  0.38578849135E+03  0.38578849135E+03  0.00000000000E+00 0.  1.
         21   -1    0    0  502  503 -0.00000000000E+00 -0.00000000000E+00 -0.12705230420E+03  0.12705230420E+03  0.00000000000E+00 0. -1.
         -6    2    1    2    0  503 -0.10704606560E+03  0.87735324812E+02  0.76078653206E+02  0.22610938552E+03  0.16180588793E+03 0.  0.
        -24    2    3    3    0    0 -0.61589047318E+01  0.16314071099E+02  0.59879779810E+02  0.10135479359E+03  0.79894462446E+02 0.  0.
          6    2    1    2  501    0  0.10704606560E+03 -0.87735324812E+02  0.18265753394E+03  0.28673141002E+03  0.17232173226E+03 0.  0.
         24    2    5    5    0    0  0.14854798600E+03 -0.63710832544E+02  0.14668951093E+03  0.22660342731E+03  0.60874677187E+02 0.  0.
          5    1    5    5  501    0 -0.41501920402E+02 -0.24024492268E+02  0.35968023007E+02  0.60127982710E+02  0.47000000000E+01 0. -1.
        -11    1    6    6    0    0  0.11849304440E+03 -0.38777930011E+02  0.76481771149E+02  0.14626616404E+03  0.00000000000E+00 0.  1.
         12    1    6    6    0    0  0.30054941609E+02 -0.24932902533E+02  0.70207739786E+02  0.80337263270E+02  0.00000000000E+00 0. -1.
         -5    1    3    3    0  503 -0.10088716087E+03  0.71421253712E+02  0.16198873396E+02  0.12475459194E+03  0.47000000000E+01 0.  1.
         13    1    4    4    0    0 -0.36746227465E+02 -0.56645568330E+01  0.93610216379E+01  0.38340594194E+02  0.00000000000E+00 0. -1.
        -14    1    4    4    0    0  0.30587322733E+02  0.21978627933E+02  0.50518758172E+02  0.63014199392E+02  0.00000000000E+00 0.  1.
</event>
<event>
12    1  0.8421768E-002  0.1859387E+03  0.7818608E-02  0.1162312E+00
         21   -1    0    0  501  502  0.00000000000E+00  0.00000000000E+00  0.33267783109E+03  0.33267783109E+03  0.00000000000E+00 0.  1.
         21   -1    0    0  502  503 -0.00000000000E+00 -0.00000000000E+00 -0.10595160357E+03  0.10595160357E+03  0.00000000000E+00 0.  1.
         -6    2    1    2    0  503  0.66558629771E+02 -0.21767441593E+02  0.80504497113E+02  0.20208349222E+03  0.17161844616E+03 0.  0.
        -24    2    3    3    0    0  0.81042301044E+02 -0.65439365190E+02  0.29769008834E+02  0.13343079078E+03  0.77893625964E+02 0.  0.
          6    2    1    2  501    0 -0.66558629771E+02  0.21767441593E+02  0.14622173040E+03  0.23654594244E+03  0.17224783231E+03 0.  0.
         24    2    5    5    0    0  0.50455059565E+01 -0.43531643153E+02  0.35210789017E+02  0.89112425803E+02  0.69143066777E+02 0.  0.
          5    1    5    5  501    0 -0.71604135727E+02  0.65299084746E+02  0.11101094138E+03  0.14743351664E+03  0.47000000000E+01 0. -1.
        -13    1    6    6    0    0 -0.14810404524E+02 -0.56310744998E+02  0.24102719294E+02  0.63017371904E+02  0.00000000000E+00 0.  1.
         14    1    6    6    0    0  0.19855910481E+02  0.12779101845E+02  0.11108069723E+02  0.26095053898E+02  0.00000000000E+00 0. -1.
         -5    1    3    3    0  503 -0.14483671273E+02  0.43671923597E+02  0.50735488280E+02  0.68652701441E+02  0.47000000000E+01 0.  1.
         13    1    4    4    0    0  0.71909487858E+02 -0.21986893330E+02 -0.73542822690E+01  0.75554506087E+02  0.00000000000E+00 0. -1.
        -14    1    4    4    0    0  0.91328131856E+01 -0.43452471860E+02  0.37123291103E+02  0.57876284692E+02  0.00000000000E+00 0.  1.
</event>
<event>
12    1  0.8421768E-002  0.2071223E+03  0.7818608E-02  0.1144127E+00
         21   -1    0    0  501  502  0.00000000000E+00  0.00000000000E+00  0.61226972199E+02  0.61226972199E+02  0.00000000000E+00 0. -1.
         21   -1    0    0  502  503 -0.00000000000E+00 -0.00000000000E+00 -0.69691861416E+03  0.69691861416E+03  0.00000000000E+00 0. -1.
         -6    2    1    2    0  503  0.11601737042E+03 -0.32544602750E+01 -0.30746505129E+03  0.37072144360E+03  0.17154885377E+03 0.  0.
        -24    2    3    3    0    0  0.42930488936E+02  0.49319280643E+02 -0.23001018227E+03  0.25186423004E+03  0.79091643713E+02 0.  0.
          6    2    1    2  501    0 -0.11601737042E+03  0.32544602750E+01 -0.32822659066E+03  0.38742414275E+03  0.16998279272E+03 0.  0.
         24    2    5    5    0    0 -0.14290402399E+03 -0.65391242564E+01 -0.31476622058E+03  0.35545418809E+03  0.82495975647E+02 0.  0.
          5    1    5    5  501    0  0.26886653570E+02  0.97935845314E+01 -0.13460370084E+02  0.31969954660E+02  0.47000000000E+01 0. -1.
        -13    1    6    6    0    0  0.68788779916E+01 -0.47604242673E+01 -0.54678397976E+02  0.55314625614E+02  0.00000000000E+00 0.  1.
         14    1    6    6    0    0 -0.14978290198E+03 -0.17786999891E+01 -0.26008782260E+03  0.30013956248E+03  0.00000000000E+00 0. -1.
         -5    1    3    3    0  503  0.73086881482E+02 -0.52573740918E+02 -0.77454869025E+02  0.11885721356E+03  0.47000000000E+01 0.  1.
         13    1    4    4    0    0  0.33697957194E+02 -0.10863389989E+02 -0.46036092083E+02  0.58076564425E+02  0.00000000000E+00 0. -1.
        -14    1    4    4    0    0  0.92325317427E+01  0.60182670632E+02 -0.18397409019E+03  0.19378766562E+03  0.00000000000E+00 0.  1.
</event>
<event>
12    1  0.8421768E-002  0.1923299E+03  0.7818608E-02  0.1156426E+00
         21   -1    0    0  501  502  0.00000000000E+00  0.00000000000E+00  0.19659818415E+03  0.19659818415E+03  0.00000000000E+00 0. -1.
         21   -1    0    0  502  503 -0.00000000000E+00 -0.00000000000E+00 -0.18946705488E+03  0.18946705488E+03  0.00000000000E+00 0. -1.
         -6    2    1    2    0  503 -0.72820615086E+02 -0.45088104847E+02 -0.13784015562E+02  0.19260145047E+03  0.17195796131E+03 0.  0.
        -24    2    3    3    0    0 -0.99989184180E+02 -0.74303986848E+02 -0.15864966883E+02  0.15237559727E+03  0.86300093009E+02 0.  0.
          6    2    1    2  501    0  0.72820615086E+02  0.45088104847E+02  0.20915144830E+02  0.19346378857E+03  0.17220631528E+03 0.  0.
         24    2    5    5    0    0  0.89633597162E+02 -0.12510294358E+02 -0.15067335229E+02  0.12334188879E+03  0.82434869647E+02 0.  0.
          5    1    5    5  501    0 -0.16812982076E+02  0.57598399205E+02  0.35982480058E+02  0.70121899777E+02  0.47000000000E+01 0. -1.
        -11    1    6    6    0    0  0.18155142547E+02 -0.41484419668E+02 -0.62255633070E+01  0.45709122881E+02  0.00000000000E+00 0.  1.
         12    1    6    6    0    0  0.71478454615E+02  0.28974125310E+02 -0.88417719217E+01  0.77632765907E+02  0.00000000000E+00 0. -1.
         -5    1    3    3    0  503  0.27168569094E+02  0.29215882002E+02  0.20809513212E+01  0.40225853206E+02  0.47000000000E+01 0.  1.
         11    1    4    4    0    0 -0.48246869149E+02 -0.28380907319E+02 -0.50158019347E+02  0.75160250051E+02  0.00000000000E+00 0. -1.
        -12    1    4    4    0    0 -0.51742315031E+02 -0.45923079530E+02  0.34293052464E+02  0.77215347215E+02  0.00000000000E+00 0.  1.
</event>
<event>
12    1  0.8421768E-002  0.1931256E+03  0.7818608E-02  0.1156093E+00
         21   -1    0    0  501  502  0.00000000000E+00  0.00000000000E+00  0.94103654592E+03  0.94103654592E+03  0.00000000000E+00 0.  1.
         21   -1    0    0  502  503 -0.00000000000E+00 -0.00000000000E+00 -0.63421626029E+02  0.63421626029E+02  0.00000000000E+00 0. -1.
         -6    2    1    2    0  503  0.32556376257E+02 -0.81625319692E+02  0.75022502514E+03  0.77468385839E+03  0.17197349113E+03 0.  0.
        -24    2    3    3    0    0 -0.81875972177E+01  0.13324413830E+02  0.22041923591E+03  0.23487668210E+03  0.79610548818E+02 0.  0.
          6    2    1    2  501    0 -0.32556376257E+02  0.81625319692E+02  0.12738989476E+03  0.22977431357E+03  0.16983945195E+03 0.  0.
         24    2    5    5    0    0 -0.48560075398E+01  0.15520571197E+02  0.12992695647E+03  0.15790168398E+03  0.88246579809E+02 0.  0.
          5    1    5    5  501    0 -0.27700368718E+02  0.66104748496E+02 -0.25370617143E+01  0.71872629581E+02  0.47000000000E+01 0. -1.
        -13    1    6    6    0    0 -0.46456706236E+02  0.76725463799E+01  0.74960437163E+02  0.88522091378E+02  0.00000000000E+00 0.  1.
         14    1    6    6    0    0  0.41600698696E+02  0.78480248169E+01  0.54966519306E+02  0.69379592606E+02  0.00000000000E+00 0. -1.
         -5    1    3    3    0  503  0.40743973475E+02 -0.94949733522E+02  0.52980578923E+03  0.53980717629E+03  0.47000000000E+01 0.  1.
         13    1    4    4    0    0  0.11823657277E+00  0.34882053639E+02  0.20291633590E+03  0.20589271726E+03  0.00000000000E+00 0. -1.
        -14    1    4    4    0    0 -0.83058337905E+01 -0.21557639809E+02  0.17502900012E+02  0.28983964842E+02  0.00000000000E+00 0.  1.
</event>
<event>
12    1  0.8421768E-002  0.2492735E+03  0.7818608E-02  0.1114013E+00
         21   -1    0    0  501  502  0.00000000000E+00  0.00000000000E+00  0.23814253825E+03  0.23814253825E+03  0.00000000000E+00 0. -1.
         21   -1    0    0  502  503 -0.00000000000E+00 -0.00000000000E+00 -0.36802897830E+03  0.36802897830E+03  0.00000000000E+00 0.  1.
         -6    2    1    2    0  503  0.64449270569E+02  0.16950986941E+03 -0.22954158230E+03  0.33771590004E+03  0.16874651650E+03 0.  0.
        -24    2    3    3    0    0 -0.11321618105E+02  0.31778793309E+02 -0.11046537901E+03  0.14045386851E+03  0.79916321723E+02 0.  0.
          6    2    1    2  501    0 -0.64449270569E+02 -0.16950986941E+03  0.99655142248E+02  0.26845561651E+03  0.17102621540E+03 0.  0.
         24    2    5    5    0    0 -0.13400321142E+02 -0.58445746577E+02 -0.16387402042E+02  0.99846018019E+02  0.78135820652E+02 0.  0.
          5    1    5    5  501    0 -0.51048949427E+02 -0.11106412284E+03  0.11604254429E+03  0.16860959849E+03  0.47000000000E+01 0. -1.
        -13    1    6    6    0    0 -0.39456900231E+02 -0.12227347898E+02 -0.21454378608E+02  0.46547238091E+02  0.00000000000E+00 0.  1.
         14    1    6    6    0    0  0.26056579089E+02 -0.46218398679E+02  0.50669765669E+01  0.53298779928E+02  0.00000000000E+00 0. -1.
         -5    1    3    3    0  503  0.75770888674E+02  0.13773107611E+03 -0.11907620329E+03  0.19726203153E+03  0.47000000000E+01 0.  1.
         11    1    4    4    0    0 -0.12571445452E+02 -0.18704430292E+02 -0.43740598229E+01  0.22957119868E+02  0.00000000000E+00 0. -1.
        -12    1    4    4    0    0  0.12498273475E+01  0.50483223600E+02 -0.10609131919E+03  0.11749674864E+03  0.00000000000E+00 0.  1.
</event>
<event>
12    1  0.8421768E-002  0.1744648E+03  0.7818608E-02  0.1173732E+00
         21   -1    0    0  503  502  0.00000000000E+00  0.00000000000E+00  0.42660923411E+03  0.42660923411E+03  0.00000000000E+00 0.  1.
         21   -1    0    0  501  503 -0.00000000000E+00 -0.00000000000E+00 -0.32896637411E+03  0.32896637411E+03  0.00000000000E+00 0.  1.
          6    2    1    2  501    0 -0.22137048259E+02  0.94244692832E+00 -0.28603276934E+03  0.33409612578E+03  0.17121489132E+03 0.  0.
         24    2    3    3    0    0 -0.27625025879E+02 -0.32679154594E+02 -0.68891487365E+02  0.11424855057E+03  0.80471268635E+02 0.  0.
         -6    2    1    2    0  502  0.22137048259E+02 -0.94244692832E+00  0.38367562934E+03  0.42147948244E+03  0.17305209751E+03 0.  0.
        -24    2    5    5    0    0 -0.12001659532E+02  0.60587565868E+02  0.17752415206E+03  0.20359897521E+03  0.78248483510E+02 0.  0.
          5    1    3    3  501    0  0.54879776195E+01  0.33621601523E+02 -0.21714128198E+03  0.21984757521E+03  0.47000000000E+01 0. -1.
        -11    1    4    4    0    0 -0.13425404919E+02  0.43785646315E+01 -0.72998235762E+02  0.74351568577E+02  0.00000000000E+00 0.  1.
         12    1    4    4    0    0 -0.14199620959E+02 -0.37057719226E+02  0.41067483970E+01  0.39896981991E+02  0.00000000000E+00 0. -1.
         -5    1    5    5    0  502  0.34138707791E+02 -0.61530012796E+02  0.20615147728E+03  0.21788050722E+03  0.47000000000E+01 0.  1.
         13    1    6    6    0    0  0.21128496808E+02  0.38246215149E+02  0.36223262819E+02  0.56756595386E+02  0.00000000000E+00 0. -1.
        -14    1    6    6    0    0 -0.33130156341E+02  0.22341350718E+02  0.14130088925E+03  0.14684237982E+03  0.00000000000E+00 0.  1.
</event>
<event>
12    1  0.8421768E-002  0.1968859E+03  0.7818608E-02  0.1152587E+00
         21   -1    0    0  503  502  0.00000000000E+00  0.00000000000E+00  0.47477427047E+03  0.47477427047E+03  0.00000000000E+00 0. -1.
         21   -1    0    0  501  503 -0.00000000000E+00 -0.00000000000E+00 -0.81883005444E+02  0.81883005444E+02  0.00000000000E+00 0.  1.
          6    2    1    2  501    0  0.80085825432E+02 -0.50901461289E+02  0.17290078298E+03  0.26202816043E+03  0.17250906617E+03 0.  0.
         24    2    3    3    0    0  0.12236094558E+03 -0.32728868873E+02  0.12230546927E+03  0.19347595647E+03  0.80193129756E+02 0.  0.
         -6    2    1    2    0  502 -0.80085825432E+02  0.50901461289E+02  0.21999048205E+03  0.29462911548E+03  0.17148120976E+03 0.  0.
        -24    2    5    5    0    0  0.15178899744E+02 -0.11814409257E+01  0.13368056864E+03  0.15585055907E+03  0.78658168878E+02 0.  0.
          5    1    3    3  501    0 -0.42275120145E+02 -0.18172592416E+02  0.50595313712E+02  0.68552203962E+02  0.47000000000E+01 0. -1.
        -11    1    4    4    0    0  0.64019936278E+02  0.19440657668E+02  0.80738486087E+02  0.10485797322E+03  0.00000000000E+00 0.  1.
         12    1    4    4    0    0  0.58341009299E+02 -0.52169526541E+02  0.41566983179E+02  0.88617983255E+02  0.00000000000E+00 0. -1.
         -5    1    5    5    0  502 -0.95264725176E+02  0.52082902215E+02  0.86309913411E+02  0.13877855641E+03  0.47000000000E+01 0.  1.
         13    1    6    6    0    0 -0.24289297509E-01  0.37869762564E+02  0.56303438848E+02  0.67854231502E+02  0.00000000000E+00 0. -1.
        -14    1    6    6    0    0  0.15203189041E+02 -0.39051203490E+02  0.77377129789E+02  0.87996327568E+02  0.00000000000E+00 0.  1.
</event>
<event>
12    1  0.8421768E-002  0.2171483E+03  0.7818608E-02  0.1137017E+00
         21   -1    0    0  503  502  0.00000000000E+00  0.00000000000E+00  0.95359898888E+02  0.95359898888E+02  0.00000000000E+00 0.  1.
         21   -1    0    0  501  503 -0.00000000000E+00 -0.00000000000E+00 -0.70071606812E+03  0.70071606812E+03  0.00000000000E+00 0.  1.
          6    2    1    2  501    0 -0.13315079497E+03  0.49061951436E+01 -0.52713720021E+03  0.57011141801E+03  0.17146485398E+03 0.  0.
         24    2    3    3    0    0 -0.12981057937E+03 -0.12991074850E+02 -0.52955951675E+03  0.55115285976E+03  0.79477282918E+02 0.  0.
         -6    2    1    2    0  502  0.13315079497E+03 -0.49061951436E+01 -0.78218969026E+02  0.22596454900E+03  0.16488955496E+03 0.  0.
        -24    2    5    5    0    0  0.61475408084E+02 -0.58773131100E+02 -0.60232577738E+02  0.13439704305E+03  0.84859265965E+02 0.  0.
          5    1    3    3  501    0 -0.33402156074E+01  0.17897269994E+02  0.24223165423E+01  0.18958558251E+02  0.47000000000E+01 0. -1.
        -13    1    4    4    0    0 -0.90114311055E+02 -0.44258254274E+02 -0.30992676971E+03  0.32578211233E+03  0.00000000000E+00 0.  1.
         14    1    4    4    0    0 -0.39696268311E+02  0.31267179424E+02 -0.21963274703E+03  0.22537074743E+03  0.00000000000E+00 0. -1.
         -5    1    5    5    0  502  0.71675386889E+02  0.53866935956E+02 -0.17986391288E+02  0.91567505954E+02  0.47000000000E+01 0.  1.
         13    1    6    6    0    0 -0.42163434372E+01 -0.51475884685E+02 -0.39834523851E+02  0.65225252368E+02  0.00000000000E+00 0. -1.
        -14    1    6    6    0    0  0.65691751521E+02 -0.72972464149E+01 -0.20398053887E+02  0.69171790678E+02  0.00000000000E+00 0.  1.
</event>
<event>
12    1  0.8421768E-002  0.1761839E+03  0.7818608E-02  0.1172681E+00
         21   -1    0    0  501  502  0.00000000000E+00  0.00000000000E+00  0.38332057782E+03  0.38332057782E+03  0.00000000000E+00 0.  1.
         21   -1    0    0  502  503 -0.00000000000E+00 -0.00000000000E+00 -0.85152974601E+02  0.85152974601E+02  0.00000000000E+00 0.  1.
         -6    2    1    2    0  503  0.16474254292E+02  0.11498208520E+02  0.83975133525E+02  0.19113048747E+03  0.17051519092E+03 0.  0.
        -24    2    3    3    0    0 -0.92175212195E+01 -0.14128772352E+02  0.11676840386E+03  0.14199498038E+03  0.79013476122E+02 0.  0.
          6    2    1    2  501    0 -0.16474254292E+02 -0.11498208520E+02  0.21419246969E+03  0.27734306496E+03  0.17503471585E+03 0.  0.
         24    2    5    5    0    0 -0.22260788820E+02 -0.74397243617E+02  0.11764767296E+03  0.16187549213E+03  0.79575168377E+02 0.  0.
          5    1    5    5  501    0  0.57865345275E+01  0.62899035097E+02  0.96544796735E+02  0.11546757283E+03  0.47000000000E+01 0. -1.
        -11    1    6    6    0    0  0.29847242505E+02 -0.32296586344E+02  0.41684092810E+02  0.60592829345E+02  0.00000000000E+00 0.  1.
         12    1    6    6    0    0 -0.52108031325E+02 -0.42100657273E+02  0.75963580150E+02  0.10128266278E+03  0.00000000000E+00 0. -1.
         -5    1    3    3    0  503  0.25691775512E+02  0.25626980872E+02 -0.32793270330E+02  0.49135507085E+02  0.47000000000E+01 0.  1.
         13    1    4    4    0    0 -0.27389378308E+02 -0.14619679202E+01  0.47860080863E+01  0.27842795616E+02  0.00000000000E+00 0. -1.
        -14    1    4    4    0    0  0.18171857088E+02 -0.12666804432E+02  0.11198239577E+03  0.11415218477E+03  0.00000000000E+00 0.  1.
</event>
<event>
12    1  0.8421768E-002  0.2190629E+03  0.7818608E-02  0.1134621E+00
         21   -1    0    0  503  502  0.00000000000E+00  0.00000000000E+00  0.57663971780E+03  0.57663971780E+03  0.00000000000E+00 0.  1.
         21   -1    0    0  501  503 -0.00000000000E+00 -0.00000000000E+00 -0.11935985599E+03  0.11935985599E+03  0.00000000000E+00 0.  1.
          6    2    1    2  501    0 -0.27490938213E+02  0.13395132143E+03  0.37026254109E+02  0.22216995959E+03  0.17114274525E+03 0.  0.
         24    2    3    3    0    0 -0.56407547742E+02  0.25983982359E+02  0.36235890870E+02  0.11029578345E+03  0.83636961195E+02 0.  0.
         -6    2    1    2    0  502  0.27490938213E+02 -0.13395132143E+03  0.42025360770E+03  0.47382961420E+03  0.17088797593E+03 0.  0.
        -24    2    5    5    0    0 -0.11185930498E+02 -0.53453804088E+02  0.34154819763E+03  0.35469782984E+03  0.78568091355E+02 0.  0.
          5    1    3    3  501    0  0.28916609529E+02  0.10796733907E+03  0.79036323869E+00  0.11187417614E+03  0.47000000000E+01 0. -1.
        -13    1    4    4    0    0 -0.58718119816E+00  0.10786596494E+02 -0.24280640607E+02  0.26575269593E+02  0.00000000000E+00 0.  1.
         14    1    4    4    0    0 -0.55820366544E+02  0.15197385865E+02  0.60516531477E+02  0.83720513855E+02  0.00000000000E+00 0. -1.
         -5    1    5    5    0  502  0.38676868711E+02 -0.80497517340E+02  0.78705410071E+02  0.11913178436E+03  0.47000000000E+01 0.  1.
         11    1    6    6    0    0 -0.22151498881E+02  0.24047492778E+01  0.26843309704E+02  0.34886028689E+02  0.00000000000E+00 0. -1.
        -12    1    6    6    0    0  0.10965568383E+02 -0.55858553366E+02  0.31470488792E+03  0.31981180115E+03  0.00000000000E+00 0.  1.
</event>
<event>
12    1  0.8421768E-002  0.1796185E+03  0.7818608E-02  0.1168294E+00
         21   -1    0    0  503  502  0.00000000000E+00  0.00000000000E+00  0.40130461704E+02  0.40130461704E+02  0.00000000000E+00 0. -1.
         21   -1    0    0  501  503 -0.00000000000E+00 -0.00000000000E+00 -0.91758578314E+03  0.91758578314E+03  0.00000000000E+00 0. -1.
          6    2    1    2  501    0 -0.56766465588E+02  0.22019501585E+02 -0.60835492918E+03  0.63417673600E+03  0.16845510547E+03 0.  0.
         24    2    3    3    0    0 -0.88981657494E+02 -0.10873306873E+02 -0.53324788473E+03  0.54595591326E+03  0.75356409735E+02 0.  0.
         -6    2    1    2    0  502  0.56766465588E+02 -0.22019501585E+02 -0.26910039225E+03  0.32353950884E+03  0.16898373474E+03 0.  0.
        -24    2    5    5    0    0  0.53622587685E+02  0.36018409082E+02 -0.23374311264E+03  0.25534485902E+03  0.79952777422E+02 0.  0.
          5    1    3    3  501    0  0.32215191906E+02  0.32892808458E+02 -0.75107044457E+02  0.88220822739E+02  0.47000000000E+01 0. -1.
        -11    1    4    4    0    0 -0.27270433205E+02  0.20776568282E+02 -0.31724391650E+03  0.31909096645E+03  0.00000000000E+00 0.  1.
         12    1    4    4    0    0 -0.61711224289E+02 -0.31649875154E+02 -0.21600396823E+03  0.22686494681E+03  0.00000000000E+00 0. -1.
         -5    1    5    5    0  502  0.31438779038E+01 -0.58037910667E+02 -0.35357279611E+02  0.68194649822E+02  0.47000000000E+01 0.  1.
         13    1    6    6    0    0  0.96843883171E+01 -0.19694335600E+02 -0.18484629072E+02  0.28693827625E+02  0.00000000000E+00 0. -1.
        -14    1    6    6    0    0  0.43938199367E+02  0.55712744682E+02 -0.21525848357E+03  0.22665103140E+03  0.00000000000E+00 0.  1.
</event>
<event>
12    1  0.8421768E-002  0.1832897E+03  0.7818608E-02  0.1164709E+00
         21   -1    0    0  503  502  0.00000000000E+00  0.00000000000E+00  0.74307511806E+02  0.74307511806E+02  0.00000000000E+00 0.  1.
         21   -1    0    0  501  503 -0.00000000000E+00 -0.00000000000E+00 -0.46636307640E+03  0.46636307640E+03  0.00000000000E+00 0.  1.
          6    2    1    2  501    0 -0.24064596784E+02 -0.58387381618E+02 -0.14798543907E+03  0.23557338363E+03  0.17206666658E+03 0.  0.
         24    2    3    3    0    0  0.43597847284E+02 -0.23797151802E+02 -0.12538356929E+03  0.15615282676E+03  0.78712064736E+02 0.  0.
         -6    2    1    2    0  502  0.24064596784E+02  0.58387381618E+02 -0.24407012553E+03  0.30509720458E+03  0.17183098358E+03 0.  0.
        -24    2    5    5    0    0  0.26887650631E+02  0.54813904885E+02 -0.26474473106E+03  0.28341152536E+03  0.80652403301E+02 0.  0.
          5    1    3    3  501    0 -0.67662444068E+02 -0.34590229816E+02 -0.22601869778E+02  0.79420556869E+02  0.47000000000E+01 0. -1.
        -11    1    4    4    0    0  0.91386405165E+01 -0.49096201610E+02 -0.74587497443E+02  0.89762166517E+02  0.00000000000E+00 0.  1.
         12    1    4    4    0    0  0.34459206767E+02  0.25299049808E+02 -0.50796071850E+02  0.66390660244E+02  0.00000000000E+00 0. -1.
         -5    1    5    5    0  502 -0.28230538471E+01  0.35734767328E+01  0.20674605536E+02  0.21685679216E+02  0.47000000000E+01 0.  1.
         13    1    6    6    0    0  0.10691153125E+02 -0.12566468308E+02 -0.13778962732E+03  0.13877391065E+03  0.00000000000E+00 0. -1.
        -14    1    6    6    0    0  0.16196497506E+02  0.67380373192E+02 -0.12695510375E+03  0.14463761472E+03  0.00000000000E+00 0.  1.
</event>
<event>
12    1  0.8421768E-002  0.1899490E+03  0.7818608E-02  0.1162240E+00
         21   -1    0    0  503  502  0.00000000000E+00  0.00000000000E+00  0.21586747251E+03  0.21586747251E+03  0.00000000000E+00 0. -1.
         21   -1    0    0  501  503 -0.00000000000E+00 -0.00000000000E+00 -0.26914483149E+03  0.26914483149E+03  0.00000000000E+00 0. -1.
          6    2    1    2  501    0 -0.40996348500E+02  0.68535415733E+02 -0.18615280354E+03  0.26595771783E+03  0.17234511193E+03 0.  0.
         24    2    3    3    0    0 -0.23080713201E+02  0.73778639277E+02 -0.20794009731E+03  0.23688474840E+03  0.83061982995E+02 0.  0.
         -6    2    1    2    0  502  0.40996348500E+02 -0.68535415733E+02  0.13287544456E+03  0.21905458617E+03  0.15476183043E+03 0.  0.
        -24    2    5    5    0    0  0.45242343162E+02 -0.10339466322E+03  0.10567232630E+03  0.17438585831E+03  0.80662637165E+02 0.  0.
          5    1    3    3  501    0 -0.17915635299E+02 -0.52432235437E+01  0.21787293774E+02  0.29072969427E+02  0.47000000000E+01 0. -1.
        -13    1    4    4    0    0  0.90000377066E+01 -0.13972079441E+02 -0.14471967345E+02  0.22037638745E+02  0.00000000000E+00 0.  1.
         14    1    4    4    0    0 -0.32080750907E+02  0.87750718718E+02 -0.19346812997E+03  0.21484710966E+03  0.00000000000E+00 0. -1.
         -5    1    5    5    0  502 -0.42459946625E+01  0.34859247489E+02  0.27203118259E+02  0.44668727867E+02  0.47000000000E+01 0.  1.
         11    1    6    6    0    0  0.31112773089E+02 -0.64174273269E+02  0.11143341385E+03  0.13230172985E+03  0.00000000000E+00 0. -1.
        -12    1    6    6    0    0  0.14129570073E+02 -0.39220389953E+02 -0.57610875480E+01  0.42084128460E+02  0.00000000000E+00 0.  1.
</event>
<event>
12    1  0.8421768E-002  0.1957220E+03  0.7818608E-02  0.1154979E+00
         21   -1    0    0  501  502  0.00000000000E+00  0.00000000000E+00  0.33766174494E+03  0.33766174494E+03  0.00000000000E+00 0.  1.
         21   -1    0    0  502  503 -0.00000000000E+00 -0.00000000000E+00 -0.22702105860E+03  0.22702105860E+03  0.00000000000E+00 0.  1.
         -6    2    1    2    0  503 -0.69147296638E+02  0.37424664707E+02 -0.14744032238E+03  0.24504233147E+03  0.17923487771E+03 0.  0.
        -24    2    3    3    0    0  0.24450808955E+02  0.45877331506E+01 -0.89005132607E+02  0.12982240763E+03  0.91175953733E+02 0.  0.
          6    2    1    2  501    0  0.69147296638E+02 -0.37424664707E+02  0.25808100872E+03  0.31964047207E+03  0.17141257294E+03 0.  0.
         24    2    5    5    0    0  0.45518373838E+02 -0.43617711379E+02  0.27387004509E+03  0.29017755488E+03  0.72275754270E+02 0.  0.
          5    1    5    5  501    0  0.23628922799E+02  0.61930466727E+01 -0.15789036370E+02  0.29462917188E+02  0.47000000000E+01 0. -1.
        -13    1    6    6    0    0  0.34699453837E+02  0.12005068515E+02  0.14155139102E+03  0.14623600810E+03  0.00000000000E+00 0.  1.
         14    1    6    6    0    0  0.10818920002E+02 -0.55622779894E+02  0.13231865408E+03  0.14394154678E+03  0.00000000000E+00 0. -1.
         -5    1    3    3    0  503 -0.93598105592E+02  0.32836931556E+02 -0.58435189775E+02  0.11521992384E+03  0.47000000000E+01 0.  1.
         11    1    4    4    0    0  0.56588961807E+02  0.16548139945E+02 -0.66155102593E+02  0.88615174395E+02  0.00000000000E+00 0. -1.
        -12    1    4    4    0    0 -0.32138152852E+02 -0.11960406795E+02 -0.22850030014E+02  0.41207233237E+02  0.00000000000E+00 0.  1.
</event>
<event>
12    1  0.8421768E-002  0.1960230E+03  0.7818608E-02  0.1153795E+00
         21   -1    0    0  503  502  0.00000000000E+00  0.00000000000E+00  0.13953369198E+04  0.13953369198E+04  0.00000000000E+00 0.  1.
         21   -1    0    0  501  503 -0.00000000000E+00 -0.00000000000E+00 -0.27118036750E+02  0.27118036750E+02  0.00000000000E+00 0.  1.
          6    2    1    2  501    0  0.99865593089E+01  0.84232691767E+02  0.69354997224E+03  0.72071949020E+03  0.17672051899E+03 0.  0.
         24    2    3    3    0    0 -0.57960624481E+02  0.82155109462E+02  0.42973149205E+03  0.44824303870E+03  0.78382207683E+02 0.  0.
         -6    2    1    2    0  502 -0.99865593089E+01 -0.84232691767E+02  0.67466891086E+03  0.70173546640E+03  0.17337718360E+03 0.  0.
        -24    2    5    5    0    0  0.61881482158E+02 -0.54220989379E+02  0.35995674173E+03  0.37749549807E+03  0.78515995959E+02 0.  0.
          5    1    3    3  501    0  0.67947183790E+02  0.20775823052E+01  0.26381848019E+03  0.27247645150E+03  0.47000000000E+01 0. -1.
        -13    1    4    4    0    0 -0.40010050251E+02  0.88378586775E+02  0.40801087403E+03  0.41938580334E+03  0.00000000000E+00 0.  1.
         14    1    4    4    0    0 -0.17950574231E+02 -0.62234773133E+01  0.21720618025E+02  0.28857235357E+02  0.00000000000E+00 0. -1.
         -5    1    5    5    0  502 -0.71868041467E+02 -0.30011702388E+02  0.31471216913E+03  0.32423996833E+03  0.47000000000E+01 0.  1.
         11    1    6    6    0    0  0.53956491690E+02  0.68510586298E+00  0.12631442277E+03  0.13735758357E+03  0.00000000000E+00 0. -1.
        -12    1    6    6    0    0  0.79249904683E+01 -0.54906095242E+02  0.23364231896E+03  0.24013791449E+03  0.00000000000E+00 0.  1.
</event>
<event>
12    1  0.8421768E-002  0.2296946E+03  0.7818608E-02  0.1126987E+00
         21   -1    0    0  501  502  0.00000000000E+00  0.00000000000E+00  0.34936079003E+03  0.34936079003E+03  0.00000000000E+00 0.  1.
         21   -1    0    0  502  503 -0.00000000000E+00 -0.00000000000E+00 -0.22747837467E+03  0.22747837467E+03  0.00000000000E+00 0. -1.
         -6    2    1    2    0  503  0.26338935717E+02  0.14927132003E+03 -0.10687531569E+03  0.25266372139E+03  0.17158367197E+03 0.  0.
        -24    2    3    3    0    0  0.34028947066E+02  0.11763996770E+03 -0.14242155733E+03  0.20423538238E+03  0.80193891192E+02 0.  0.
          6    2    1    2  501    0 -0.26338935717E+02 -0.14927132003E+03  0.22875773105E+03  0.32417544330E+03  0.17258027700E+03 0.  0.
         24    2    5    5    0    0 -0.12544405971E+02 -0.17691668733E+03  0.17334864059E+03  0.26056087980E+03  0.79908350712E+02 0.  0.
          5    1    5    5  501    0 -0.13794529746E+02  0.27645367301E+02  0.55409090457E+02  0.63614563501E+02  0.47000000000E+01 0. -1.
        -11    1    6    6    0    0 -0.38321751854E+02 -0.15601919977E+03  0.15155151024E+03  0.22085834287E+03  0.00000000000E+00 0.  1.
         12    1    6    6    0    0  0.25777345884E+02 -0.20897487558E+02  0.21797130354E+02  0.39702536930E+02  0.00000000000E+00 0. -1.
         -5    1    3    3    0  503 -0.76900113487E+01  0.31631352327E+02  0.35546241641E+02  0.48428339011E+02  0.47000000000E+01 0.  1.
         11    1    4    4    0    0  0.10244514716E+02  0.31049555614E+02 -0.99447727620E+02  0.10468464794E+03  0.00000000000E+00 0. -1.
        -12    1    4    4    0    0  0.23784432350E+02  0.86590412085E+02 -0.42973829709E+02  0.99550734438E+02  0.00000000000E+00 0.  1.
</event>
<event>
12    1  0.8421768E-002  0.1868548E+03  0.7818608E-02  0.1161376E+00
         21   -1    0    0  501  502  0.00000000000E+00  0.00000000000E+00  0.75136473041E+03  0.75136473041E+03  0.00000000000E+00 0.  1.
         21   -1    0    0  502  503 -0.00000000000E+00 -0.00000000000E+00 -0.50489944787E+02  0.50489944787E+02  0.00000000000E+00 0.  1.
         -6    2    1    2    0  503 -0.67777822152E+02  0.26476300239E+02  0.46447611786E+03  0.50065237100E+03  0.17210434298E+03 0.  0.
        -24    2    3    3    0    0  0.26005105041E+02 -0.13157221533E+02  0.21440990115E+03  0.23061301049E+03  0.79758240522E+02 0.  0.
          6    2    1    2  501    0  0.67777822152E+02 -0.26476300239E+02  0.23639866777E+03  0.30120230420E+03  0.17188272248E+03 0.  0.
         24    2    5    5    0    0  0.26575356480E+02  0.40620106758E+02  0.73861717693E+02  0.12053708578E+03  0.81959703895E+02 0.  0.
          5    1    5    5  501    0  0.41202465672E+02 -0.67096406998E+02  0.16253695007E+03  0.18066521843E+03  0.47000000000E+01 0. -1.
        -11    1    6    6    0    0  0.77972635381E+01 -0.71661285626E+01  0.68046280192E+02  0.68865426487E+02  0.00000000000E+00 0.  1.
         12    1    6    6    0    0  0.18778092942E+02  0.47786235321E+02  0.58154375007E+01  0.51671659292E+02  0.00000000000E+00 0. -1.
         -5    1    3    3    0  503 -0.93782927193E+02  0.39633521772E+02  0.25006621671E+03  0.27003936050E+03  0.47000000000E+01 0.  1.
         11    1    4    4    0    0 -0.21445784177E+02  0.10587612266E+02  0.11957566097E+03  0.12194407690E+03  0.00000000000E+00 0. -1.
        -12    1    4    4    0    0  0.47450889218E+02 -0.23744833799E+02  0.94834240177E+02  0.10866893360E+03  0.00000000000E+00 0.  1.
</event>
<event>
12    1  0.8421768E-002  0.1734745E+03  0.7818608E-02  0.1175262E+00
         21   -1    0    0  503  502  0.00000000000E+00  0.00000000000E+00  0.17913906252E+03  0.17913906252E+03  0.00000000000E+00 0. -1.
         21   -1    0    0  501  503 -0.00000000000E+00 -0.00000000000E+00 -0.32686448603E+03  0.32686448603E+03  0.00000000000E+00 0. -1.
          6    2    1    2  501    0  0.14298974343E+02 -0.17071001326E+02 -0.25187469206E+03  0.30366602021E+03  0.16815561713E+03 0.  0.
         24    2    3    3    0    0 -0.10786414100E+02  0.50653535013E+02 -0.12232946794E+03  0.15527483237E+03  0.80396812753E+02 0.  0.
         -6    2    1    2    0  502 -0.14298974343E+02  0.17071001326E+02  0.10414926855E+03  0.20233752834E+03  0.17203931378E+03 0.  0.
        -24    2    5    5    0    0 -0.74674379285E+02  0.34302835571E+01  0.78935965990E+02  0.13533708559E+03  0.80605274288E+02 0.  0.
          5    1    3    3  501    0  0.25085388443E+02 -0.67724536340E+02 -0.12954522412E+03  0.14839118784E+03  0.47000000000E+01 0. -1.
        -11    1    4    4    0    0  0.34723227402E+02  0.25138895750E+02 -0.46668691821E+02  0.63369025533E+02  0.00000000000E+00 0.  1.
         12    1    4    4    0    0 -0.45509641502E+02  0.25514639263E+02 -0.75660776122E+02  0.91905806834E+02  0.00000000000E+00 0. -1.
         -5    1    5    5    0  502  0.60375404943E+02  0.13640717769E+02  0.25213302556E+02  0.67000442752E+02  0.47000000000E+01 0.  1.
         11    1    6    6    0    0 -0.32773275377E+02  0.41114713370E+02  0.29024100479E+02  0.60057519455E+02  0.00000000000E+00 0. -1.
        -12    1    6    6    0    0 -0.41901103909E+02 -0.37684429813E+02  0.49911865511E+02  0.75279566138E+02  0.00000000000E+00 0.  1.
</event>
<event>
12    1  0.8421768E-002  0.1799131E+03  0.7818608E-02  0.1168279E+00
         21   -1    0    0  503  502  0.00000000000E+00  0.00000000000E+00  0.17415966836E+03  0.17415966836E+03  0.00000000000E+00 0.  1.
         21   -1    0    0  501  503 -0.00000000000E+00 -0.00000000000E+00 -0.20001237296E+03  0.20001237296E+03  0.00000000000E+00 0.  1.
          6    2    1    2  501    0 -0.16999685916E+02  0.45066160637E+02 -0.65585325073E+02  0.19149451774E+03  0.17334580267E+03 0.  0.
         24    2    3    3    0    0 -0.22156596527E+02  0.94905032609E+02 -0.64921160847E+02  0.14116522209E+03  0.78835162321E+02 0.  0.
         -6    2    1    2    0  502  0.16999685916E+02 -0.45066160637E+02  0.39732620472E+02  0.18267752357E+03  0.17167541564E+03 0.  0.
        -24    2    5    5    0    0 -0.35650514437E+02  0.22630531481E+02  0.75011238797E+01  0.90939608328E+02  0.80191304819E+02 0.  0.
          5    1    3    3  501    0  0.51569106105E+01 -0.49838871972E+02 -0.66416422560E+00  0.50329295649E+02  0.47000000000E+01 0. -1.
        -13    1    4    4    0    0 -0.26940133830E+02  0.16052213991E+02 -0.52562310449E+02  0.61206542661E+02  0.00000000000E+00 0.  1.
         14    1    4    4    0    0  0.47835373031E+01  0.78852818618E+02 -0.12358850398E+02  0.79958679431E+02  0.00000000000E+00 0. -1.
         -5    1    5    5    0  502  0.52650200354E+02 -0.67696692118E+02  0.32231496593E+02  0.91737915245E+02  0.47000000000E+01 0.  1.
         13    1    6    6    0    0 -0.42871902198E+02 -0.12502162769E+02 -0.16692573251E+02  0.47675424211E+02  0.00000000000E+00 0. -1.
        -14    1    6    6    0    0  0.72213877606E+01  0.35132694250E+02  0.24193697131E+02  0.43264184117E+02  0.00000000000E+00 0.  1.
</event>
<event>
12    1  0.8421768E-002  0.2681222E+03  0.7818608E-02  0.1102421E+00
         21   -1    0    0  503  502  0.00000000000E+00  0.00000000000E+00  0.60298259553E+03  0.60298259553E+03  0.00000000000E+00 0.  1.
         21   -1    0    0  501  503 -0.00000000000E+00 -0.00000000000E+00 -0.32414286345E+03  0.32414286345E+03  0.00000000000E+00 0.  1.
          6    2    1    2  501    0 -0.11818722577E+03  0.16837177392E+03 -0.22928953849E+03  0.35279341115E+03  0.17196576374E+03 0.  0.
         24    2    3    3    0    0 -0.15374386310E+03  0.14588325982E+03 -0.19306937586E+03  0.29707987683E+03  0.77856074826E+02 0.  0.
         -6    2    1    2    0  502  0.11818722577E+03 -0.16837177392E+03  0.50812927057E+03  0.57433204784E+03  0.17130286330E+03 0.  0.
        -24    2    5    5    0    0  0.78948995163E+02 -0.18513210848E+03  0.35963411098E+03  0.41975698524E+03  0.79701891128E+02 0.  0.
          5    1    3    3  501    0  0.35556637332E+02  0.22488514099E+02 -0.36220162633E+02  0.55713534315E+02  0.47000000000E+01 0. -1.
        -11    1    4    4    0    0 -0.47264657494E+02  0.80581730438E+02 -0.46019613801E+02  0.10414013627E+03  0.00000000000E+00 0.  1.
         12    1    4    4    0    0 -0.10647920560E+03  0.65301529386E+02 -0.14704976206E+03  0.19293974056E+03  0.00000000000E+00 0. -1.
         -5    1    5    5    0  502  0.39238230605E+02  0.16760334556E+02  0.14849515959E+03  0.15457506260E+03  0.47000000000E+01 0.  1.
         13    1    6    6    0    0  0.20846930835E+02 -0.43098885708E+02  0.30936091524E+02  0.57001317821E+02  0.00000000000E+00 0. -1.
        -14    1    6    6    0    0  0.58102064328E+02 -0.14203322277E+03  0.32869801945E+03  0.36275566742E+03  0.00000000000E+00 0.  1.
</event>
<event>
12    1  0.8421768E-002  0.2028285E+03  0.7818608E-02  0.1148045E+00
         21   -1    0    0  503  502  0.00000000000E+00  0.00000000000E+00  0.81906960882E+02  0.81906960882E+02  0.00000000000E+00 0. -1.
         21   -1    0    0  501  503 -0.00000000000E+00 -0.00000000000E+00 -0.63155368902E+03  0.63155368902E+03  0.00000000000E+00 0. -1.
          6    2    1    2  501    0  0.16665819769E+02  0.10060582898E+03 -0.43937195072E+03  0.48259287243E+03  0.17160678035E+03 0.  0.
         24    2    3    3    0    0 -0.11177160973E+02  0.12373385203E+02 -0.32743849487E+03  0.33729530104E+03  0.79209359247E+02 0.  0.
         -6    2    1    2    0  502 -0.16665819769E+02 -0.10060582898E+03 -0.11027477741E+03  0.23086777747E+03  0.17532861081E+03 0.  0.
        -24    2    5    5    0    0 -0.75705559763E+02 -0.64793503520E+02 -0.99133050988E+02  0.16076469893E+03  0.78028179183E+02 0.  0.
          5    1    3    3  501    0  0.27842980742E+02  0.88232443777E+02 -0.11193345585E+03  0.14529757138E+03  0.47000000000E+01 0. -1.
        -11    1    4    4    0    0 -0.24098390839E+02  0.45067236630E+01 -0.26975072137E+02  0.36451303351E+02  0.00000000000E+00 0.  1.
         12    1    4    4    0    0  0.12921229866E+02  0.78666615397E+01 -0.30046342274E+03  0.30084399769E+03  0.00000000000E+00 0. -1.
         -5    1    5    5    0  502  0.59039739994E+02 -0.35812325460E+02 -0.11141726424E+02  0.70103078542E+02  0.47000000000E+01 0.  1.
         11    1    6    6    0    0  0.35484323930E+01 -0.41267855417E+02 -0.18786285449E+02  0.45481334459E+02  0.00000000000E+00 0. -1.
        -12    1    6    6    0    0 -0.79253992156E+02 -0.23525648103E+02 -0.80346765539E+02  0.11528336447E+03  0.00000000000E+00 0.  1.
</event>
<event>
12    1  0.8421768E-002  0.2174002E+03  0.7818608E-02  0.1138887E+00
         21   -1    0    0  501  502  0.00000000000E+00  0.00000000000E+00  0.19775490197E+03  0.19775490197E+03  0.00000000000E+00 0. -1.
         21   -1    0    0  502  503 -0.00000000000E+00 -0.00000000000E+00 -0.22228641027E+03  0.22228641027E+03  0.00000000000E+00 0.  1.
         -6    2    1    2    0  503 -0.91916706234E+02  0.55230828806E+02 -0.14641788198E+02  0.21789267030E+03  0.18911295162E+03 0.  0.
        -24    2    3    3    0    0 -0.12544003483E+03  0.22654074653E+02  0.30138132634E+02  0.15298974447E+03  0.79051536579E+02 0.  0.
          6    2    1    2  501    0  0.91916706234E+02 -0.55230828806E+02 -0.98897200977E+01  0.20214864194E+03  0.17107642017E+03 0.  0.
         24    2    5    5    0    0  0.59462347479E+01 -0.20000687797E+02  0.45628985924E+02  0.93813506728E+02  0.79269063752E+02 0.  0.
          5    1    5    5  501    0  0.85970471487E+02 -0.35230141009E+02 -0.55518706022E+02  0.10833513521E+03  0.47000000000E+01 0. -1.
        -11    1    6    6    0    0 -0.30488112621E+02 -0.28768497722E+02  0.12361649567E+02  0.43703110328E+02  0.00000000000E+00 0.  1.
         12    1    6    6    0    0  0.36434347368E+02  0.87678099246E+01  0.33267336357E+02  0.50110396400E+02  0.00000000000E+00 0. -1.
         -5    1    3    3    0  503  0.33523328600E+02  0.32576754153E+02 -0.44779920833E+02  0.64902925831E+02  0.47000000000E+01 0.  1.
         13    1    4    4    0    0  0.65484561077E+01  0.28167166674E+01  0.17530812484E+02  0.18924733989E+02  0.00000000000E+00 0. -1.
        -14    1    4    4    0    0 -0.13198849094E+03  0.19837357986E+02  0.12607320150E+02  0.13406501048E+03  0.00000000000E+00 0.  1.
</event>
<event>
12    1  0.8421768E-002  0.2364909E+03  0.7818608E-02  0.1125017E+00
         21   -1    0    0  501  502  0.00000000000E+00  0.00000000000E+00  0.28191427029E+04  0.28191427029E+04  0.00000000000E+00 0.  1.
         21   -1    0    0  502  503 -0.00000000000E+00 -0.00000000000E+00 -0.52533265936E+02  0.52533265936E+02  0.00000000000E+00 0.  1.
         -6    2    1    2    0  503  0.13665450523E+03  0.61025395526E+01  0.21053935245E+03  0.30468897949E+03  0.17261767147E+03 0.  0.
        -24    2    3    3    0    0  0.46655502305E+02 -0.57982205519E+02  0.11436468468E+03  0.15813410308E+03  0.79927726125E+02 0.  0.
          6    2    1    2  501    0 -0.13665450523E+03 -0.61025395526E+01  0.25560700845E+04  0.25669869894E+04  0.19291508941E+03 0.  0.
         24    2    5    5    0    0 -0.40204707821E+02  0.70418834691E+02  0.12733837494E+04  0.12783969038E+04  0.78849475165E+02 0.  0.
          5    1    5    5  501    0 -0.96449797409E+02 -0.76521374244E+02  0.12826863352E+04  0.12885900855E+04  0.47000000000E+01 0. -1.
        -11    1    6    6    0    0 -0.57832382171E+02  0.38171044517E+02  0.10213273260E+04  0.10236753001E+04  0.00000000000E+00 0.  1.
         12    1    6    6    0    0  0.17627674350E+02  0.32247790174E+02  0.25205642334E+03  0.25472160376E+03  0.00000000000E+00 0. -1.
         -5    1    3    3    0  503  0.89999002926E+02  0.64084745071E+02  0.96174667763E+02  0.14655487640E+03  0.47000000000E+01 0.  1.
         11    1    4    4    0    0  0.57555347486E+01 -0.23362527513E+02  0.99723422477E+02  0.10258506160E+03  0.00000000000E+00 0. -1.
        -12    1    4    4    0    0  0.40899967556E+02 -0.34619678005E+02  0.14641262206E+02  0.55549041488E+02  0.00000000000E+00 0.  1.
</event>
<event>
12    1  0.8421768E-002  0.1877551E+03  0.7818608E-02  0.1161328E+00
         21   -1    0    0  503  502  0.00000000000E+00  0.00000000000E+00  0.23873409286E+02  0.23873409286E+02  0.00000000000E+00 0. -1.
         21   -1    0    0  501  503 -0.00000000000E+00 -0.00000000000E+00 -0.18179341103E+04  0.18179341103E+04  0.00000000000E+00 0.  1.
          6    2    1    2  501    0 -0.61089112228E+02  0.25042492138E+02 -0.13051999471E+04  0.13181312553E+04  0.17194213614E+03 0.  0.
         24    2    3    3    0    0 -0.72618294911E+02 -0.20892018579E+02 -0.50671351946E+03  0.51822778207E+03  0.78048383110E+02 0.  0.
         -6    2    1    2    0  502  0.61089112228E+02 -0.25042492138E+02 -0.48886075394E+03  0.52367626433E+03  0.17576400951E+03 0.  0.
        -24    2    5    5    0    0  0.11685951779E+02 -0.80741997624E+02 -0.27070482781E+03  0.29311780043E+03  0.77337633003E+02 0.  0.
          5    1    3    3  501    0  0.11529182683E+02  0.45934510716E+02 -0.79848642764E+03  0.79990347321E+03  0.47000000000E+01 0. -1.
        -11    1    4    4    0    0 -0.11744720913E+02  0.26520377117E+02 -0.19285975070E+03  0.19502859357E+03  0.00000000000E+00 0.  1.
         12    1    4    4    0    0 -0.60873573998E+02 -0.47412395695E+02 -0.31385376876E+03  0.32319918849E+03  0.00000000000E+00 0. -1.
         -5    1    5    5    0  502  0.49403160449E+02  0.55699505486E+02 -0.21815592612E+03  0.23055846390E+03  0.47000000000E+01 0.  1.
         11    1    6    6    0    0 -0.32999507971E+02 -0.28055042207E+02 -0.10192358297E+03  0.11074506618E+03  0.00000000000E+00 0. -1.
        -12    1    6    6    0    0  0.44685459751E+02 -0.52686955417E+02 -0.16878124485E+03  0.18237273425E+03  0.00000000000E+00 0.  1.
</event>
<event>
12    1  0.8421768E-002  0.1770685E+03  0.7818608E-02  0.1171230E+00
         21   -1    0    0  503  502  0.00000000000E+00  0.00000000000E+00  0.48109279683E+03  0.48109279683E+03  0.00000000000E+00 0.  1.
         21   -1    0    0  501  503 -0.00000000000E+00 -0.00000000000E+00 -0.83735938951E+02  0.83735938951E+02  0.00000000000E+00 0.  1.
          6    2    1    2  501    0  0.36579398901E+02  0.11170134231E+02  0.63756133296E+02  0.18819699355E+03  0.17288851763E+03 0.  0.
         24    2    3    3    0    0  0.56243614088E+02 -0.43024936695E+02  0.76622660609E+01  0.10762156918E+03  0.80679628955E+02 0.  0.
         -6    2    1    2    0  502 -0.36579398901E+02 -0.11170134231E+02  0.33360072458E+03  0.37663174223E+03  0.17058488060E+03 0.  0.
        -24    2    5    5    0    0  0.41995306987E+00  0.15700818340E+02  0.66248929513E+02  0.10535684021E+03  0.80401810055E+02 0.  0.
          5    1    3    3  501    0 -0.19664215187E+02  0.54195070926E+02  0.56093867235E+02  0.80575424374E+02  0.47000000000E+01 0. -1.
        -13    1    4    4    0    0  0.48535927927E+02  0.43920881558E+01 -0.19435254410E+02  0.52466711847E+02  0.00000000000E+00 0.  1.
         14    1    4    4    0    0  0.77076861609E+01 -0.47417024851E+02  0.27097520471E+02  0.55154857332E+02  0.00000000000E+00 0. -1.
         -5    1    5    5    0  502 -0.36999351971E+02 -0.26870952571E+02  0.26735179507E+03  0.27127490202E+03  0.47000000000E+01 0.  1.
         13    1    6    6    0    0 -0.36331281393E+02 -0.17324396255E+01  0.49359684421E+02  0.61313471610E+02  0.00000000000E+00 0. -1.
        -14    1    6    6    0    0  0.36751234463E+02  0.17433257966E+02  0.16889245091E+02  0.44043368599E+02  0.00000000000E+00 0.  1.
</event>
<event>
12    1  0.8421768E-002  0.2226313E+03  0.7818608E-02  0.1131950E+00
         21   -1    0    0  501  502  0.00000000000E+00  0.00000000000E+00  0.28285354256E+03  0.28285354256E+03  0.00000000000E+00 0.  1.
         21   -1    0    0  502  503 -0.00000000000E+00 -0.00000000000E+00 -0.25042753361E+03  0.25042753361E+03  0.00000000000E+00 0. -1.
         -6    2    1    2    0  503 -0.10776427618E+03 -0.89370233308E+02 -0.12995571699E+03  0.25772252876E+03  0.17300935128E+03 0.  0.
        -24    2    3    3    0    0 -0.10195307008E+03 -0.10628563528E+03 -0.49272389706E+02  0.17494698744E+03  0.80545733967E+02 0.  0.
          6    2    1    2  501    0  0.10776427618E+03  0.89370233308E+02  0.16238172594E+03  0.27555854741E+03  0.17310260052E+03 0.  0.
         24    2    5    5    0    0  0.20641002133E+02  0.98989993295E+02  0.65798101445E+02  0.14504612967E+03  0.80522790788E+02 0.  0.
          5    1    5    5  501    0  0.87123274049E+02 -0.96197599871E+01  0.96583624496E+02  0.13051241774E+03  0.47000000000E+01 0. -1.
        -13    1    6    6    0    0  0.16411495647E+02  0.44360992251E+02  0.75801273345E+02  0.89348015443E+02  0.00000000000E+00 0.  1.
         14    1    6    6    0    0  0.42295064866E+01  0.54629001044E+02 -0.10003171900E+02  0.55698114225E+02  0.00000000000E+00 0. -1.
         -5    1    3    3    0  503 -0.58112061059E+01  0.16915401974E+02 -0.80683327281E+02  0.82775541324E+02  0.47000000000E+01 0.  1.
         13    1    4    4    0    0 -0.42917251612E+02  0.19708361955E+01 -0.23934113346E+01  0.43029095959E+02  0.00000000000E+00 0. -1.
        -14    1    4    4    0    0 -0.59035818465E+02 -0.10825647148E+03 -0.46878978372E+02  0.13191789148E+03  0.00000000000E+00 0.  1.
</event>
<event>
12    1  0.8421768E-002  0.2217053E+03  0.7818608E-02  0.1132717E+00
         21   -1    0    0  503  502  0.00000000000E+00  0.00000000000E+00  0.11894177194E+04  0.11894177194E+04  0.00000000000E+00 0.  1.
         21   -1    0    0  501  503 -0.00000000000E+00 -0.00000000000E+00 -0.49859718893E+02  0.49859718893E+02  0.00000000000E+00 0. -1.
          6    2    1    2  501    0 -0.58070379627E+02 -0.12344882383E+03  0.31249688939E+03  0.38315472890E+03  0.17476114929E+03 0.  0.
         24    2    3    3    0    0 -0.14029364875E+02 -0.39390296273E+02  0.51982896895E+02  0.10585511238E+03  0.82186767353E+02 0.  0.
         -6    2    1    2    0  502  0.58070379627E+02  0.12344882383E+03  0.82706111109E+03  0.85612270937E+03  0.17408110446E+03 0.  0.
        -24    2    5    5    0    0 -0.39239235412E+02  0.62417618670E+02  0.43133586284E+03  0.44403712204E+03  0.75383436265E+02 0.  0.
          5    1    3    3  501    0 -0.44041014751E+02 -0.84058527553E+02  0.26051399250E+03  0.27729961652E+03  0.47000000000E+01 0. -1.
        -11    1    4    4    0    0 -0.32587655705E+02 -0.16260601125E+02  0.64177562517E+02  0.73791069811E+02  0.00000000000E+00 0.  1.
         12    1    4    4    0    0  0.18558290830E+02 -0.23129695148E+02 -0.12194665621E+02  0.32064042568E+02  0.00000000000E+00 0. -1.
         -5    1    5    5    0  502  0.97309615039E+02  0.61031205156E+02  0.39572524825E+03  0.41208558733E+03  0.47000000000E+01 0.  1.
         11    1    6    6    0    0 -0.31272062815E+02  0.13077097934E+02  0.56529465658E+02  0.65913070712E+02  0.00000000000E+00 0. -1.
        -12    1    6    6    0    0 -0.79671725970E+01  0.49340520736E+02  0.37480639718E+03  0.37812405133E+03  0.00000000000E+00 0.  1.
</event>
<event>
12    1  0.8421768E-002  0.2066942E+03  0.7818608E-02  0.1144704E+00
         21   -1    0    0  503  502  0.00000000000E+00  0.00000000000E+00  0.11689747411E+04  0.11689747411E+04  0.00000000000E+00 0. -1.
         21   -1    0    0  501  503 -0.00000000000E+00 -0.00000000000E+00 -0.11533053423E+03  0.11533053423E+03  0.00000000000E+00 0. -1.
          6    2    1    2  501    0  0.31599425857E+02 -0.10969141459E+03 -0.63309067333E+01  0.20436559059E+03  0.16939446298E+03 0.  0.
         24    2    3    3    0    0 -0.11423641650E+02 -0.12797340072E+03 -0.23354627211E+02  0.15439447480E+03  0.82368224201E+02 0.  0.
         -6    2    1    2    0  502 -0.31599425857E+02  0.10969141459E+03  0.10599751136E+04  0.10799396847E+04  0.17231294513E+03 0.  0.
        -24    2    5    5    0    0  0.43511480428E+02  0.80808575202E+02  0.44698842467E+03  0.46167547143E+03  0.70159207305E+02 0.  0.
          5    1    3    3  501    0  0.43023067507E+02  0.18281986124E+02  0.17023720477E+02  0.49971115789E+02  0.47000000000E+01 0. -1.
        -13    1    4    4    0    0 -0.16003860882E+02 -0.81119412793E+02  0.25522455466E+02  0.86532528150E+02  0.00000000000E+00 0.  1.
         14    1    4    4    0    0  0.45802192324E+01 -0.46853987923E+02 -0.48877082677E+02  0.67861946653E+02  0.00000000000E+00 0. -1.
         -5    1    5    5    0  502 -0.75110906285E+02  0.28882839390E+02  0.61298668889E+03  0.61826421327E+03  0.47000000000E+01 0.  1.
         11    1    6    6    0    0  0.68811053835E+01  0.77199694556E+02  0.27022371035E+03  0.28111918484E+03  0.00000000000E+00 0. -1.
        -12    1    6    6    0    0  0.36630375045E+02  0.36088806461E+01  0.17676471432E+03  0.18055628658E+03  0.00000000000E+00 0.  1.
</event>
<event>
12    1  0.8421768E-002  0.1706795E+03  0.7818608E-02  0.1177304E+00
         21   -1    0    0  503  502  0.00000000000E+00  0.00000000000E+00  0.28181379237E+03  0.28181379237E+03  0.00000000000E+00 0. -1.
         21   -1    0    0  501  503 -0.00000000000E+00 -0.00000000000E+00 -0.13955384109E+03  0.13955384109E+03  0.00000000000E+00 0. -1.
          6    2    1    2  501    0 -0.18119372926E+02  0.14780063133E+02 -0.36803945436E+02  0.17399064758E+03  0.16843827684E+03 0.  0.
         24    2    3    3    0    0  0.21333791083E+02  0.51485283055E+02 -0.60650375516E+02  0.11487578019E+03  0.80075663031E+02 0.  0.
         -6    2    1    2    0  502  0.18119372926E+02 -0.14780063133E+02  0.17906389672E+03  0.24737698588E+03  0.16907019870E+03 0.  0.
        -24    2    5    5    0    0  0.49642740422E+02 -0.56818939912E+02  0.15254894069E+03  0.18833358868E+03  0.80657099559E+02 0.  0.
          5    1    3    3  501    0 -0.39453164009E+02 -0.36705219922E+02  0.23846430080E+02  0.59114867397E+02  0.47000000000E+01 0. -1.
        -13    1    4    4    0    0 -0.50772152797E+01 -0.43039796590E+01 -0.52144292586E+02  0.52567381570E+02  0.00000000000E+00 0.  1.
         14    1    4    4    0    0  0.26411006363E+02  0.55789262714E+02 -0.85060829307E+01  0.62308398616E+02  0.00000000000E+00 0. -1.
         -5    1    5    5    0  502 -0.31523367496E+02  0.42038876778E+02  0.26514956030E+02  0.59043397196E+02  0.47000000000E+01 0.  1.
         13    1    6    6    0    0  0.41036989960E+02 -0.76598155527E+02  0.13488647223E+03  0.16045458039E+03  0.00000000000E+00 0. -1.
        -14    1    6    6    0    0  0.86057504623E+01  0.19779215616E+02  0.17662468458E+02  0.27879008293E+02  0.00000000000E+00 0.  1.
</event>
<event>
12    1  0.8421768E-002  0.2891217E+03  0.7818608E-02  0.1090987E+00
         21   -1    0    0  503  502  0.00000000000E+00  0.00000000000E+00  0.15437109537E+04  0.15437109537E+04  0.00000000000E+00 0.  1.
         21   -1    0    0  501  503 -0.00000000000E+00 -0.00000000000E+00 -0.14877134176E+03  0.14877134176E+03  0.00000000000E+00 0.  1.
          6    2    1    2  501    0  0.69048374653E+02 -0.22064950518E+03  0.22273907227E+02  0.28997843386E+03  0.17360150627E+03 0.  0.
         24    2    3    3    0    0 -0.27266413952E+02 -0.94169865528E+02  0.31291911749E+02  0.13067666941E+03  0.80534385722E+02 0.  0.
         -6    2    1    2    0  502 -0.69048374653E+02  0.22064950518E+03  0.13726657047E+04  0.14025038616E+04  0.17132443717E+03 0.  0.
        -24    2    5    5    0    0 -0.81551991314E+02  0.90698613602E+02  0.96137399269E+03  0.97096413340E+03  0.60451871165E+02 0.  0.
          5    1    3    3  501    0  0.96314788606E+02 -0.12647963965E+03 -0.90180045225E+01  0.15930176445E+03  0.47000000000E+01 0. -1.
        -11    1    4    4    0    0 -0.10763462021E+00 -0.59900510437E+02 -0.20115625427E+02  0.63187982419E+02  0.00000000000E+00 0.  1.
         12    1    4    4    0    0 -0.27158779332E+02 -0.34269355091E+02  0.51407537177E+02  0.67488686991E+02  0.00000000000E+00 0. -1.
         -5    1    5    5    0  502  0.12503616661E+02  0.12995089158E+03  0.41129171205E+03  0.43153972824E+03  0.47000000000E+01 0.  1.
         13    1    6    6    0    0 -0.45619404219E+02  0.12150408404E+02  0.25551127286E+03  0.25983605028E+03  0.00000000000E+00 0. -1.
        -14    1    6    6    0    0 -0.35932587095E+02  0.78548205199E+02  0.70586271982E+03  0.71112808311E+03  0.00000000000E+00 0.  1.
</event>
<event>
12    1  0.8421768E-002  0.1800338E+03  0.7818608E-02  0.1168083E+00
         21   -1    0    0  503  502  0.00000000000E+00  0.00000000000E+00  0.14656662913E+03  0.14656662913E+03  0.00000000000E+00 0. -1.
         21   -1    0    0  501  503 -0.00000000000E+00 -0.00000000000E+00 -0.27908175794E+03  0.27908175794E+03  0.00000000000E+00 0. -1.
          6    2    1    2  501    0  0.50704820082E+02 -0.88242095470E+01 -0.16472674527E+03  0.24402266483E+03  0.17252047673E+03 0.  0.
         24    2    3    3    0    0  0.46082160406E+02  0.61491129026E+02 -0.10864702650E+03  0.15384151005E+03  0.77190086084E+02 0.  0.
         -6    2    1    2    0  502 -0.50704820082E+02  0.88242095470E+01  0.32211616459E+02  0.18162572224E+03  0.17117671947E+03 0.  0.
        -24    2    5    5    0    0 -0.64645787241E+02  0.11470398675E+02 -0.37261725374E+02  0.11056245389E+03  0.80777299900E+02 0.  0.
          5    1    3    3  501    0  0.46226596769E+01 -0.70315338573E+02 -0.56079718770E+02  0.90181154786E+02  0.47000000000E+01 0. -1.
        -11    1    4    4    0    0 -0.14458234456E+02  0.42092344411E+02 -0.54268721386E+02  0.70184757052E+02  0.00000000000E+00 0.  1.
         12    1    4    4    0    0  0.60540394862E+02  0.19398784615E+02 -0.54378305115E+02  0.83656752996E+02  0.00000000000E+00 0. -1.
         -5    1    5    5    0  502  0.13940967159E+02 -0.26461891278E+01  0.69473341833E+02  0.71063268344E+02  0.47000000000E+01 0.  1.
         11    1    6    6    0    0 -0.81987728375E+02  0.17397615807E+02 -0.21844447406E+02  0.86613189078E+02  0.00000000000E+00 0. -1.
        -12    1    6    6    0    0  0.17341941133E+02 -0.59272171321E+01 -0.15417277968E+02  0.23949264814E+02  0.00000000000E+00 0.  1.
</event>
<event>
12    1  0.8421768E-002  0.2481423E+03  0.7818608E-02  0.1114585E+00
         21   -1    0    0  503  502  0.00000000000E+00  0.00000000000E+00  0.43811259217E+03  0.43811259217E+03  0.00000000000E+00 0.  1.
         21   -1    0    0  501  503 -0.00000000000E+00 -0.00000000000E+00 -0.14754824162E+03  0.14754824162E+03  0.00000000000E+00 0. -1.
          6    2    1    2  501    0 -0.50237738724E+02  0.17165326057E+03  0.79702268378E+02  0.26002693616E+03  0.17109320176E+03 0.  0.
         24    2    3    3    0    0  0.35230384141E+02  0.90408880606E+02  0.18757076476E+02  0.12720428856E+03  0.80088435181E+02 0.  0.
         -6    2    1    2    0  502  0.50237738724E+02 -0.17165326057E+03  0.21086208217E+03  0.32563389763E+03  0.17200565493E+03 0.  0.
        -24    2    5    5    0    0  0.66012515525E+02 -0.61835281066E+02  0.50983076236E+02  0.13097466012E+03  0.79836290881E+02 0.  0.
          5    1    3    3  501    0 -0.85468122866E+02  0.81244379964E+02  0.60945191902E+02  0.13282264761E+03  0.47000000000E+01 0. -1.
        -13    1    4    4    0    0 -0.14456134713E+01  0.61301177790E+02  0.42596562050E+02  0.74661846315E+02  0.00000000000E+00 0.  1.
         14    1    4    4    0    0  0.36675997612E+02  0.29107702816E+02 -0.23839485574E+02  0.52542442240E+02  0.00000000000E+00 0. -1.
         -5    1    5    5    0  502 -0.15774776800E+02 -0.10981797950E+03  0.15987900594E+03  0.19465923750E+03  0.47000000000E+01 0.  1.
         13    1    6    6    0    0  0.59034033231E+02 -0.75050794597E+02  0.21435729831E+02  0.97862808884E+02  0.00000000000E+00 0. -1.
        -14    1    6    6    0    0  0.69784822933E+01  0.13215513531E+02  0.29547346405E+02  0.33111851241E+02  0.00000000000E+00 0.  1.
</event>
<event>
12    1  0.8421768E-002  0.1952801E+03  0.7818608E-02  0.1153847E+00
         21   -1    0    0  503  502  0.00000000000E+00  0.00000000000E+00  0.36579259340E+03  0.36579259340E+03  0.00000000000E+00 0.  1.
         21   -1    0    0  501  503 -0.00000000000E+00 -0.00000000000E+00 -0.11980900749E+03  0.11980900749E+03  0.00000000000E+00 0.  1.
          6    2    1    2  501    0 -0.72888824609E+01 -0.90381618149E+02  0.34977474314E+02  0.19809874631E+03  0.17262017516E+03 0.  0.
         24    2    3    3    0    0  0.22275801158E+02 -0.12329065217E+03  0.35440699618E+02  0.15360852698E+03  0.81503006943E+02 0.  0.
         -6    2    1    2    0  502  0.72888824609E+01  0.90381618149E+02  0.21100611160E+03  0.28750285459E+03  0.17295186486E+03 0.  0.
        -24    2    5    5    0    0  0.26234857243E+02 -0.15255019375E+02  0.60372992246E+02  0.10248805574E+03  0.77057900476E+02 0.  0.
          5    1    3    3  501    0 -0.29564683619E+02  0.32909034026E+02 -0.46322530359E+00  0.44490219326E+02  0.47000000000E+01 0. -1.
        -13    1    4    4    0    0 -0.35376667789E+01 -0.10052497174E+03  0.54356738284E+02  0.11433477173E+03  0.00000000000E+00 0.  1.
         14    1    4    4    0    0  0.25813467937E+02 -0.22765680432E+02 -0.18916038667E+02  0.39273755248E+02  0.00000000000E+00 0. -1.
         -5    1    5    5    0  502 -0.18945974782E+02  0.10563663752E+03  0.15063311935E+03  0.18501479885E+03  0.47000000000E+01 0.  1.
         11    1    6    6    0    0 -0.10141624622E+02 -0.31969205365E+01 -0.14733162979E+02  0.18169725982E+02  0.00000000000E+00 0. -1.
        -12    1    6    6    0    0  0.36376481864E+02 -0.12058098838E+02  0.75106155225E+02  0.84318329758E+02  0.00000000000E+00 0.  1.
</event>
<event>
12    1  0.8421768E-002  0.1735335E+03  0.7818608E-02  0.1174252E+00
         21   -1    0    0  503  502  0.00000000000E+00  0.00000000000E+00  0.11229819024E+03  0.11229819024E+03  0.00000000000E+00 0.  1.
         21   -1    0    0  501  503 -0.00000000000E+00 -0.00000000000E+00 -0.29212773190E+03  0.29212773190E+03  0.00000000000E+00 0.  1.
          6    2    1    2  501    0 -0.23041750969E+02 -0.16652694474E+01 -0.14816156332E+03  0.22817915863E+03  0.17198890713E+03 0.  0.
         24    2    3    3    0    0  0.42297269444E+02 -0.38061695489E+02 -0.94300008521E+02  0.13589132356E+03  0.79600304929E+02 0.  0.
         -6    2    1    2    0  502  0.23041750969E+02  0.16652694474E+01 -0.31667978338E+02  0.17624676351E+03  0.17183237584E+03 0.  0.
        -24    2    5    5    0    0  0.10960960447E+02  0.44125568850E+02 -0.72520235788E+02  0.11591584719E+03  0.78167068202E+02 0.  0.
          5    1    3    3  501    0 -0.65339020413E+02  0.36396426041E+02 -0.53861554797E+02  0.92287835072E+02  0.47000000000E+01 0. -1.
        -11    1    4    4    0    0  0.77084740990E+01 -0.43527657584E+02 -0.90435008156E+02  0.10066065889E+03  0.00000000000E+00 0.  1.
         12    1    4    4    0    0  0.34588795345E+02  0.54659620955E+01 -0.38650003643E+01  0.35230664667E+02  0.00000000000E+00 0. -1.
         -5    1    5    5    0  502  0.12080790521E+02 -0.42460299403E+02  0.40852257450E+02  0.60330916318E+02  0.47000000000E+01 0.  1.
         13    1    6    6    0    0 -0.23096864714E+02  0.23546912520E+02 -0.68366861734E+02  0.75907509722E+02  0.00000000000E+00 0. -1.
        -14    1    6    6    0    0  0.34057825162E+02  0.20578656330E+02 -0.41533740540E+01  0.40008337470E+02  0.00000000000E+00 0.  1.
</event>
<event>
12    1  0.8421768E-002  0.2150465E+03  0.7818608E-02  0.1137844E+00
         21   -1    0    0  503  502  0.00000000000E+00  0.00000000000E+00  0.10035723051E+04  0.10035723051E+04  0.00000000000E+00 0. -1.
         21   -1    0    0  501  503 -0.00000000000E+00 -0.00000000000E+00 -0.72773125919E+02  0.72773125919E+02  0.00000000000E+00 0.  1.
          6    2    1    2  501    0  0.12757870468E+03 -0.87222250193E+01  0.13877804148E+03  0.25593815830E+03  0.17289474538E+03 0.  0.
         24    2    3    3    0    0  0.11307060750E+03 -0.10964003186E+02  0.49071193497E+02  0.16491662773E+03  0.10901532196E+03 0.  0.
         -6    2    1    2    0  502 -0.12757870468E+03  0.87222250193E+01  0.79202113771E+03  0.82040727272E+03  0.17151736782E+03 0.  0.
        -24    2    5    5    0    0 -0.96922385376E+02 -0.86087144546E+01  0.76623022860E+03  0.77650474012E+03  0.79892361716E+02 0.  0.
          5    1    3    3  501    0  0.14508097176E+02  0.22417781665E+01  0.89706847983E+02  0.91021530574E+02  0.47000000000E+01 0. -1.
        -13    1    4    4    0    0  0.10174025447E+03  0.31643901944E+02  0.55869056699E+02  0.12030697156E+03  0.00000000000E+00 0.  1.
         14    1    4    4    0    0  0.11330353040E+02 -0.42607905130E+02 -0.67978632021E+01  0.44609656171E+02  0.00000000000E+00 0. -1.
         -5    1    5    5    0  502 -0.30656319305E+02  0.17330939474E+02  0.25790909112E+02  0.43902532605E+02  0.47000000000E+01 0.  1.
         11    1    6    6    0    0 -0.30490633359E+02 -0.37001059071E+02  0.19909974534E+03  0.20479127347E+03  0.00000000000E+00 0. -1.
        -12    1    6    6    0    0 -0.66431752017E+02  0.28392344617E+02  0.56713048326E+03  0.57171346665E+03  0.00000000000E+00 0.  1.
</event>
<event>
12    1  0.8421768E-002  0.1934294E+03  0.7818608E-02  0.1155903E+00
         21   -1    0    0  501  502  0.00000000000E+00  0.00000000000E+00  0.20055233297E+03  0.20055233297E+03  0.00000000000E+00 0. -1.
         21   -1    0    0  502  503 -0.00000000000E+00 -0.00000000000E+00 -0.37285821319E+03  0.37285821319E+03  0.00000000000E+00 0. -1.
         -6    2    1    2    0  503 -0.32333103311E+02  0.80736908449E+02 -0.28973530742E+03  0.34712620927E+03  0.17025327850E+03 0.  0.
        -24    2    3    3    0    0  0.15372077817E+02  0.10080168736E+03 -0.25000426860E+03  0.28171195161E+03  0.80387862336E+02 0.  0.
          6    2    1    2  501    0  0.32333103311E+02 -0.80736908449E+02  0.11742942720E+03  0.22628433688E+03  0.17277457218E+03 0.  0.
         24    2    5    5    0    0  0.61030509427E+02 -0.63741595559E+02  0.14145420437E+03  0.18491210349E+03  0.79971744989E+02 0.  0.
          5    1    5    5  501    0 -0.28697406116E+02 -0.16995312890E+02 -0.24024777172E+02  0.41372233396E+02  0.47000000000E+01 0. -1.
        -13    1    6    6    0    0  0.37432090201E+02  0.10406383243E+02  0.65615956681E+02  0.76255543800E+02  0.00000000000E+00 0.  1.
         14    1    6    6    0    0  0.23598419226E+02 -0.74147978802E+02  0.75838247689E+02  0.10865655969E+03  0.00000000000E+00 0. -1.
         -5    1    3    3    0  503 -0.47705181129E+02 -0.20064778916E+02 -0.39731038823E+02  0.65414257662E+02  0.47000000000E+01 0.  1.
         11    1    4    4    0    0 -0.25017125755E+02  0.18707103338E+02 -0.29440276774E+02  0.42924843539E+02  0.00000000000E+00 0. -1.
        -12    1    4    4    0    0  0.40389203572E+02  0.82094584027E+02 -0.22056399182E+03  0.23878710807E+03  0.00000000000E+00 0.  1.
</event>
<event>
12    1  0.8421768E-002  0.2019543E+03  0.7818608E-02  0.1148340E+00
         21   -1    0    0  501  502  0.00000000000E+00  0.00000000000E+00  0.15140529439E+04  0.15140529439E+04  0.00000000000E+00 0.  1.
         21   -1    0    0  502  503 -0.00000000000E+00 -0.00000000000E+00 -0.37718861627E+02  0.37718861627E+02  0.00000000000E+00 0.  1.
         -6    2    1    2    0  503 -0.77005534118E+02 -0.73428622987E+02  0.31894058579E+03  0.37689085512E+03  0.17029974882E+03 0.  0.
        -24    2    3    3    0    0 -0.62672559814E+02 -0.99547021513E+02  0.31528364706E+03  0.34650881939E+03  0.82626415667E+02 0.  0.
          6    2    1    2  501    0  0.77005534118E+02  0.73428622987E+02  0.11573934964E+04  0.11748809504E+04  0.17165059562E+03 0.  0.
         24    2    5    5    0    0  0.74824536219E+02  0.56256216383E+02  0.11480647733E+04  0.11546630529E+04  0.80190829234E+02 0.  0.
          5    1    5    5  501    0  0.21809978989E+01  0.17172406604E+02  0.93287231648E+01  0.20217897425E+02  0.47000000000E+01 0. -1.
        -11    1    6    6    0    0  0.52595844917E+02  0.55388785273E+02  0.10868642096E+04  0.10895448823E+04  0.00000000000E+00 0.  1.
         12    1    6    6    0    0  0.22228691302E+02  0.86743111035E+00  0.61200563681E+02  0.65118170648E+02  0.00000000000E+00 0. -1.
         -5    1    3    3    0  503 -0.14332974304E+02  0.26118398526E+02  0.36569387281E+01  0.30382035725E+02  0.47000000000E+01 0.  1.
         11    1    4    4    0    0 -0.29902282406E+02 -0.85715441700E+02  0.28714838286E+03  0.30115689801E+03  0.00000000000E+00 0. -1.
        -12    1    4    4    0    0 -0.32770277408E+02 -0.13831579813E+02  0.28135264203E+02  0.45351921385E+02  0.00000000000E+00 0.  1.
</event>
<event>
12    1  0.8421768E-002  0.1803947E+03  0.7818608E-02  0.1167721E+00
         21   -1    0    0  501  502  0.00000000000E+00  0.00000000000E+00  0.23045817613E+03  0.23045817613E+03  0.00000000000E+00 0. -1.
         21   -1    0    0  502  503 -0.00000000000E+00 -0.00000000000E+00 -0.14024293661E+03  0.14024293661E+03  0.00000000000E+00 0. -1.
         -6    2    1    2    0  503 -0.43990217516E+01 -0.46018212988E+02  0.45931118778E+02  0.18495036659E+03  0.17308940785E+03 0.  0.
        -24    2    3    3    0    0 -0.22240393507E+02 -0.41722634491E+02 -0.36689729609E+02  0.10018562670E+03  0.80346812044E+02 0.  0.
          6    2    1    2  501    0  0.43990217516E+01  0.46018212988E+02  0.44284120751E+02  0.18575074615E+03  0.17437095236E+03 0.  0.
         24    2    5    5    0    0 -0.62330612049E+00  0.81972243292E+01  0.93158105194E+02  0.12357030457E+03  0.80768834398E+02 0.  0.
          5    1    5    5  501    0  0.50223278721E+01  0.37820988659E+02 -0.48873984443E+02  0.62180441585E+02  0.47000000000E+01 0. -1.
        -11    1    6    6    0    0  0.21200464504E+02 -0.29928569203E+02  0.35108623111E+02  0.50771984071E+02  0.00000000000E+00 0.  1.
         12    1    6    6    0    0 -0.21823770625E+02  0.38125793532E+02  0.58049482082E+02  0.72798320494E+02  0.00000000000E+00 0. -1.
         -5    1    3    3    0  503  0.17841371756E+02 -0.42955784973E+01  0.82620848387E+02  0.84764739892E+02  0.47000000000E+01 0.  1.
         11    1    4    4    0    0  0.18612108323E+02  0.93359013284E+01  0.65072822763E+01  0.21815461317E+02  0.00000000000E+00 0. -1.
        -12    1    4    4    0    0 -0.40852501831E+02 -0.51058535819E+02 -0.43197011885E+02  0.78370165380E+02  0.00000000000E+00 0.  1.
</event>
<event>
12    1  0.8421768E-002  0.1899560E+03  0.7818608E-02  0.1159821E+00
         21   -1    0    0  501  502  0.00000000000E+00  0.00000000000E+00  0.10250946800E+03  0.10250946800E+03  0.00000000000E+00 0. -1.
         21   -1    0    0  502  503 -0.00000000000E+00 -0.00000000000E+00 -0.36843235056E+03  0.36843235056E+03  0.00000000000E+00 0. -1.
         -6    2    1    2    0  503 -0.66006139869E+02 -0.43364019824E+02 -0.19861419296E+03  0.27482881931E+03  0.17276004620E+03 0.  0.
        -24    2    3    3    0    0  0.76402880452E+01 -0.65236240059E+02 -0.81292380634E+02  0.13451243392E+03  0.84681773190E+02 0.  0.
          6    2    1    2  501    0  0.66006139869E+02  0.43364019824E+02 -0.67308689604E+02  0.19611299925E+03  0.16641093733E+03 0.  0.
         24    2    5    5    0    0  0.44654575276E+02  0.48587698453E+02  0.20186191718E+02  0.10577684709E+03  0.80165226316E+02 0.  0.
          5    1    5    5  501    0  0.21351564593E+02 -0.52236786292E+01 -0.87494881323E+02  0.90336152158E+02  0.47000000000E+01 0. -1.
        -13    1    6    6    0    0 -0.32149223852E+01  0.49745293984E+02  0.28130853992E+02  0.57238753881E+02  0.00000000000E+00 0.  1.
         14    1    6    6    0    0  0.47869497662E+02 -0.11575955311E+01 -0.79446622738E+01  0.48538093210E+02  0.00000000000E+00 0. -1.
         -5    1    3    3    0  503 -0.73646427914E+02  0.21872220235E+02 -0.11732181233E+03  0.14031638539E+03  0.47000000000E+01 0.  1.
         13    1    4    4    0    0 -0.37225147923E+02 -0.20844582480E+02 -0.22392676054E+02  0.48183401681E+02  0.00000000000E+00 0. -1.
        -14    1    4    4    0    0  0.44865435968E+02 -0.44391657580E+02 -0.58899704580E+02  0.86329032236E+02  0.00000000000E+00 0.  1.
</event>
<event>
12    1  0.8421768E-002  0.3470609E+03  0.7818608E-02  0.1064422E+00
         21   -1    0    0  503  502  0.00000000000E+00  0.00000000000E+00  0.47953879871E+03  0.47953879871E+03  0.00000000000E+00 0.  1.
         21   -1    0    0  501  503 -0.00000000000E+00 -0.00000000000E+00 -0.54644453964E+03  0.54644453964E+03  0.00000000000E+00 0.  1.
          6    2    1    2  501    0  0.29209514319E+03 -0.38757960041E+02 -0.41326468659E+03  0.53966562850E+03  0.18338357960E+03 0.  0.
         24    2    3    3    0    0  0.30204495789E+03 -0.18667749935E+02 -0.41071020571E+03  0.51661718545E+03  0.81429735034E+02 0.  0.
         -6    2    1    2    0  502 -0.29209514319E+03  0.38757960041E+02  0.34635894566E+03  0.48631770984E+03  0.17239096128E+03 0.  0.
        -24    2    5    5    0    0 -0.17197258933E+03  0.82985509423E+01  0.29810770064E+03  0.35324826860E+03  0.79200382924E+02 0.  0.
          5    1    3    3  501    0 -0.99498147034E+01 -0.20090210105E+02 -0.25544808716E+01  0.23048443055E+02  0.47000000000E+01 0. -1.
        -11    1    4    4    0    0  0.17160189624E+03 -0.32570746832E+02 -0.17739462231E+03  0.24895163460E+03  0.00000000000E+00 0.  1.
         12    1    4    4    0    0  0.13044306165E+03  0.13902996897E+02 -0.23331558340E+03  0.26766555085E+03  0.00000000000E+00 0. -1.
         -5    1    5    5    0  502 -0.12012255386E+03  0.30459409098E+02  0.48251245011E+02  0.13306944124E+03  0.47000000000E+01 0.  1.
         13    1    6    6    0    0 -0.11355611568E+03 -0.22441937799E+02  0.13832896649E+03  0.18037054901E+03  0.00000000000E+00 0. -1.
        -14    1    6    6    0    0 -0.58416473656E+02  0.30740488742E+02  0.15977873416E+03  0.17287771959E+03  0.00000000000E+00 0.  1.
</event>
<event>
12    1  0.8421768E-002  0.1931054E+03  0.7818608E-02  0.1156531E+00
         21   -1    0    0  503  502  0.00000000000E+00  0.00000000000E+00  0.37830697307E+02  0.37830697307E+02  0.00000000000E+00 0. -1.
         21   -1    0    0  501  503 -0.00000000000E+00 -0.00000000000E+00 -0.10855857290E+04  0.10855857290E+04  0.00000000000E+00 0.  1.
          6    2    1    2  501    0  0.19838944766E+02 -0.77255318704E+02 -0.71445960204E+03  0.74009609031E+03  0.17586282140E+03 0.  0.
         24    2    3    3    0    0 -0.54165376687E+02 -0.35412788072E+02 -0.28178133856E+03  0.29911989293E+03  0.76707457262E+02 0.  0.
         -6    2    1    2    0  502 -0.19838944766E+02  0.77255318704E+02 -0.33329542970E+03  0.38332033604E+03  0.17171682668E+03 0.  0.
        -24    2    5    5    0    0  0.20707355173E+02  0.39631033539E+02 -0.31019158394E+03  0.32319158284E+03  0.78959274897E+02 0.  0.
          5    1    3    3  501    0  0.74004321453E+02 -0.41842530632E+02 -0.43267826348E+03  0.44097619738E+03  0.47000000000E+01 0. -1.
        -11    1    4    4    0    0  0.66271939436E+01 -0.18358858038E+02 -0.16684505933E+03  0.16798285981E+03  0.00000000000E+00 0.  1.
         12    1    4    4    0    0 -0.60792570631E+02 -0.17053930034E+02 -0.11493627923E+03  0.13113703312E+03  0.00000000000E+00 0. -1.
         -5    1    5    5    0  502 -0.40546299939E+02  0.37624285165E+02 -0.23103845759E+02  0.60128753203E+02  0.47000000000E+01 0.  1.
         13    1    6    6    0    0  0.45239957690E+02  0.16148586867E+01 -0.14369209608E+03  0.15065417358E+03  0.00000000000E+00 0. -1.
        -14    1    6    6    0    0 -0.24532602517E+02  0.38016174853E+02 -0.16649948786E+03  0.17253740926E+03  0.00000000000E+00 0.  1.
</event>
<event>
12    1  0.8421768E-002  0.1852960E+03  0.7818608E-02  0.1162890E+00
         21   -1    0    0  503  502  0.00000000000E+00  0.00000000000E+00  0.47329583826E+03  0.47329583826E+03  0.00000000000E+00 0.  1.
         21   -1    0    0  501  503 -0.00000000000E+00 -0.00000000000E+00 -0.79462816999E+02  0.79462816999E+02  0.00000000000E+00 0. -1.
          6    2    1    2  501    0  0.33722656524E+02  0.54426229199E+02  0.27936919853E+03  0.33495928468E+03  0.17335265015E+03 0.  0.
         24    2    3    3    0    0  0.74378585825E+01  0.98338401483E+02  0.22322807665E+03  0.25884696607E+03  0.86285657505E+02 0.  0.
         -6    2    1    2    0  502 -0.33722656524E+02 -0.54426229199E+02  0.11446382272E+03  0.21779937058E+03  0.17388262456E+03 0.  0.
        -24    2    5    5    0    0 -0.54746202489E+02 -0.26149926680E+01  0.90722617931E+01  0.98401444168E+02  0.81219168961E+02 0.  0.
          5    1    3    3  501    0  0.26284797942E+02 -0.43912172284E+02  0.56141121880E+02  0.76112318606E+02  0.47000000000E+01 0. -1.
        -11    1    4    4    0    0 -0.74929613100E+01  0.62397965493E+02  0.20760649913E+03  0.21691037100E+03  0.00000000000E+00 0.  1.
         12    1    4    4    0    0  0.14930819892E+02  0.35940435991E+02  0.15621577526E+02  0.41936595072E+02  0.00000000000E+00 0. -1.
         -5    1    5    5    0  502  0.21023545965E+02 -0.51811236531E+02  0.10539156093E+03  0.11939792641E+03  0.47000000000E+01 0.  1.
         13    1    6    6    0    0 -0.14064166599E+02 -0.33536325224E+02 -0.17996321704E+02  0.40575281718E+02  0.00000000000E+00 0. -1.
        -14    1    6    6    0    0 -0.40682035890E+02  0.30921332556E+02  0.27068583497E+02  0.57826162450E+02  0.00000000000E+00 0.  1.
</event>
<event>
12    1  0.8421768E-002  0.2306981E+03  0.7818608E-02  0.1126561E+00
         21   -1    0    0  503  502  0.00000000000E+00  0.00000000000E+00  0.15874706421E+03  0.15874706421E+03  0.00000000000E+00 0. -1.
         21   -1    0    0  501  503 -0.00000000000E+00 -0.00000000000E+00 -0.42022688584E+03  0.42022688584E+03  0.00000000000E+00 0.  1.
          6    2    1    2  501    0  0.69811607984E+02  0.13254998565E+03 -0.26399938642E+03  0.35059560319E+03  0.17543785693E+03 0.  0.
         24    2    3    3    0    0  0.56264242935E+02  0.13327866694E+03 -0.28255907895E+03  0.32713043191E+03  0.79030489627E+02 0.  0.
         -6    2    1    2    0  502 -0.69811607984E+02 -0.13254998565E+03  0.25195647937E+01  0.22837834686E+03  0.17235765664E+03 0.  0.
        -24    2    5    5    0    0 -0.13719661299E+01 -0.15433205121E+02 -0.36123329536E+02  0.87255392879E+02  0.77900850691E+02 0.  0.
          5    1    3    3  501    0  0.13547365049E+02 -0.72868129205E+00  0.18559692535E+02  0.23465171280E+02  0.47000000000E+01 0. -1.
        -11    1    4    4    0    0  0.44810681188E+02  0.13162902617E+03 -0.19895218075E+03  0.24272652905E+03  0.00000000000E+00 0.  1.
         12    1    4    4    0    0  0.11453561747E+02  0.16496407660E+01 -0.83606898199E+02  0.84403902859E+02  0.00000000000E+00 0. -1.
         -5    1    5    5    0  502 -0.68439641854E+02 -0.11711678053E+03  0.38642894330E+02  0.14112295398E+03  0.47000000000E+01 0.  1.
         13    1    6    6    0    0  0.37467388068E+02 -0.15487851306E+02 -0.19917545936E+02  0.45170646916E+02  0.00000000000E+00 0. -1.
        -14    1    6    6    0    0 -0.38839354197E+02  0.54646184745E-01 -0.16205783600E+02  0.42084745963E+02  0.00000000000E+00 0.  1.
</event>
<event>
12    1  0.8421768E-002  0.1840157E+03  0.7818608E-02  0.1165123E+00
         21   -1    0    0  503  502  0.00000000000E+00  0.00000000000E+00  0.21234817913E+04  0.21234817913E+04  0.00000000000E+00 0. -1.
         21   -1    0    0  501  503 -0.00000000000E+00 -0.00000000000E+00 -0.38224011503E+02  0.38224011503E+02  0.00000000000E+00 0. -1.
          6    2    1    2  501    0 -0.42463011475E+02  0.26449152693E+02  0.20421972985E+03  0.27168836050E+03  0.17206452903E+03 0.  0.
         24    2    3    3    0    0 -0.58432689990E+01  0.63796620584E+02  0.63481660084E+02  0.12147140680E+03  0.81370934081E+02 0.  0.
         -6    2    1    2    0  502  0.42463011475E+02 -0.26449152693E+02  0.18810380499E+04  0.18900174423E+04  0.17708506948E+03 0.  0.
        -24    2    5    5    0    0 -0.28764584789E+01  0.33410110243E+02  0.14360981153E+04  0.14387609361E+04  0.80812902204E+02 0.  0.
          5    1    3    3  501    0 -0.36619742476E+02 -0.37347467891E+02  0.14073806977E+03  0.15021695370E+03  0.47000000000E+01 0. -1.
        -13    1    4    4    0    0  0.36815145580E+02  0.41156478571E+02  0.31985261569E+02  0.63814321512E+02  0.00000000000E+00 0.  1.
         14    1    4    4    0    0 -0.42658414579E+02  0.22640142013E+02  0.31496398515E+02  0.57657085291E+02  0.00000000000E+00 0. -1.
         -5    1    5    5    0  502  0.45339469954E+02 -0.59859262935E+02  0.44493993469E+03  0.45125650618E+03  0.47000000000E+01 0.  1.
         11    1    6    6    0    0 -0.37421831360E+02 -0.15939762024E+01  0.72239420131E+03  0.72336458049E+03  0.00000000000E+00 0. -1.
        -12    1    6    6    0    0  0.34545372881E+02  0.35004086445E+02  0.71370391395E+03  0.71539635562E+03  0.00000000000E+00 0.  1.
</event>
<event>
12    1  0.8421768E-002  0.1953636E+03  0.7818608E-02  0.1155740E+00
         21   -1    0    0  501  502  0.00000000000E+00  0.00000000000E+00  0.35751550469E+03  0.35751550469E+03  0.00000000000E+00 0. -1.
         21   -1    0    0  502  503 -0.00000000000E+00 -0.00000000000E+00 -0.13044895973E+04  0.13044895973E+04  0.00000000000E+00 0. -1.
         -6    2    1    2    0  503 -0.73576380593E+02  0.48338148883E+01 -0.12722552262E+04  0.12871675474E+04  0.18091457925E+03 0.  0.
        -24    2    3    3    0    0 -0.85616444465E+02  0.22792737700E+02 -0.12505702475E+04  0.12561866768E+04  0.78926158066E+02 0.  0.
          6    2    1    2  501    0  0.73576380593E+02 -0.48338148883E+01  0.32528113362E+03  0.37483755453E+03  0.17105124043E+03 0.  0.
         24    2    5    5    0    0  0.11358648410E+03 -0.33217044745E+02  0.24566800345E+03  0.28120659483E+03  0.68695848668E+02 0.  0.
          5    1    5    5  501    0 -0.40010103509E+02  0.28383229856E+02  0.79613130166E+02  0.93630959702E+02  0.47000000000E+01 0. -1.
        -13    1    6    6    0    0 -0.25939966167E+01 -0.18960938034E+02  0.25810950880E+02  0.32131778271E+02  0.00000000000E+00 0.  1.
         14    1    6    6    0    0  0.11618048072E+03 -0.14256106711E+02  0.21985705257E+03  0.24907481656E+03  0.00000000000E+00 0. -1.
         -5    1    3    3    0  503  0.12040063872E+02 -0.17958922811E+02 -0.21684978686E+02  0.30980870666E+02  0.47000000000E+01 0.  1.
         11    1    4    4    0    0 -0.19233674974E+01  0.10503135607E+02 -0.60544984369E+03  0.60554399380E+03  0.00000000000E+00 0. -1.
        -12    1    4    4    0    0 -0.83693076967E+02  0.12289602093E+02 -0.64512040382E+03  0.65064268295E+03  0.00000000000E+00 0.  1.
</event>
<event>
12    1  0.8421768E-002  0.1907145E+03  0.7818608E-02  0.1157845E+00
         21   -1    0    0  503  502  0.00000000000E+00  0.00000000000E+00  0.16921058112E+04  0.16921058112E+04  0.00000000000E+00 0. -1.
         21   -1    0    0  501  503 -0.00000000000E+00 -0.00000000000E+00 -0.34384118535E+02  0.34384118535E+02  0.00000000000E+00 0. -1.
          6    2    1    2  501    0 -0.76669482199E+02  0.33150144584E+02  0.30022367072E+03  0.35567718800E+03  0.17144931616E+03 0.  0.
         24    2    3    3    0    0 -0.10192992791E+03  0.41193523236E+02  0.29926990664E+03  0.32873677739E+03  0.80117259224E+02 0.  0.
         -6    2    1    2    0  502  0.76669482199E+02 -0.33150144584E+02  0.13574980219E+04  0.13708127417E+04  0.17131710874E+03 0.  0.
        -24    2    5    5    0    0  0.32498910932E+02  0.21292808157E+02  0.11098875099E+04  0.11134256206E+04  0.79729323450E+02 0.  0.
          5    1    3    3  501    0  0.25260445714E+02 -0.80433786525E+01  0.95376408028E+00  0.26940410608E+02  0.47000000000E+01 0. -1.
        -11    1    4    4    0    0 -0.19749005027E-01 -0.16181792640E+01  0.10658422695E+03  0.10659651180E+03  0.00000000000E+00 0.  1.
         12    1    4    4    0    0 -0.10191017891E+03  0.42811702500E+02  0.19268567969E+03  0.22214026559E+03  0.00000000000E+00 0. -1.
         -5    1    5    5    0  502  0.44170571267E+02 -0.54442952741E+02  0.24761051204E+03  0.25738712116E+03  0.47000000000E+01 0.  1.
         11    1    6    6    0    0  0.51490965583E+02  0.12523468267E+02  0.43527612504E+03  0.43848997916E+03  0.00000000000E+00 0. -1.
        -12    1    6    6    0    0 -0.18992054651E+02  0.87693398901E+01  0.67461138485E+03  0.67493564140E+03  0.00000000000E+00 0.  1.
</event>
<event>
12    1  0.8421768E-002  0.1847320E+03  0.7818608E-02  0.1163347E+00
         21   -1    0    0  503  502  0.00000000000E+00  0.00000000000E+00  0.94798299452E+02  0.94798299452E+02  0.00000000000E+00 0.  1.
         21   -1    0    0  501  503 -0.00000000000E+00 -0.00000000000E+00 -0.43365244722E+03  0.43365244722E+03  0.00000000000E+00 0.  1.
          6    2    1    2  501    0  0.31410571435E+02  0.67508624659E+02 -0.27854216350E+03  0.33412254995E+03  0.16884342787E+03 0.  0.
         24    2    3    3    0    0  0.10902532540E+02 -0.24353152368E+02 -0.93296589124E+02  0.12628324047E+03  0.80816223840E+02 0.  0.
         -6    2    1    2    0  502 -0.31410571435E+02 -0.67508624659E+02 -0.60311984264E+02  0.19432819672E+03  0.16906174669E+03 0.  0.
        -24    2    5    5    0    0 -0.35155477721E+02 -0.10989253845E+03 -0.34931697568E+02  0.14456204935E+03  0.79785242960E+02 0.  0.
          5    1    3    3  501    0  0.20508038895E+02  0.91861777027E+02 -0.18524557438E+03  0.20783930948E+03  0.47000000000E+01 0. -1.
        -13    1    4    4    0    0  0.35714638316E+02  0.93402735744E+01 -0.68036267724E+02  0.77406135585E+02  0.00000000000E+00 0.  1.
         14    1    4    4    0    0 -0.24812105776E+02 -0.33693425943E+02 -0.25260321400E+02  0.48877104886E+02  0.00000000000E+00 0. -1.
         -5    1    5    5    0  502  0.37449062859E+01  0.42383913795E+02 -0.25380286696E+02  0.49766147374E+02  0.47000000000E+01 0.  1.
         11    1    6    6    0    0 -0.46765683037E+02 -0.35389488256E+02 -0.36619906644E+02  0.69140889143E+02  0.00000000000E+00 0. -1.
        -12    1    6    6    0    0  0.11610205316E+02 -0.74503050198E+02  0.16882090761E+01  0.75421160202E+02  0.00000000000E+00 0.  1.
</event>
<event>
12    1  0.8421768E-002  0.2196346E+03  0.7818608E-02  0.1134215E+00
         21   -1    0    0  501  502  0.00000000000E+00  0.00000000000E+00  0.16058776864E+03  0.16058776864E+03  0.00000000000E+00 0.  1.
         21   -1    0    0  502  503 -0.00000000000E+00 -0.00000000000E+00 -0.35671802312E+03  0.35671802312E+03  0.00000000000E+00 0.  1.
         -6    2    1    2    0  503 -0.77213571547E+02 -0.11259377798E+03 -0.20118187849E+03  0.29761306743E+03  0.17163943370E+03 0.  0.
        -24    2    3    3    0    0 -0.78577174383E+02 -0.10163857476E+03 -0.22506696624E+03  0.27088362099E+03  0.78854452087E+02 0.  0.
          6    2    1    2  501    0  0.77213571547E+02  0.11259377798E+03  0.50516240073E+01  0.21969272432E+03  0.17204673709E+03 0.  0.
         24    2    5    5    0    0  0.11321844600E+03  0.11801733789E+03  0.15424520419E+02  0.18154232502E+03  0.77286424337E+02 0.  0.
          5    1    5    5  501    0 -0.36004874457E+02 -0.54235599081E+01 -0.10372896412E+02  0.38150399300E+02  0.47000000000E+01 0. -1.
        -13    1    6    6    0    0  0.36044639444E+02  0.43227111392E+02 -0.31249490330E+02  0.64376469598E+02  0.00000000000E+00 0.  1.
         14    1    6    6    0    0  0.77173806560E+02  0.74790226495E+02  0.46674010749E+02  0.11716585542E+03  0.00000000000E+00 0. -1.
         -5    1    3    3    0  503  0.13636028364E+01 -0.10955203218E+02  0.23885087751E+02  0.26729446442E+02  0.47000000000E+01 0.  1.
         11    1    4    4    0    0  0.15732539144E+02 -0.74599383685E+01 -0.28241799473E+02  0.33177744134E+02  0.00000000000E+00 0. -1.
        -12    1    4    4    0    0 -0.94309713527E+02 -0.94178636393E+02 -0.19682516677E+03  0.23770587685E+03  0.00000000000E+00 0.  1.
</event>
<event>
12    1  0.8421768E-002  0.2289550E+03  0.7818608E-02  0.1127818E+00
         21   -1    0    0  503  502  0.00000000000E+00  0.00000000000E+00  0.67247328315E+03  0.67247328315E+03  0.00000000000E+00 0.  1.
         21   -1    0    0  501  503 -0.00000000000E+00 -0.00000000000E+00 -0.21975268945E+03  0.21975268945E+03  0.00000000000E+00 0. -1.
          6    2    1    2  501    0 -0.10090452688E+03 -0.11248493955E+03 -0.13262461833E+03  0.26459343002E+03  0.17200525762E+03 0.  0.
         24    2    3    3    0    0 -0.39001404163E+02  0.66306440158E+01 -0.28649303430E+02  0.94730323486E+02  0.81166351612E+02 0.  0.
         -6    2    1    2    0  502  0.10090452688E+03  0.11248493955E+03  0.58534521204E+03  0.62763254257E+03  0.16869797294E+03 0.  0.
        -24    2    5    5    0    0  0.67180030017E+02  0.46804176470E+02  0.50736370802E+03  0.52014063917E+03  0.80153383822E+02 0.  0.
          5    1    3    3  501    0 -0.61903122721E+02 -0.11911558357E+03 -0.10397531490E+03  0.16986310653E+03  0.47000000000E+01 0. -1.
        -11    1    4    4    0    0  0.38891810207E+01 -0.59503272370E+01  0.24368996930E+02  0.25384643677E+02  0.00000000000E+00 0.  1.
         12    1    4    4    0    0 -0.42890585184E+02  0.12580971253E+02 -0.53018300360E+02  0.69345679809E+02  0.00000000000E+00 0. -1.
         -5    1    5    5    0  502  0.33724496868E+02  0.65680763082E+02  0.77981504019E+02  0.10749190340E+03  0.47000000000E+01 0.  1.
         11    1    6    6    0    0  0.52915678324E+02  0.47125750881E+02  0.19540414570E+03  0.20785496281E+03  0.00000000000E+00 0. -1.
        -12    1    6    6    0    0  0.14264351693E+02 -0.32157441078E+00  0.31195956232E+03  0.31228567636E+03  0.00000000000E+00 0.  1.
</event>
<event>
12    1  0.8421768E-002  0.1887954E+03  0.7818608E-02  0.1159589E+00
         21   -1    0    0  503  502  0.00000000000E+00  0.00000000000E+00  0.20541356971E+03  0.20541356971E+03  0.00000000000E+00 0. -1.
         21   -1    0    0  501  503 -0.00000000000E+00 -0.00000000000E+00 -0.18074072721E+03  0.18074072721E+03  0.00000000000E+00 0. -1.
          6    2    1    2  501    0 -0.20954204820E+02  0.73216815266E+02 -0.26638940112E+02  0.19066548644E+03  0.17275391125E+03 0.  0.
         24    2    3    3    0    0  0.19893197103E+02  0.62903308441E+02  0.40968523568E+02  0.11086737987E+03  0.79123893306E+02 0.  0.
         -6    2    1    2    0  502  0.20954204820E+02 -0.73216815266E+02  0.51311782615E+02  0.19548881048E+03  0.17257808450E+03 0.  0.
        -24    2    5    5    0    0  0.63442854945E+02 -0.56723634675E+02 -0.11953718387E+02  0.11737399746E+03  0.79944964339E+02 0.  0.
          5    1    3    3  501    0 -0.40847401922E+02  0.10313506825E+02 -0.67607463680E+02  0.79798106570E+02  0.47000000000E+01 0. -1.
        -11    1    4    4    0    0  0.32852015838E+02  0.29178775064E+02 -0.13089796861E+02  0.45847558721E+02  0.00000000000E+00 0.  1.
         12    1    4    4    0    0 -0.12958818735E+02  0.33724533377E+02  0.54058320429E+02  0.65019821148E+02  0.00000000000E+00 0. -1.
         -5    1    5    5    0  502 -0.42488650126E+02 -0.16493180591E+02  0.63265501002E+02  0.78114813016E+02  0.47000000000E+01 0.  1.
         13    1    6    6    0    0  0.53116356628E+02 -0.77231457468E+02 -0.79952020523E+01  0.94074271828E+02  0.00000000000E+00 0. -1.
        -14    1    6    6    0    0  0.10326498317E+02  0.20507822793E+02 -0.39585163348E+01  0.23299725637E+02  0.00000000000E+00 0.  1.
</event>
<event>
12    1  0.8421768E-002  0.1766757E+03  0.7818608E-02  0.1171103E+00
         21   -1    0    0  503  502  0.00000000000E+00  0.00000000000E+00  0.16125495341E+03  0.16125495341E+03  0.00000000000E+00 0. -1.
         21   -1    0    0  501  503 -0.00000000000E+00 -0.00000000000E+00 -0.30465756882E+03  0.30465756882E+03  0.00000000000E+00 0. -1.
          6    2    1    2  501    0  0.41479432714E+02  0.50391498366E+01 -0.21251497168E+03  0.27636376176E+03  0.17166356415E+03 0.  0.
         24    2    3    3    0    0  0.44528545114E+01 -0.60487568261E+02 -0.13474977541E+03  0.16803909223E+03  0.80006629208E+02 0.  0.
         -6    2    1    2    0  502 -0.41479432714E+02 -0.50391498366E+01  0.69112356270E+02  0.18954876047E+03  0.17148258931E+03 0.  0.
        -24    2    5    5    0    0 -0.61605756189E+02  0.11709233033E+02  0.10431278273E+03  0.14542691499E+03  0.79595575444E+02 0.  0.
          5    1    3    3  501    0  0.37026578202E+02  0.65526718098E+02 -0.77765196269E+02  0.10832466953E+03  0.47000000000E+01 0. -1.
        -11    1    4    4    0    0 -0.19051748986E+02  0.11437394678E+02 -0.16605398873E+02  0.27740266909E+02  0.00000000000E+00 0.  1.
         12    1    4    4    0    0  0.23504603498E+02 -0.71924962939E+02 -0.11814437654E+03  0.14029882532E+03  0.00000000000E+00 0. -1.
         -5    1    5    5    0  502  0.20126323475E+02 -0.16748382870E+02 -0.35200426456E+02  0.44121845474E+02  0.47000000000E+01 0.  1.
         11    1    6    6    0    0 -0.30213913750E+02  0.39039789021E+02  0.23825716101E+02  0.54814691997E+02  0.00000000000E+00 0. -1.
        -12    1    6    6    0    0 -0.31391842439E+02 -0.27330555988E+02  0.80487066625E+02  0.90612222995E+02  0.00000000000E+00 0.  1.
</event>
<event>
12    1  0.8421768E-002  0.2773032E+03  0.7818608E-02  0.1097371E+00
         21   -1    0    0  501  502  0.00000000000E+00  0.00000000000E+00  0.34217303496E+03  0.34217303496E+03  0.00000000000E+00 0. -1.
         21   -1    0    0  502  503 -0.00000000000E+00 -0.00000000000E+00 -0.65628097178E+03  0.65628097178E+03  0.00000000000E+00 0. -1.
         -6    2    1    2    0  503  0.19786948189E+03  0.85654266121E+02 -0.56228793049E+03  0.62631105216E+03  0.17207217124E+03 0.  0.
        -24    2    3    3    0    0  0.11190382469E+03 -0.20409114489E+02 -0.30531617160E+03  0.33528509148E+03  0.79114663570E+02 0.  0.
          6    2    1    2  501    0 -0.19786948189E+03 -0.85654266121E+02  0.24817999367E+03  0.37214295458E+03  0.17437913929E+03 0.  0.
         24    2    5    5    0    0 -0.23285087259E+02 -0.53281488014E+02  0.79791779701E+02  0.12738922486E+03  0.80499529490E+02 0.  0.
          5    1    5    5  501    0 -0.17458439463E+03 -0.32372778107E+02  0.16838821397E+03  0.24475372972E+03  0.47000000000E+01 0. -1.
        -13    1    6    6    0    0 -0.33316021905E+02 -0.65306404748E+01  0.71101500620E+02  0.78791052607E+02  0.00000000000E+00 0.  1.
         14    1    6    6    0    0  0.10030934645E+02 -0.46750847539E+02  0.86902790812E+01  0.48598172249E+02  0.00000000000E+00 0. -1.
         -5    1    3    3    0  503  0.85965657200E+02  0.10606338061E+03 -0.25697175889E+03  0.29102596068E+03  0.47000000000E+01 0.  1.
         13    1    4    4    0    0  0.94059998751E+02  0.16042421422E+02 -0.18253239449E+03  0.20596775886E+03  0.00000000000E+00 0. -1.
        -14    1    4    4    0    0  0.17843825935E+02 -0.36451535912E+02 -0.12278377711E+03  0.12931733262E+03  0.00000000000E+00 0.  1.
</event>
<event>
12    1  0.8421768E-002  0.1883645E+03  0.7818608E-02  0.1160064E+00
         21   -1    0    0  503  502  0.00000000000E+00  0.00000000000E+00  0.92638135868E+02  0.92638135868E+02  0.00000000000E+00 0.  1.
         21   -1    0    0  501  503 -0.00000000000E+00 -0.00000000000E+00 -0.78727473044E+03  0.78727473044E+03  0.00000000000E+00 0.  1.
          6    2    1    2  501    0 -0.61950412121E+02 -0.42859624974E+02 -0.66276613631E+03  0.68887126466E+03  0.17207517782E+03 0.  0.
         24    2    3    3    0    0 -0.67205977399E+02 -0.81776509983E+02 -0.36240962595E+03  0.38592198141E+03  0.79943716285E+02 0.  0.
         -6    2    1    2    0  502  0.61950412121E+02  0.42859624974E+02 -0.31870458270E+02  0.19104160165E+03  0.17264520392E+03 0.  0.
        -24    2    5    5    0    0  0.99652887082E+02  0.10913379381E+02  0.61798653499E+01  0.12849596749E+03  0.80145013392E+02 0.  0.
          5    1    3    3  501    0  0.52555652775E+01  0.38916885008E+02 -0.30035651036E+03  0.30294928325E+03  0.47000000000E+01 0. -1.
        -13    1    4    4    0    0 -0.77952101987E+02 -0.60653275930E+02 -0.33699917858E+03  0.35117488015E+03  0.00000000000E+00 0.  1.
         14    1    4    4    0    0  0.10746124588E+02 -0.21123234052E+02 -0.25410447364E+02  0.34747101256E+02  0.00000000000E+00 0. -1.
         -5    1    5    5    0  502 -0.37702474961E+02  0.31946245594E+02 -0.38050323620E+02  0.62545634166E+02  0.47000000000E+01 0.  1.
         11    1    6    6    0    0  0.26005592733E+02  0.19508388270E+02 -0.31549459153E+02  0.45301616297E+02  0.00000000000E+00 0. -1.
        -12    1    6    6    0    0  0.73647294349E+02 -0.85950088889E+01  0.37729324503E+02  0.83194351191E+02  0.00000000000E+00 0.  1.
</event>
<event>
12    1  0.8421768E-002  0.2024277E+03  0.7818608E-02  0.1147820E+00
         21   -1    0    0  501  502  0.00000000000E+00  0.00000000000E+00  0.72421607997E+03  0.72421607997E+03  0.00000000000E+00 0.  1.
         21   -1    0    0  502  503 -0.00000000000E+00 -0.00000000000E+00 -0.98099137334E+02  0.98099137334E+02  0.00000000000E+00 0.  1.
         -6    2    1    2    0  503 -0.93035158635E+02 -0.50240044967E+02  0.45330088833E+02  0.20744100725E+03  0.17261909418E+03 0.  0.
        -24    2    3    3    0    0  0.19020145373E+02 -0.30672099973E+02  0.20135942709E+01  0.85630891377E+02  0.77627645522E+02 0.  0.
          6    2    1    2  501    0  0.93035158635E+02  0.50240044967E+02  0.58078685380E+03  0.61487421005E+03  0.17198058547E+03 0.  0.
         24    2    5    5    0    0  0.53976779599E+02  0.42052411550E+02  0.56003389854E+03  0.56964844896E+03  0.78609731221E+02 0.  0.
          5    1    5    5  501    0  0.39058379036E+02  0.81876334164E+01  0.20752955263E+02  0.45225761089E+02  0.47000000000E+01 0. -1.
        -13    1    6    6    0    0  0.58118781750E+02  0.55996285270E+02  0.35317890140E+03  0.36228264263E+03  0.00000000000E+00 0.  1.
         14    1    6    6    0    0 -0.41420021506E+01 -0.13943873720E+02  0.20685499714E+03  0.20736580633E+03  0.00000000000E+00 0. -1.
         -5    1    3    3    0  503 -0.11205530401E+03 -0.19567944993E+02  0.43316494562E+02  0.12181011587E+03  0.47000000000E+01 0.  1.
         13    1    4    4    0    0 -0.19994621327E+02 -0.75057355531E+01  0.26528876015E+02  0.34057337107E+02  0.00000000000E+00 0. -1.
        -14    1    4    4    0    0  0.39014766700E+02 -0.23166364420E+02 -0.24515281744E+02  0.51573554270E+02  0.00000000000E+00 0.  1.
</event>
<event>
12    1  0.8421768E-002  0.1842727E+03  0.7818608E-02  0.1163742E+00
         21   -1    0    0  501  502  0.00000000000E+00  0.00000000000E+00  0.91592637065E+03  0.91592637065E+03  0.00000000000E+00 0. -1.
         21   -1    0    0  502  503 -0.00000000000E+00 -0.00000000000E+00 -0.37487946300E+02  0.37487946300E+02  0.00000000000E+00 0.  1.
         -6    2    1    2    0  503  0.23029874456E+02 -0.62274996192E+02  0.48986492705E+03  0.52336107828E+03  0.17184475914E+03 0.  0.
        -24    2    3    3    0    0 -0.30194817368E+01 -0.10444707904E+03  0.30775036482E+03  0.33456262144E+03  0.79394905570E+02 0.  0.
          6    2    1    2  501    0 -0.23029874456E+02  0.62274996192E+02  0.38857349730E+03  0.43005323867E+03  0.17189495343E+03 0.  0.
         24    2    5    5    0    0 -0.34864053003E+02  0.10670056936E+03  0.29980970927E+03  0.32997936896E+03  0.80000052940E+02 0.  0.
          5    1    5    5  501    0  0.11834178547E+02 -0.44425573167E+02  0.88763788032E+02  0.10007386971E+03  0.47000000000E+01 0. -1.
        -11    1    6    6    0    0  0.23413592655E+01  0.96533844667E+01 -0.25495454590E+01  0.10255241436E+02  0.00000000000E+00 0.  1.
         12    1    6    6    0    0 -0.37205412269E+02  0.97047184892E+02  0.30235925473E+03  0.31972412752E+03  0.00000000000E+00 0. -1.
         -5    1    3    3    0  503  0.26049356193E+02  0.42172082847E+02  0.18211456223E+03  0.18879845684E+03  0.47000000000E+01 0.  1.
         13    1    4    4    0    0  0.20788738851E+02 -0.10253187934E+03  0.21981541385E+03  0.24344152093E+03  0.00000000000E+00 0. -1.
        -14    1    4    4    0    0 -0.23808220588E+02 -0.19151996958E+01  0.87934950967E+02  0.91121100515E+02  0.00000000000E+00 0.  1.
</event>
<event>
12    1  0.8421768E-002  0.1944629E+03  0.7818608E-02  0.1155112E+00
         21   -1    0    0  503  502  0.00000000000E+00  0.00000000000E+00  0.11330636176E+03  0.11330636176E+03  0.00000000000E+00 0.  1.
         21   -1    0    0  501  503 -0.00000000000E+00 -0.00000000000E+00 -0.57849849999E+03  0.57849849999E+03  0.00000000000E+00 0.  1.
          6    2    1    2  501    0  0.52119296297E+02  0.67297356973E+02 -0.45881127761E+03  0.49723729124E+03  0.17173170948E+03 0.  0.
         24    2    3    3    0    0  0.78410080198E+02  0.66821984820E+02 -0.45097154349E+03  0.46939877965E+03  0.79665318468E+02 0.  0.
         -6    2    1    2    0  502 -0.52119296297E+02 -0.67297356973E+02 -0.63808606228E+01  0.19456757050E+03  0.17484412717E+03 0.  0.
        -24    2    5    5    0    0 -0.36163869479E+02  0.29040556066E+02 -0.22354591648E+02  0.95507895476E+02  0.80441599798E+02 0.  0.
          5    1    3    3  501    0 -0.26290783901E+02  0.47537215266E+00 -0.78397341201E+01  0.27838511596E+02  0.47000000000E+01 0. -1.
        -13    1    4    4    0    0  0.37506724066E+02  0.20626151930E+02 -0.33778848578E+03  0.34048972616E+03  0.00000000000E+00 0.  1.
         14    1    4    4    0    0  0.40903356132E+02  0.46195832890E+02 -0.11318305770E+03  0.12890905348E+03  0.00000000000E+00 0. -1.
         -5    1    5    5    0  502 -0.15955426818E+02 -0.96337913039E+02  0.15973731025E+02  0.99059675027E+02  0.47000000000E+01 0.  1.
         11    1    6    6    0    0 -0.49728836539E+02 -0.90274128384E+00 -0.34425895588E+02  0.60488961078E+02  0.00000000000E+00 0. -1.
        -12    1    6    6    0    0  0.13564967059E+02  0.29943297350E+02  0.12071303940E+02  0.35018934398E+02  0.00000000000E+00 0.  1.
</event>
<event>
12    1  0.8421768E-002  0.2379431E+03  0.7818608E-02  0.1121820E+00
         21   -1    0    0  501  502  0.00000000000E+00  0.00000000000E+00  0.53251325756E+02  0.53251325756E+02  0.00000000000E+00 0. -1.
         21   -1    0    0  502  503 -0.00000000000E+00 -0.00000000000E+00 -0.11859176451E+04  0.11859176451E+04  0.00000000000E+00 0.  1.
         -6    2    1    2    0  503 -0.14066222009E+03  0.73468209967E+02 -0.77495512630E+03  0.80954793845E+03  0.17213070277E+03 0.  0.
        -24    2    3    3    0    0 -0.11896377274E+02  0.87053928155E+01 -0.18262546514E+03  0.19991576881E+03  0.79980913024E+02 0.  0.
          6    2    1    2  501    0  0.14066222009E+03 -0.73468209967E+02 -0.35771119301E+03  0.42962103237E+03  0.17729494018E+03 0.  0.
         24    2    5    5    0    0  0.31721071525E+02  0.18421693910E+02 -0.19140819298E+03  0.21055322071E+03  0.79686744372E+02 0.  0.
          5    1    5    5  501    0  0.10894114856E+03 -0.91889903877E+02 -0.16630300003E+03  0.21906781166E+03  0.47000000000E+01 0. -1.
        -11    1    6    6    0    0  0.21083193263E+02  0.35508875865E+02 -0.38933092450E+02  0.56755325663E+02  0.00000000000E+00 0.  1.
         12    1    6    6    0    0  0.10637878262E+02 -0.17087181955E+02 -0.15247510053E+03  0.15379789505E+03  0.00000000000E+00 0. -1.
         -5    1    3    3    0  503 -0.12876584281E+03  0.64762817152E+02 -0.59232966116E+03  0.60963216963E+03  0.47000000000E+01 0.  1.
         11    1    4    4    0    0 -0.73813356434E+01  0.41916740632E+02 -0.13592370559E+03  0.14243156603E+03  0.00000000000E+00 0. -1.
        -12    1    4    4    0    0 -0.45150416308E+01 -0.33211347817E+02 -0.46701759543E+02  0.57484202779E+02  0.00000000000E+00 0.  1.
</event>
<event>
12    1  0.8421768E-002  0.1732506E+03  0.7818608E-02  0.1174553E+00
         21   -1    0    0  503  502  0.00000000000E+00  0.00000000000E+00  0.29603748406E+03  0.29603748406E+03  0.00000000000E+00 0.  1.
         21   -1    0    0  501  503 -0.00000000000E+00 -0.00000000000E+00 -0.11165570347E+03  0.11165570347E+03  0.00000000000E+00 0.  1.
          6    2    1    2  501    0 -0.43491806543E+01 -0.23579690158E+02  0.30069634060E+02  0.17584071535E+03  0.17158338241E+03 0.  0.
         24    2    3    3    0    0 -0.44221520157E+02 -0.58910923683E+02  0.48848162706E+02  0.11915894881E+03  0.79916658507E+02 0.  0.
         -6    2    1    2    0  502  0.43491806543E+01  0.23579690158E+02  0.15431214654E+03  0.23185247218E+03  0.17137214805E+03 0.  0.
        -24    2    5    5    0    0  0.34190145940E+02  0.68342278103E+02  0.13342291358E+03  0.17395063679E+03  0.81348122991E+02 0.  0.
          5    1    3    3  501    0  0.39872339503E+02  0.35331233525E+02 -0.18778528646E+02  0.56681766539E+02  0.47000000000E+01 0. -1.
        -13    1    4    4    0    0 -0.25153168624E+02  0.58624448418E+01 -0.11803346019E+02  0.28396639389E+02  0.00000000000E+00 0.  1.
         14    1    4    4    0    0 -0.19068351533E+02 -0.64773368525E+02  0.60651508725E+02  0.90762309418E+02  0.00000000000E+00 0. -1.
         -5    1    5    5    0  502 -0.29840965286E+02 -0.44762587946E+02  0.20889232955E+02  0.57901835396E+02  0.47000000000E+01 0.  1.
         11    1    6    6    0    0 -0.26219618496E+02  0.14796720537E+02  0.27517966953E+02  0.40787863856E+02  0.00000000000E+00 0. -1.
        -12    1    6    6    0    0  0.60409764436E+02  0.53545557566E+02  0.10590494663E+03  0.13316277293E+03  0.00000000000E+00 0.  1.
</event>
<event>
12    1  0.8421768E-002  0.2400229E+03  0.7818608E-02  0.1119922E+00
         21   -1    0    0  503  502  0.00000000000E+00  0.00000000000E+00  0.34802570818E+03  0.34802570818E+03  0.00000000000E+00 0. -1.
         21   -1    0    0  501  503 -0.00000000000E+00 -0.00000000000E+00 -0.28515507700E+03  0.28515507700E+03  0.00000000000E+00 0.  1.
          6    2    1    2  501    0  0.15555630010E+03  0.57911544971E+02 -0.17409103407E+03  0.29651083141E+03  0.17337668660E+03 0.  0.
         24    2    3    3    0    0  0.44396013988E+02  0.57842723392E+02 -0.28835142426E+02  0.11354094863E+03  0.82117567369E+02 0.  0.
         -6    2    1    2    0  502 -0.15555630010E+03 -0.57911544971E+02  0.23696166525E+03  0.33666995377E+03  0.17217525208E+03 0.  0.
        -24    2    5    5    0    0 -0.30684144162E+02 -0.47510479007E+02  0.16147216366E+03  0.19030741637E+03  0.83336011254E+02 0.  0.
          5    1    3    3  501    0  0.11116028612E+03  0.68821578918E-01 -0.14525589164E+03  0.18296988277E+03  0.47000000000E+01 0. -1.
        -13    1    4    4    0    0  0.26814418616E+02  0.56922097577E+02 -0.53940442528E+02  0.82877678409E+02  0.00000000000E+00 0.  1.
         14    1    4    4    0    0  0.17581595372E+02  0.92062581510E+00  0.25105300102E+02  0.30663270226E+02  0.00000000000E+00 0. -1.
         -5    1    5    5    0  502 -0.12487215594E+03 -0.10401065964E+02  0.75489501599E+02  0.14636253740E+03  0.47000000000E+01 0.  1.
         11    1    6    6    0    0 -0.44926631944E+02 -0.17460101184E+01  0.11529971169E+03  0.12375570421E+03  0.00000000000E+00 0. -1.
        -12    1    6    6    0    0  0.14242487782E+02 -0.45764468889E+02  0.46172451969E+02  0.66551712162E+02  0.00000000000E+00 0.  1.
</event>
<event>
12    1  0.8421768E-002  0.2859131E+03  0.7818608E-02  0.1092759E+00
         21   -1    0    0  503  502  0.00000000000E+00  0.00000000000E+00  0.48239578311E+03  0.48239578311E+03  0.00000000000E+00 0. -1.
         21   -1    0    0  501  503 -0.00000000000E+00 -0.00000000000E+00 -0.17533353471E+03  0.17533353471E+03  0.00000000000E+00 0.  1.
          6    2    1    2  501    0 -0.22672779567E+03  0.32047894750E+02  0.87270684813E+02  0.29709846196E+03  0.16798441233E+03 0.  0.
         24    2    3    3    0    0 -0.24387062054E+03  0.25436108929E+02  0.63591664510E+02  0.26676072706E+03  0.83651123782E+02 0.  0.
         -6    2    1    2    0  502  0.22672779567E+03 -0.32047894750E+02  0.21979156358E+03  0.36063085586E+03  0.17121250506E+03 0.  0.
        -24    2    5    5    0    0  0.22306235002E+03 -0.60341909607E+02  0.22453070982E+03  0.33133006618E+03  0.77250340152E+02 0.  0.
          5    1    3    3  501    0  0.17142824870E+02  0.66117858204E+01  0.23679020303E+02  0.30337734898E+02  0.47000000000E+01 0. -1.
        -13    1    4    4    0    0 -0.15258550113E+03  0.47338282607E+02  0.65994661646E+02  0.17285411051E+03  0.00000000000E+00 0.  1.
         14    1    4    4    0    0 -0.91285119409E+02 -0.21902173678E+02 -0.24029971357E+01  0.93906616554E+02  0.00000000000E+00 0. -1.
         -5    1    5    5    0  502  0.36654456513E+01  0.28294014857E+02 -0.47391462373E+01  0.29300789676E+02  0.47000000000E+01 0.  1.
         13    1    6    6    0    0  0.74352780023E+01  0.91360402216E+01  0.31744568402E+02  0.33859536514E+02  0.00000000000E+00 0. -1.
        -14    1    6    6    0    0  0.21562707201E+03 -0.69477949828E+02  0.19278614142E+03  0.29747052967E+03  0.00000000000E+00 0.  1.
</event>
<event>
12    1  0.8421768E-002  0.1740061E+03  0.7818608E-02  0.1173946E+00
         21   -1    0    0  501  502  0.00000000000E+00  0.00000000000E+00  0.27496505219E+02  0.27496505219E+02  0.00000000000E+00 0. -1.
         21   -1    0    0  502  503 -0.00000000000E+00 -0.00000000000E+00 -0.12778573574E+04  0.12778573574E+04  0.00000000000E+00 0. -1.
         -6    2    1    2    0  503 -0.35947165587E+01  0.20148044915E+02 -0.87278458283E+03  0.88996126440E+03  0.17279831713E+03 0.  0.
        -24    2    3    3    0    0  0.29082625252E+02  0.58084388340E+02 -0.75332152683E+03  0.76034457346E+03  0.80068422928E+02 0.  0.
          6    2    1    2  501    0  0.35947165587E+01 -0.20148044915E+02 -0.37757626930E+03  0.41539259817E+03  0.17195437120E+03 0.  0.
         24    2    5    5    0    0  0.68235460609E+02 -0.29626525369E+02 -0.23087888515E+03  0.25473619494E+03  0.77792418096E+02 0.  0.
          5    1    5    5  501    0 -0.64640744050E+02  0.94784804535E+01 -0.14669738416E+03  0.16065640324E+03  0.47000000000E+01 0. -1.
        -11    1    6    6    0    0 -0.20889639268E+01 -0.32017567793E+02 -0.11286466605E+03  0.11733678563E+03  0.00000000000E+00 0.  1.
         12    1    6    6    0    0  0.70324424536E+02  0.23910424243E+01 -0.11801421909E+03  0.13739940931E+03  0.00000000000E+00 0. -1.
         -5    1    3    3    0  503 -0.32677341811E+02 -0.37936343424E+02 -0.11946305600E+03  0.12961669094E+03  0.47000000000E+01 0.  1.
         11    1    4    4    0    0 -0.13831659096E+02 -0.13610132861E+02 -0.15828637561E+03  0.15947139936E+03  0.00000000000E+00 0. -1.
        -12    1    4    4    0    0  0.42914284348E+02  0.71694521200E+02 -0.59503515122E+03  0.60087317410E+03  0.00000000000E+00 0.  1.
</event>
<event>
12    1  0.8421768E-002  0.1764338E+03  0.7818608E-02  0.1171598E+00
         21   -1    0    0  503  502  0.00000000000E+00  0.00000000000E+00  0.92413115735E+03  0.92413115735E+03  0.00000000000E+00 0. -1.
         21   -1    0    0  501  503 -0.00000000000E+00 -0.00000000000E+00 -0.41627155552E+02  0.41627155552E+02  0.00000000000E+00 0. -1.
          6    2    1    2  501    0  0.26331706756E+02  0.27887809098E+02  0.22611131544E+03  0.28606703440E+03  0.17098810638E+03 0.  0.
         24    2    3    3    0    0 -0.13832103009E+02  0.57470324313E+02  0.69874814513E+02  0.12199329780E+03  0.80657980100E+02 0.  0.
         -6    2    1    2    0  502 -0.26331706756E+02 -0.27887809098E+02  0.65639268636E+03  0.67969127851E+03  0.17221436261E+03 0.  0.
        -24    2    5    5    0    0 -0.64376312437E+02 -0.34209946715E+02  0.26138076962E+03  0.28277331996E+03  0.79537498694E+02 0.  0.
          5    1    3    3  501    0  0.40163809765E+02 -0.29582515215E+02  0.15623650092E+03  0.16407373660E+03  0.47000000000E+01 0. -1.
        -11    1    4    4    0    0 -0.43422172293E+02  0.16865027229E+02  0.48934696145E+02  0.67561221695E+02  0.00000000000E+00 0.  1.
         12    1    4    4    0    0  0.29590069284E+02  0.40605297084E+02  0.20940118368E+02  0.54432076102E+02  0.00000000000E+00 0. -1.
         -5    1    5    5    0  502  0.38044605681E+02  0.63221376174E+01  0.39501191675E+03  0.39691795855E+03  0.47000000000E+01 0.  1.
         11    1    6    6    0    0 -0.13130576983E+02 -0.36953109985E+02  0.41969199516E+02  0.57440039150E+02  0.00000000000E+00 0. -1.
        -12    1    6    6    0    0 -0.51245735454E+02  0.27431632694E+01  0.21941157010E+03  0.22533328081E+03  0.00000000000E+00 0.  1.
</event>
<event>
12    1  0.8421768E-002  0.3346521E+03  0.7818608E-02  0.1069102E+00
         21   -1    0    0  503  502  0.00000000000E+00  0.00000000000E+00  0.75378625541E+02  0.75378625541E+02  0.00000000000E+00 0. -1.
         21   -1    0    0  501  503 -0.00000000000E+00 -0.00000000000E+00 -0.15876100031E+04  0.15876100031E+04  0.00000000000E+00 0. -1.
          6    2    1    2  501    0  0.28684859173E+03 -0.90365919873E+01 -0.54522117087E+03  0.63970921568E+03  0.17204063731E+03 0.  0.
         24    2    3    3    0    0  0.17448721497E+03 -0.39890983306E+02 -0.44282511769E+03  0.48451864200E+03  0.81407314506E+02 0.  0.
         -6    2    1    2    0  502 -0.28684859173E+03  0.90365919873E+01 -0.96701020672E+03  0.10232794130E+04  0.17212856409E+03 0.  0.
        -24    2    5    5    0    0 -0.18788250151E+03  0.26579140903E+02 -0.42129353199E+03  0.46836427793E+03  0.76619655723E+02 0.  0.
          5    1    3    3  501    0  0.11236137676E+03  0.30854391318E+02 -0.10239605318E+03  0.15519057368E+03  0.47000000000E+01 0. -1.
        -13    1    4    4    0    0  0.10723168453E+03  0.75189895683E+01 -0.31167774067E+03  0.32969407547E+03  0.00000000000E+00 0.  1.
         14    1    4    4    0    0  0.67255530445E+02 -0.47409972874E+02 -0.13114737701E+03  0.15482456653E+03  0.00000000000E+00 0. -1.
         -5    1    5    5    0  502 -0.98966090220E+02 -0.17542548915E+02 -0.54571667473E+03  0.55491513506E+03  0.47000000000E+01 0.  1.
         13    1    6    6    0    0 -0.10363724129E+03  0.47474893804E+02 -0.28290666523E+03  0.30500938437E+03  0.00000000000E+00 0. -1.
        -14    1    6    6    0    0 -0.84245260217E+02 -0.20895752901E+02 -0.13838686676E+03  0.16335489356E+03  0.00000000000E+00 0.  1.
</event>
<event>
12    1  0.8421768E-002  0.1994127E+03  0.7818608E-02  0.1151436E+00
         21   -1    0    0  503  502  0.00000000000E+00  0.00000000000E+00  0.63454323302E+02  0.63454323302E+02  0.00000000000E+00 0.  1.
         21   -1    0    0  501  503 -0.00000000000E+00 -0.00000000000E+00 -0.18328322587E+04  0.18328322587E+04  0.00000000000E+00 0.  1.
          6    2    1    2  501    0  0.52703426597E+02 -0.70873148307E+02 -0.16635340315E+04  0.16754434903E+04  0.17878691459E+03 0.  0.
         24    2    3    3    0    0  0.27540757332E+02 -0.11443388197E+03 -0.13959324682E+04  0.14031139397E+04  0.79042174357E+02 0.  0.
         -6    2    1    2    0  502 -0.52703426597E+02  0.70873148307E+02 -0.10584390386E+03  0.22084309169E+03  0.17253430046E+03 0.  0.
        -24    2    5    5    0    0 -0.26440408577E+02 -0.59004272231E+01 -0.11375812075E+03  0.13918127170E+03  0.75475864407E+02 0.  0.
          5    1    3    3  501    0  0.25162669265E+02  0.43560733659E+02 -0.26760156328E+03  0.27232955056E+03  0.47000000000E+01 0. -1.
        -11    1    4    4    0    0  0.14759370360E+02 -0.88684156947E+02 -0.60345970892E+03  0.61011993820E+03  0.00000000000E+00 0.  1.
         12    1    4    4    0    0  0.12781386972E+02 -0.25749725019E+02 -0.79247275933E+03  0.79299400153E+03  0.00000000000E+00 0. -1.
         -5    1    5    5    0  502 -0.26263018020E+02  0.76773575530E+02  0.79142168863E+01  0.81661819990E+02  0.47000000000E+01 0.  1.
         11    1    6    6    0    0  0.24189913271E+02  0.26513764285E+01 -0.17135923562E+02  0.29762754868E+02  0.00000000000E+00 0. -1.
        -12    1    6    6    0    0 -0.50630321848E+02 -0.85518036517E+01 -0.96622197188E+02  0.10941851683E+03  0.00000000000E+00 0.  1.
</event>
<event>
12    1  0.8421768E-002  0.1914058E+03  0.7818608E-02  0.1157459E+00
         21   -1    0    0  503  502  0.00000000000E+00  0.00000000000E+00  0.32261448894E+03  0.32261448894E+03  0.00000000000E+00 0. -1.
         21   -1    0    0  501  503 -0.00000000000E+00 -0.00000000000E+00 -0.19493043270E+03  0.19493043270E+03  0.00000000000E+00 0. -1.
          6    2    1    2  501    0  0.80940484074E+02 -0.14424095591E+02 -0.10394004702E+03  0.21780662540E+03  0.17284899826E+03 0.  0.
         24    2    3    3    0    0  0.11962440548E+03 -0.11765421278E+02 -0.52464807498E+02  0.15319002839E+03  0.79159366145E+02 0.  0.
         -6    2    1    2    0  502 -0.80940484074E+02  0.14424095591E+02  0.23162410327E+03  0.29973829624E+03  0.17156312110E+03 0.  0.
        -24    2    5    5    0    0 -0.77681131897E+02  0.56756969784E+02  0.22393433006E+03  0.25633416941E+03  0.79403465638E+02 0.  0.
          5    1    3    3  501    0 -0.38683921411E+02 -0.26586743130E+01 -0.51475239522E+02  0.64616597006E+02  0.47000000000E+01 0. -1.
        -13    1    4    4    0    0  0.91236972496E+02  0.27604423154E+02 -0.36971525532E+02  0.10224031997E+03  0.00000000000E+00 0.  1.
         14    1    4    4    0    0  0.28387432989E+02 -0.39369844432E+02 -0.15493281965E+02  0.50949708422E+02  0.00000000000E+00 0. -1.
         -5    1    5    5    0  502 -0.32593521775E+01 -0.42332874193E+02  0.76897732113E+01  0.43404126833E+02  0.47000000000E+01 0.  1.
         11    1    6    6    0    0  0.53042527860E+01  0.11342270555E+02  0.98157220996E+02  0.98952626204E+02  0.00000000000E+00 0. -1.
        -12    1    6    6    0    0 -0.82985384682E+02  0.45414699230E+02  0.12577710906E+03  0.15738154320E+03  0.00000000000E+00 0.  1.
</event>
<event>
12    1  0.8421768E-002  0.2443334E+03  0.7818608E-02  0.1116991E+00
         21   -1    0    0  503  502  0.00000000000E+00  0.00000000000E+00  0.10939764884E+03  0.10939764884E+03  0.00000000000E+00 0.  1.
         21   -1    0    0  501  503 -0.00000000000E+00 -0.00000000000E+00 -0.66039066385E+03  0.66039066385E+03  0.00000000000E+00 0. -1.
          6    2    1    2  501    0 -0.14583585066E+03 -0.93004644481E+02 -0.43653540873E+03  0.50026188098E+03  0.17257122372E+03 0.  0.
         24    2    3    3    0    0 -0.83700678959E+02 -0.10497647114E+03 -0.19129587795E+03  0.24694661959E+03  0.79766263890E+02 0.  0.
         -6    2    1    2    0  502  0.14583585066E+03  0.93004644481E+02 -0.11445760629E+03  0.26952643171E+03  0.17212203380E+03 0.  0.
        -24    2    5    5    0    0  0.78919147817E+02  0.11660602950E+03 -0.11437169315E+03  0.19841407079E+03  0.80386947231E+02 0.  0.
          5    1    3    3  501    0 -0.62135171702E+02  0.11971826661E+02 -0.24523953078E+03  0.25331526139E+03  0.47000000000E+01 0. -1.
        -13    1    4    4    0    0 -0.10262714149E+02 -0.76754409052E+02 -0.98215646340E+02  0.12507148275E+03  0.00000000000E+00 0.  1.
         14    1    4    4    0    0 -0.73437964810E+02 -0.28222062090E+02 -0.93080231608E+02  0.12187513684E+03  0.00000000000E+00 0. -1.
         -5    1    5    5    0  502  0.66916702844E+02 -0.23601385021E+02 -0.85913133696E-01  0.71112360919E+02  0.47000000000E+01 0.  1.
         13    1    6    6    0    0 -0.15642611716E+02  0.22971906815E+02 -0.29747629566E+02  0.40710210867E+02  0.00000000000E+00 0. -1.
        -14    1    6    6    0    0  0.94561759533E+02  0.93634122687E+02 -0.84624063586E+02  0.15770385992E+03  0.00000000000E+00 0.  1.
</event>
<event>
12    1  0.8421768E-002  0.1913768E+03  0.7818608E-02  0.1157400E+00
         21   -1    0    0  501  502  0.00000000000E+00  0.00000000000E+00  0.22840369182E+03  0.22840369182E+03  0.00000000000E+00 0. -1.
         21   -1    0    0  502  503 -0.00000000000E+00 -0.00000000000E+00 -0.29344379148E+03  0.29344379148E+03  0.00000000000E+00 0. -1.
         -6    2    1    2    0  503  0.83126795956E+02 -0.79508599316E+01 -0.20863567580E+03  0.28258869138E+03  0.17133079962E+03 0.  0.
        -24    2    3    3    0    0  0.66939540115E+02 -0.67817903013E+02 -0.16476288232E+03  0.20647691761E+03  0.80035867669E+02 0.  0.
          6    2    1    2  501    0 -0.83126795956E+02  0.79508599316E+01  0.14359557615E+03  0.23925879192E+03  0.17219697919E+03 0.  0.
         24    2    5    5    0    0 -0.32085446313E+02 -0.55605179192E+02  0.11169509127E+03  0.15159853629E+03  0.79905637924E+02 0.  0.
          5    1    5    5  501    0 -0.51041349643E+02  0.63556039124E+02  0.31900484880E+02  0.87660255635E+02  0.47000000000E+01 0. -1.
        -11    1    6    6    0    0 -0.57320552723E+02 -0.43359896569E+02  0.63852667738E+02  0.96139947848E+02  0.00000000000E+00 0.  1.
         12    1    6    6    0    0  0.25235106410E+02 -0.12245282622E+02  0.47842423532E+02  0.55458588437E+02  0.00000000000E+00 0. -1.
         -5    1    3    3    0  503  0.16187255841E+02  0.59867043081E+02 -0.43872793480E+02  0.76111773772E+02  0.47000000000E+01 0.  1.
         13    1    4    4    0    0  0.58076385318E+02 -0.28472587372E+02 -0.41660152432E+02  0.76935837318E+02  0.00000000000E+00 0. -1.
        -14    1    4    4    0    0  0.88631547978E+01 -0.39345315641E+02 -0.12310272989E+03  0.12954108029E+03  0.00000000000E+00 0.  1.
</event>
<event>
12    1  0.8421768E-002  0.2048426E+03  0.7818608E-02  0.1145917E+00
         21   -1    0    0  501  502  0.00000000000E+00  0.00000000000E+00  0.69495805479E+02  0.69495805479E+02  0.00000000000E+00 0.  1.
         21   -1    0    0  502  503 -0.00000000000E+00 -0.00000000000E+00 -0.62088287500E+03  0.62088287500E+03  0.00000000000E+00 0.  1.
         -6    2    1    2    0  503  0.94496167564E+02 -0.55992719337E+02 -0.21313389949E+03  0.29493498419E+03  0.17174363301E+03 0.  0.
        -24    2    3    3    0    0  0.12031849277E+03 -0.23629975136E+02 -0.20233609572E+03  0.25189056228E+03  0.86452555217E+02 0.  0.
          6    2    1    2  501    0 -0.94496167564E+02  0.55992719337E+02 -0.33825317003E+03  0.39544369629E+03  0.17290401846E+03 0.  0.
         24    2    5    5    0    0 -0.36375844048E+02  0.55262539944E+02 -0.85535322373E+02  0.13608505331E+03  0.82617794749E+02 0.  0.
          5    1    5    5  501    0 -0.58120323516E+02  0.73017939341E+00 -0.25271784765E+03  0.25935864298E+03  0.47000000000E+01 0. -1.
        -13    1    6    6    0    0 -0.37112010548E+02  0.72603639516E+02 -0.86278894231E+02  0.11871241463E+03  0.00000000000E+00 0.  1.
         14    1    6    6    0    0  0.73616650025E+00 -0.17341099572E+02  0.74357185789E+00  0.17372638677E+02  0.00000000000E+00 0. -1.
         -5    1    3    3    0  503 -0.25822325207E+02 -0.32362744202E+02 -0.10797803772E+02  0.43044421911E+02  0.47000000000E+01 0.  1.
         11    1    4    4    0    0  0.70239356436E+01 -0.87320522739E+01 -0.93218734576E+02  0.93889918973E+02  0.00000000000E+00 0. -1.
        -12    1    4    4    0    0  0.11329455713E+03 -0.14897922862E+02 -0.10911736115E+03  0.15800064330E+03  0.00000000000E+00 0.  1.
</event>
<event>
12    1  0.8421768E-002  0.2169950E+03  0.7818608E-02  0.1136169E+00
         21   -1    0    0  501  502  0.00000000000E+00  0.00000000000E+00  0.44681187625E+03  0.44681187625E+03  0.00000000000E+00 0. -1.
         21   -1    0    0  502  503 -0.00000000000E+00 -0.00000000000E+00 -0.18276473872E+03  0.18276473872E+03  0.00000000000E+00 0. -1.
         -6    2    1    2    0  503  0.13038141569E+03  0.14555132067E+02 -0.72912533434E+02  0.22879158897E+03  0.17267943775E+03 0.  0.
        -24    2    3    3    0    0  0.17403558624E+02 -0.37134437446E+02 -0.36870483910E+02  0.99343038888E+02  0.82630239588E+02 0.  0.
          6    2    1    2  501    0 -0.13038141569E+03 -0.14555132067E+02  0.33695967097E+03  0.40078502600E+03  0.17284574563E+03 0.  0.
         24    2    5    5    0    0 -0.13228697805E+03 -0.32798525978E+02  0.16390096976E+03  0.22669350796E+03  0.77141628179E+02 0.  0.
          5    1    5    5  501    0  0.19055623568E+01  0.18243393912E+02  0.17305870121E+03  0.17409151804E+03  0.47000000000E+01 0. -1.
        -11    1    6    6    0    0  0.14351021193E+01 -0.36376328684E+01 -0.68336088287E+01  0.78733792365E+01  0.00000000000E+00 0.  1.
         12    1    6    6    0    0 -0.13372208017E+03 -0.29160893110E+02  0.17073457859E+03  0.21882012873E+03  0.00000000000E+00 0. -1.
         -5    1    3    3    0  503  0.11297785706E+03  0.51689569513E+02 -0.36042049524E+02  0.12944855008E+03  0.47000000000E+01 0.  1.
         13    1    4    4    0    0  0.38139613750E+02  0.44151693601E+01 -0.36396650973E+02  0.52904064679E+02  0.00000000000E+00 0. -1.
        -14    1    4    4    0    0 -0.20736055125E+02 -0.41549606807E+02 -0.47383293693E+00  0.46438974209E+02  0.00000000000E+00 0.  1.
</event>
<event>
12    1  0.8421768E-002  0.1857512E+03  0.7818608E-02  0.1165253E+00
         21   -1    0    0  501  502  0.00000000000E+00  0.00000000000E+00  0.17408751318E+03  0.17408751318E+03  0.00000000000E+00 0. -1.
         21   -1    0    0  502  503 -0.00000000000E+00 -0.00000000000E+00 -0.32974047150E+03  0.32974047150E+03  0.00000000000E+00 0. -1.
         -6    2    1    2    0  503  0.21542255762E+02 -0.64977352995E+02 -0.24289532962E+03  0.29860920109E+03  0.15963454714E+03 0.  0.
        -24    2    3    3    0    0  0.12408791823E+02 -0.86086428253E+02 -0.98538890425E+02  0.15235638998E+03  0.77056507823E+02 0.  0.
          6    2    1    2  501    0 -0.21542255762E+02  0.64977352995E+02  0.87242371294E+02  0.20521878358E+03  0.17267713398E+03 0.  0.
         24    2    5    5    0    0 -0.48213447411E+02 -0.18298381071E+02  0.33900307362E+02  0.10268261371E+03  0.82067783310E+02 0.  0.
          5    1    5    5  501    0  0.26671191649E+02  0.83275734065E+02  0.53342063932E+02  0.10253616987E+03  0.47000000000E+01 0. -1.
        -11    1    6    6    0    0  0.17278796180E+02 -0.41431768332E+01  0.30859153132E+02  0.35609128658E+02  0.00000000000E+00 0.  1.
         12    1    6    6    0    0 -0.65492243591E+02 -0.14155204238E+02  0.30411542297E+01  0.67073485049E+02  0.00000000000E+00 0. -1.
         -5    1    3    3    0  503  0.91334639383E+01  0.21109075258E+02 -0.14435643919E+03  0.14625281111E+03  0.47000000000E+01 0.  1.
         13    1    4    4    0    0  0.13101500069E+02 -0.13074918540E+02 -0.72518921160E+02  0.74843815544E+02  0.00000000000E+00 0. -1.
        -14    1    4    4    0    0 -0.69270824569E+00 -0.73011509713E+02 -0.26019969265E+02  0.77512574437E+02  0.00000000000E+00 0.  1.
</event>
<event>
12    1  0.8421768E-002  0.2813689E+03  0.7818608E-02  0.1094976E+00
         21   -1    0    0  503  502  0.00000000000E+00  0.00000000000E+00  0.27341299750E+03  0.27341299750E+03  0.00000000000E+00 0.  1.
         21   -1    0    0  501  503 -0.00000000000E+00 -0.00000000000E+00 -0.12729323406E+04  0.12729323406E+04  0.00000000000E+00 0. -1.
          6    2    1    2  501    0  0.11729949150E+03 -0.18958221372E+03 -0.11793655514E+04  0.12124095269E+04  0.17126929271E+03 0.  0.
         24    2    3    3    0    0  0.83734736498E+02 -0.56477463699E+02 -0.38699823737E+03  0.40822576830E+03  0.81727793148E+02 0.  0.
         -6    2    1    2    0  502 -0.11729949150E+03  0.18958221372E+03  0.17984620823E+03  0.33393581126E+03  0.17166211277E+03 0.  0.
        -24    2    5    5    0    0 -0.13789931655E+03  0.18791613830E+03  0.19199826457E+03  0.30950445697E+03  0.67830514863E+02 0.  0.
          5    1    3    3  501    0  0.33564754999E+02 -0.13310475002E+03 -0.79236731402E+03  0.80418375859E+03  0.47000000000E+01 0. -1.
        -11    1    4    4    0    0  0.38979795626E+02 -0.40262226472E+02 -0.80692773043E+02  0.98243549248E+02  0.00000000000E+00 0.  1.
         12    1    4    4    0    0  0.44754940872E+02 -0.16215237228E+02 -0.30630546432E+03  0.30998221905E+03  0.00000000000E+00 0. -1.
         -5    1    5    5    0  502  0.20599825053E+02  0.16660754219E+01 -0.12152056334E+02  0.24431354294E+02  0.47000000000E+01 0.  1.
         13    1    6    6    0    0 -0.35747562550E+02  0.13815965706E+02  0.48625242746E+02  0.61912707651E+02  0.00000000000E+00 0. -1.
        -14    1    6    6    0    0 -0.10215175400E+03  0.17410017260E+03  0.14337302182E+03  0.24759174932E+03  0.00000000000E+00 0.  1.
</event>
<event>
12    1  0.8421768E-002  0.2242726E+03  0.7818608E-02  0.1130876E+00
         21   -1    0    0  503  502  0.00000000000E+00  0.00000000000E+00  0.11895858556E+03  0.11895858556E+03  0.00000000000E+00 0. -1.
         21   -1    0    0  501  503 -0.00000000000E+00 -0.00000000000E+00 -0.73293199896E+03  0.73293199896E+03  0.00000000000E+00 0. -1.
          6    2    1    2  501    0 -0.10582993394E+03 -0.96892295526E+02 -0.58439201927E+03  0.62567547619E+03  0.17137000163E+03 0.  0.
         24    2    3    3    0    0 -0.12357823734E+03 -0.11865229727E+03 -0.43311855268E+03  0.47174610392E+03  0.74851569806E+02 0.  0.
         -6    2    1    2    0  502  0.10582993394E+03  0.96892295526E+02 -0.29581394131E+02  0.22621510834E+03  0.17236625108E+03 0.  0.
        -24    2    5    5    0    0  0.35847041061E+02  0.45472355588E+01 -0.60050503998E+02  0.10631651764E+03  0.79946552071E+02 0.  0.
          5    1    3    3  501    0  0.17748303400E+02  0.21760001741E+02 -0.15127346660E+03  0.15392937226E+03  0.47000000000E+01 0. -1.
        -11    1    4    4    0    0 -0.98525813648E+01 -0.40202670483E+02 -0.52671921330E+02  0.66989994552E+02  0.00000000000E+00 0.  1.
         12    1    4    4    0    0 -0.11372565597E+03 -0.78449626784E+02 -0.38044663135E+03  0.40475610937E+03  0.00000000000E+00 0. -1.
         -5    1    5    5    0  502  0.69982892875E+02  0.92345059967E+02  0.30469109867E+02  0.11989859070E+03  0.47000000000E+01 0.  1.
         13    1    6    6    0    0  0.28298089822E+02 -0.30333144762E+02 -0.65383448600E+01  0.41995613012E+02  0.00000000000E+00 0. -1.
        -14    1    6    6    0    0  0.75489512387E+01  0.34880380321E+02 -0.53512159138E+02  0.64320904625E+02  0.00000000000E+00 0.  1.
</event>
<event>
12    1  0.8421768E-002  0.2314534E+03  0.7818608E-02  0.1126380E+00
         21   -1    0    0  503  502  0.00000000000E+00  0.00000000000E+00  0.16474359962E+04  0.16474359962E+04  0.00000000000E+00 0. -1.
         21   -1    0    0  501  503 -0.00000000000E+00 -0.00000000000E+00 -0.33312426143E+02  0.33312426143E+02  0.00000000000E+00 0.  1.
          6    2    1    2  501    0  0.50465795660E+02 -0.14645897260E+03  0.64224189449E+03  0.68267514198E+03  0.17196997196E+03 0.  0.
         24    2    3    3    0    0  0.90804770626E+02 -0.61594010799E+02  0.41659021643E+03  0.43819597221E+03  0.80180877391E+02 0.  0.
         -6    2    1    2    0  502 -0.50465795660E+02  0.14645897260E+03  0.97188167561E+03  0.99807328041E+03  0.16613023351E+03 0.  0.
        -24    2    5    5    0    0 -0.32736612092E+02  0.72608250516E+02  0.82623085543E+03  0.83374280691E+03  0.78268753575E+02 0.  0.
          5    1    3    3  501    0 -0.40338974965E+02 -0.84864961798E+02  0.22565167806E+03  0.24447916977E+03  0.47000000000E+01 0. -1.
        -11    1    4    4    0    0  0.19667409999E+02 -0.59173677790E+02  0.15441306803E+03  0.16652845624E+03  0.00000000000E+00 0.  1.
         12    1    4    4    0    0  0.71137360627E+02 -0.24203330083E+01  0.26217714840E+03  0.27166751597E+03  0.00000000000E+00 0. -1.
         -5    1    5    5    0  502 -0.17729183569E+02  0.73850722080E+02  0.14565082018E+03  0.16433047350E+03  0.47000000000E+01 0.  1.
         13    1    6    6    0    0  0.19401346857E+02  0.19687765488E+02  0.10090326349E+03  0.10462069084E+03  0.00000000000E+00 0. -1.
        -14    1    6    6    0    0 -0.52137958948E+02  0.52920485028E+02  0.72532759194E+03  0.72912211606E+03  0.00000000000E+00 0.  1.
</event>
<event>
12    1  0.8421768E-002  0.2007016E+03  0.7818608E-02  0.1149649E+00
         21   -1    0    0  501  502  0.00000000000E+00  0.00000000000E+00  0.27821387140E+03  0.27821387140E+03  0.00000000000E+00 0.  1.
         21   -1    0    0  502  503 -0.00000000000E+00 -0.00000000000E+00 -0.18573251169E+03  0.18573251169E+03  0.00000000000E+00 0.  1.
         -6    2    1    2    0  503 -0.96672749970E+02  0.28258751523E+02 -0.64710752299E+02  0.21087583609E+03  0.17359999758E+03 0.  0.
        -24    2    3    3    0    0 -0.33051168929E+02 -0.49281299119E+02 -0.25142067971E+02  0.10295023298E+03  0.80284498367E+02 0.  0.
          6    2    1    2  501    0  0.96672749970E+02 -0.28258751523E+02  0.15719211201E+03  0.25307054700E+03  0.17085421873E+03 0.  0.
         24    2    5    5    0    0  0.92926643806E+02 -0.79375283803E+02  0.11761162253E+03  0.18814259977E+03  0.81420803773E+02 0.  0.
          5    1    5    5  501    0  0.37461061632E+01  0.51116532280E+02  0.39580489480E+02  0.64927947228E+02  0.47000000000E+01 0. -1.
        -13    1    6    6    0    0  0.56194527120E+02 -0.91856393489E+02  0.80395377393E+02  0.13438317830E+03  0.00000000000E+00 0.  1.
         14    1    6    6    0    0  0.36732116686E+02  0.12481109686E+02  0.37216245137E+02  0.53759421475E+02  0.00000000000E+00 0. -1.
         -5    1    3    3    0  503 -0.63621581040E+02  0.77540050642E+02 -0.39568684327E+02  0.10792560311E+03  0.47000000000E+01 0.  1.
         11    1    4    4    0    0 -0.58548399454E+02 -0.44237225610E+02 -0.22855626824E+02  0.76858486102E+02  0.00000000000E+00 0. -1.
        -12    1    4    4    0    0  0.25497230524E+02 -0.50440735087E+01 -0.22864411466E+01  0.26091746877E+02  0.00000000000E+00 0.  1.
</event>
<event>
12    1  0.8421768E-002  0.2682539E+03  0.7818608E-02  0.1102710E+00
         21   -1    0    0  501  502  0.00000000000E+00  0.00000000000E+00  0.43776524833E+03  0.43776524833E+03  0.00000000000E+00 0. -1.
         21   -1    0    0  502  503 -0.00000000000E+00 -0.00000000000E+00 -0.23769909900E+03  0.23769909900E+03  0.00000000000E+00 0. -1.
         -6    2    1    2    0  503 -0.53865820189E+01 -0.20568928857E+03 -0.89445749411E+02  0.28277318486E+03  0.17211343146E+03 0.  0.
        -24    2    3    3    0    0 -0.14278365361E+02 -0.22893767827E+03 -0.82431322016E+02  0.25648928054E+03  0.79846702694E+02 0.  0.
          6    2    1    2  501    0  0.53865820189E+01  0.20568928857E+03  0.28951189874E+03  0.39269116248E+03  0.16748764395E+03 0.  0.
         24    2    5    5    0    0 -0.46257565455E+02  0.95348858408E+02  0.20605148980E+03  0.24494185332E+03  0.79423723747E+02 0.  0.
          5    1    5    5  501    0  0.51644147474E+02  0.11034043016E+03  0.83460408937E+02  0.14774930916E+03  0.47000000000E+01 0. -1.
        -11    1    6    6    0    0 -0.11591228855E+02  0.18938080208E+02 -0.27622477223E+00  0.22205489602E+02  0.00000000000E+00 0.  1.
         12    1    6    6    0    0 -0.34666336600E+02  0.76410778201E+02  0.20632771458E+03  0.22273636371E+03  0.00000000000E+00 0. -1.
         -5    1    3    3    0  503  0.88917833420E+01  0.23248389702E+02 -0.70144273955E+01  0.26283904322E+02  0.47000000000E+01 0.  1.
         11    1    4    4    0    0 -0.14884223204E+02 -0.46405766889E+01  0.40310480477E+01  0.16103552426E+02  0.00000000000E+00 0. -1.
        -12    1    4    4    0    0  0.60585784277E+00 -0.22429710159E+03 -0.86462370064E+02  0.24038572811E+03  0.00000000000E+00 0.  1.
</event>
<event>
12    1  0.8421768E-002  0.1763755E+03  0.7818608E-02  0.1171878E+00
         21   -1    0    0  501  502  0.00000000000E+00  0.00000000000E+00  0.23690094736E+03  0.23690094736E+03  0.00000000000E+00 0.  1.
         21   -1    0    0  502  503 -0.00000000000E+00 -0.00000000000E+00 -0.29758206926E+03  0.29758206926E+03  0.00000000000E+00 0.  1.
         -6    2    1    2    0  503 -0.22094649767E+02 -0.23231560053E+02 -0.23110246455E+03  0.29071750464E+03  0.17343713400E+03 0.  0.
        -24    2    3    3    0    0 -0.69178731670E+02 -0.46991498688E+02 -0.19403333409E+03  0.22608271613E+03  0.80439803146E+02 0.  0.
          6    2    1    2  501    0  0.22094649767E+02  0.23231560053E+02  0.17042134266E+03  0.24376551198E+03  0.17131932718E+03 0.  0.
         24    2    5    5    0    0  0.54764655921E+02 -0.23232978167E+02  0.53580180276E+02  0.11376462797E+03  0.80824600506E+02 0.  0.
          5    1    5    5  501    0 -0.32670006154E+02  0.46464538220E+02  0.11684116239E+03  0.13000088400E+03  0.47000000000E+01 0. -1.
        -13    1    6    6    0    0  0.33452350690E+02  0.18501261132E+02  0.54884425175E+02  0.66885398683E+02  0.00000000000E+00 0.  1.
         14    1    6    6    0    0  0.21312305231E+02 -0.41734239299E+02 -0.13042448995E+01  0.46879229291E+02  0.00000000000E+00 0. -1.
         -5    1    3    3    0  503  0.47084081903E+02  0.23759938635E+02 -0.37069130469E+02  0.64634788515E+02  0.47000000000E+01 0.  1.
         11    1    4    4    0    0 -0.16739770611E+02 -0.37815559954E+02 -0.23789057679E+02  0.47709074189E+02  0.00000000000E+00 0. -1.
        -12    1    4    4    0    0 -0.52438961059E+02 -0.91759387336E+01 -0.17024427641E+03  0.17837364194E+03  0.00000000000E+00 0.  1.
</event>
<event>
12    1  0.8421768E-002  0.1931050E+03  0.7818608E-02  0.1158334E+00
         21   -1    0    0  501  502  0.00000000000E+00  0.00000000000E+00  0.20636774337E+04  0.20636774337E+04  0.00000000000E+00 0. -1.
         21   -1    0    0  502  503 -0.00000000000E+00 -0.00000000000E+00 -0.22440057900E+02  0.22440057900E+02  0.00000000000E+00 0. -1.
         -6    2    1    2    0  503 -0.36939710833E+02  0.29695481285E+02  0.53123201719E+03  0.56524066056E+03  0.18719824898E+03 0.  0.
        -24    2    3    3    0    0 -0.96932566860E+02  0.60849858822E+01  0.30010019208E+03  0.32523939214E+03  0.79294308377E+02 0.  0.
          6    2    1    2  501    0  0.36939710833E+02 -0.29695481285E+02  0.15100053586E+04  0.15208768311E+04  0.17522496485E+03 0.  0.
         24    2    5    5    0    0 -0.25792164696E+02 -0.61116895040E+02  0.67407606192E+03  0.68199515135E+03  0.79613683439E+02 0.  0.
          5    1    5    5  501    0  0.62731875529E+02  0.31421413755E+02  0.83592929672E+03  0.83888167972E+03  0.47000000000E+01 0. -1.
        -11    1    6    6    0    0 -0.23654553783E+02  0.10696400372E+02  0.29723515623E+03  0.29836670222E+03  0.00000000000E+00 0.  1.
         12    1    6    6    0    0 -0.21376109133E+01 -0.71813295412E+02  0.37684090569E+03  0.38362844913E+03  0.00000000000E+00 0. -1.
         -5    1    3    3    0  503  0.59992856026E+02  0.23610495403E+02  0.23113182510E+03  0.24000126842E+03  0.47000000000E+01 0.  1.
         13    1    4    4    0    0 -0.10607573409E+03 -0.61761083214E-01  0.21837584875E+03  0.24277577411E+03  0.00000000000E+00 0. -1.
        -14    1    4    4    0    0  0.91431672355E+01  0.61467469654E+01  0.81724343330E+02  0.82463618026E+02  0.00000000000E+00 0.  1.
</event>
<event>
12    1  0.8421768E-002  0.1899732E+03  0.7818608E-02  0.1159258E+00
         21   -1    0    0  501  502  0.00000000000E+00  0.00000000000E+00  0.93472527081E+02  0.93472527081E+02  0.00000000000E+00 0. -1.
         21   -1    0    0  502  503 -0.00000000000E+00 -0.00000000000E+00 -0.37925006002E+03  0.37925006002E+03  0.00000000000E+00 0.  1.
         -6    2    1    2    0  503 -0.12895897179E+02 -0.71718272705E+02 -0.14263541329E+03  0.23755983840E+03  0.17544230075E+03 0.  0.
        -24    2    3    3    0    0 -0.55737317561E+02 -0.28821274872E+02 -0.22310886416E+02  0.10274284582E+03  0.78236834416E+02 0.  0.
          6    2    1    2  501    0  0.12895897179E+02  0.71718272705E+02 -0.14314211965E+03  0.23516274869E+03  0.17176157065E+03 0.  0.
         24    2    5    5    0    0  0.54761074361E+02  0.33550975733E+02 -0.50956691524E+02  0.12685910713E+03  0.96810151388E+02 0.  0.
          5    1    5    5  501    0 -0.41865177182E+02  0.38167296973E+02 -0.92185428124E+02  0.10830364157E+03  0.47000000000E+01 0. -1.
        -13    1    6    6    0    0  0.21685646417E+02  0.37880648874E+02 -0.74280823933E+02  0.86155972653E+02  0.00000000000E+00 0.  1.
         14    1    6    6    0    0  0.33075427945E+02 -0.43296731414E+01  0.23324132409E+02  0.40703134472E+02  0.00000000000E+00 0. -1.
         -5    1    3    3    0  503  0.42841420382E+02 -0.42896997833E+02 -0.12032452687E+03  0.13481699259E+03  0.47000000000E+01 0.  1.
         13    1    4    4    0    0 -0.50765506160E+02  0.11763330628E+02 -0.31423269386E+02  0.60851741323E+02  0.00000000000E+00 0. -1.
        -14    1    4    4    0    0 -0.49718114009E+01 -0.40584605500E+02  0.91123829694E+01  0.41891104493E+02  0.00000000000E+00 0.  1.
</event>
<event>
12    1  0.8421768E-002  0.1810305E+03  0.7818608E-02  0.1166916E+00
         21   -1    0    0  503  502  0.00000000000E+00  0.00000000000E+00  0.15863188768E+03  0.15863188768E+03  0.00000000000E+00 0.  1.
         21   -1    0    0  501  503 -0.00000000000E+00 -0.00000000000E+00 -0.65534140456E+03  0.65534140456E+03  0.00000000000E+00 0.  1.
          6    2    1    2  501    0 -0.56143756232E+01  0.56039186340E+02 -0.58522984041E+03  0.61245933765E+03  0.17158252401E+03 0.  0.
         24    2    3    3    0    0  0.17568573026E+02 -0.14174580957E+02 -0.45539204029E+03  0.46296898155E+03  0.80304383527E+02 0.  0.
         -6    2    1    2    0  502  0.56143756232E+01 -0.56039186340E+02  0.88520323530E+02  0.20151395459E+03  0.17204683838E+03 0.  0.
        -24    2    5    5    0    0  0.31486977693E+01 -0.79748986500E+02  0.11740888643E+03  0.16376646120E+03  0.81638177683E+02 0.  0.
          5    1    3    3  501    0 -0.23182948649E+02  0.70213767297E+02 -0.12983780013E+03  0.14949035610E+03  0.47000000000E+01 0. -1.
        -13    1    4    4    0    0  0.30794679671E+02  0.25545545468E+02 -0.26701559537E+03  0.26999669509E+03  0.00000000000E+00 0.  1.
         14    1    4    4    0    0 -0.13226106644E+02 -0.39720126425E+02 -0.18837644492E+03  0.19297228646E+03  0.00000000000E+00 0. -1.
         -5    1    5    5    0  502  0.24656778539E+01  0.23709800160E+02 -0.28888562898E+02  0.37747493390E+02  0.47000000000E+01 0.  1.
         13    1    6    6    0    0  0.29024730922E+02 -0.30711935142E+00  0.19084325654E+02  0.34738175154E+02  0.00000000000E+00 0. -1.
        -14    1    6    6    0    0 -0.25876033153E+02 -0.79441867149E+02  0.98324560773E+02  0.12902828604E+03  0.00000000000E+00 0.  1.
</event>
<event>
12    1  0.8421768E-002  0.1785274E+03  0.7818608E-02  0.1169695E+00
         21   -1    0    0  503  502  0.00000000000E+00  0.00000000000E+00  0.10972183159E+03  0.10972183159E+03  0.00000000000E+00 0. -1.
         21   -1    0    0  501  503 -0.00000000000E+00 -0.00000000000E+00 -0.37231466586E+03  0.37231466586E+03  0.00000000000E+00 0. -1.
          6    2    1    2  501    0  0.32489210842E+02  0.13199931574E+02 -0.16763284347E+02  0.17931272368E+03  0.17504930208E+03 0.  0.
         24    2    3    3    0    0 -0.31069583069E+01  0.72679807425E+02  0.28056225017E+01  0.10713256710E+03  0.78597123471E+02 0.  0.
         -6    2    1    2    0  502 -0.32489210842E+02 -0.13199931574E+02 -0.24582954992E+03  0.30272377377E+03  0.17314655231E+03 0.  0.
        -24    2    5    5    0    0  0.38597017517E+02  0.20061620460E+02 -0.17343637068E+03  0.19584793409E+03  0.79900189217E+02 0.  0.
          5    1    3    3  501    0  0.35596169149E+02 -0.59479875851E+02 -0.19568906849E+02  0.72180156584E+02  0.47000000000E+01 0. -1.
        -13    1    4    4    0    0  0.35443505175E+02  0.45077402660E+02 -0.95570926196E+01  0.58133917027E+02  0.00000000000E+00 0.  1.
         14    1    4    4    0    0 -0.38550463482E+02  0.27602404765E+02  0.12362715121E+02  0.48998650070E+02  0.00000000000E+00 0. -1.
         -5    1    5    5    0  502 -0.71086228359E+02 -0.33261552034E+02 -0.72393179246E+02  0.10687583968E+03  0.47000000000E+01 0.  1.
         13    1    6    6    0    0 -0.10215563966E+02  0.36055634107E+02 -0.52954647784E+02  0.64873424605E+02  0.00000000000E+00 0. -1.
        -14    1    6    6    0    0  0.48812581484E+02 -0.15994013647E+02 -0.12048172289E+03  0.13097450948E+03  0.00000000000E+00 0.  1.
</event>
<event>
12    1  0.8421768E-002  0.1737106E+03  0.7818608E-02  0.1174447E+00
         21   -1    0    0  501  502  0.00000000000E+00  0.00000000000E+00  0.11907832181E+03  0.11907832181E+03  0.00000000000E+00 0.  1.
         21   -1    0    0  502  503 -0.00000000000E+00 -0.00000000000E+00 -0.61631101277E+03  0.61631101277E+03  0.00000000000E+00 0.  1.
         -6    2    1    2    0  503 -0.68087820328E+01  0.83412851491E+01 -0.53216345147E+03  0.55979757737E+03  0.17337661896E+03 0.  0.
        -24    2    3    3    0    0  0.10490060734E+02  0.10188259954E+01 -0.10276814552E+03  0.12996588107E+03  0.78859109364E+02 0.  0.
          6    2    1    2  501    0  0.68087820328E+01 -0.83412851491E+01  0.34930760505E+02  0.17559175721E+03  0.17174507452E+03 0.  0.
         24    2    5    5    0    0  0.48801529439E+02 -0.52553046366E+02  0.39457267469E+02  0.11426761898E+03  0.79729548059E+02 0.  0.
          5    1    5    5  501    0 -0.41992747406E+02  0.44211761217E+02 -0.45265069639E+01  0.61324138232E+02  0.47000000000E+01 0. -1.
        -13    1    6    6    0    0  0.43767016772E+02 -0.73251666586E+02  0.26575504720E+02  0.89373462873E+02  0.00000000000E+00 0.  1.
         14    1    6    6    0    0  0.50345126665E+01  0.20698620220E+02  0.12881762749E+02  0.24894156108E+02  0.00000000000E+00 0. -1.
         -5    1    3    3    0  503 -0.17298842766E+02  0.73224591537E+01 -0.42939530595E+03  0.42983169630E+03  0.47000000000E+01 0.  1.
         11    1    4    4    0    0 -0.31175505141E+02  0.76400048401E+01 -0.68376847370E+02  0.75535918946E+02  0.00000000000E+00 0. -1.
        -12    1    4    4    0    0  0.41665565875E+02 -0.66211788447E+01 -0.34391298147E+02  0.54429962128E+02  0.00000000000E+00 0.  1.
</event>
<event>
12    1  0.8421768E-002  0.2189840E+03  0.7818608E-02  0.1134828E+00
         21   -1    0    0  501  502  0.00000000000E+00  0.00000000000E+00  0.57273670834E+03  0.57273670834E+03  0.00000000000E+00 0. -1.
         21   -1    0    0  502  503 -0.00000000000E+00 -0.00000000000E+00 -0.83816060951E+02  0.83816060951E+02  0.00000000000E+00 0. -1.
         -6    2    1    2    0  503  0.11558878891E+03  0.68726001202E+02  0.26946023248E+03  0.34722154164E+03  0.17282925309E+03 0.  0.
        -24    2    3    3    0    0  0.12234648972E+03  0.88755106683E+00  0.21600888267E+03  0.26046407145E+03  0.78817788776E+02 0.  0.
          6    2    1    2  501    0 -0.11558878891E+03 -0.68726001202E+02  0.21946041490E+03  0.30933122765E+03  0.17157768890E+03 0.  0.
         24    2    5    5    0    0 -0.84435029171E+02 -0.64400297809E+01  0.53053698213E+02  0.12887795298E+03  0.81388474212E+02 0.  0.
          5    1    5    5  501    0 -0.31153759743E+02 -0.62285971421E+02  0.16640671669E+03  0.18045327468E+03  0.47000000000E+01 0. -1.
        -13    1    6    6    0    0 -0.59135295538E+01  0.29078146603E+02  0.46538255225E+01  0.30036087189E+02  0.00000000000E+00 0.  1.
         14    1    6    6    0    0 -0.78521499617E+02 -0.35518176384E+02  0.48399872690E+02  0.98841865786E+02  0.00000000000E+00 0. -1.
         -5    1    3    3    0  503 -0.67577008077E+01  0.67838450135E+02  0.53451349815E+02  0.86757470191E+02  0.47000000000E+01 0.  1.
         13    1    4    4    0    0  0.96157489043E+02  0.35032639648E+02  0.15766211824E+03  0.18796513524E+03  0.00000000000E+00 0. -1.
        -14    1    4    4    0    0  0.26189000678E+02 -0.34145088581E+02  0.58346764430E+02  0.72498936201E+02  0.00000000000E+00 0.  1.
</event>
<event>
12    1  0.8421768E-002  0.1833717E+03  0.7818608E-02  0.1165033E+00
         21   -1    0    0  501  502  0.00000000000E+00  0.00000000000E+00  0.16418941385E+04  0.16418941385E+04  0.00000000000E+00 0. -1.
         21   -1    0    0  502  503 -0.00000000000E+00 -0.00000000000E+00 -0.20405221351E+02  0.20405221351E+02  0.00000000000E+00 0. -1.
         -6    2    1    2    0  503 -0.29332782053E+02  0.53102201086E+02  0.87502635172E+03  0.89364367852E+03  0.17101944944E+03 0.  0.
        -24    2    3    3    0    0  0.11691830304E+02 -0.17060598247E+02  0.24216168798E+03  0.25556405195E+03  0.79012268768E+02 0.  0.
          6    2    1    2  501    0  0.29332782053E+02 -0.53102201086E+02  0.74646256540E+03  0.76865568130E+03  0.17304606033E+03 0.  0.
         24    2    5    5    0    0 -0.62299615869E+01  0.17835515736E+02  0.18394942826E+03  0.20055358849E+03  0.77636535579E+02 0.  0.
          5    1    5    5  501    0  0.35562743640E+02 -0.70937716822E+02  0.56251313714E+03  0.56810209281E+03  0.47000000000E+01 0. -1.
        -11    1    6    6    0    0 -0.20761251004E+02 -0.12610307379E+02  0.15253214482E+03  0.15445421522E+03  0.00000000000E+00 0.  1.
         12    1    6    6    0    0  0.14531289417E+02  0.30445823115E+02  0.31417283437E+02  0.46099373269E+02  0.00000000000E+00 0. -1.
         -5    1    3    3    0  503 -0.41024612357E+02  0.70162799332E+02  0.63286466374E+03  0.63807962656E+03  0.47000000000E+01 0.  1.
         13    1    4    4    0    0 -0.14890618772E+02  0.75332688295E+01  0.77996144920E+01  0.18420495458E+02  0.00000000000E+00 0. -1.
        -14    1    4    4    0    0  0.26582449077E+02 -0.24593867076E+02  0.23436207349E+03  0.23714355650E+03  0.00000000000E+00 0.  1.
</event>
<event>
12    1  0.8421768E-002  0.1980287E+03  0.7818608E-02  0.1152551E+00
         21   -1    0    0  501  502  0.00000000000E+00  0.00000000000E+00  0.95446246680E+02  0.95446246680E+02  0.00000000000E+00 0. -1.
         21   -1    0    0  502  503 -0.00000000000E+00 -0.00000000000E+00 -0.50168795164E+03  0.50168795164E+03  0.00000000000E+00 0.  1.
         -6    2    1    2    0  503 -0.48120665945E+02  0.80248346073E+02 -0.66560799463E+02  0.20394405254E+03  0.16854507114E+03 0.  0.
        -24    2    3    3    0    0 -0.43110489719E+02  0.12491883523E+03 -0.62769677333E+02  0.15858970243E+03  0.61216269124E+02 0.  0.
          6    2    1    2  501    0  0.48120665945E+02 -0.80248346073E+02 -0.33968090550E+03  0.39319014578E+03  0.17452787066E+03 0.  0.
         24    2    5    5    0    0  0.99875630685E+02 -0.48578775275E+02 -0.24113783456E+03  0.27736974636E+03  0.80321117587E+02 0.  0.
          5    1    5    5  501    0 -0.51754964741E+02 -0.31669570798E+02 -0.98543070940E+02  0.11582039941E+03  0.47000000000E+01 0. -1.
        -13    1    6    6    0    0  0.58099990910E+02 -0.30739311153E+02 -0.21530032009E+03  0.22511051070E+03  0.00000000000E+00 0.  1.
         14    1    6    6    0    0  0.41775639776E+02 -0.17839464122E+02 -0.25837514466E+02  0.52259235668E+02  0.00000000000E+00 0. -1.
         -5    1    3    3    0  503 -0.50101762255E+01 -0.44670489156E+02 -0.37911221300E+01  0.45354350114E+02  0.47000000000E+01 0.  1.
         13    1    4    4    0    0  0.71966913314E+01  0.36116937167E+02  0.33549027740E+01  0.36979465776E+02  0.00000000000E+00 0. -1.
        -14    1    4    4    0    0 -0.50307181050E+02  0.88801898063E+02 -0.66124580107E+02  0.12161023665E+03  0.00000000000E+00 0.  1.
</event>
<event>
12    1  0.8421768E-002  0.3789907E+03  0.7818608E-02  0.1051428E+00
         21   -1    0    0  503  502  0.00000000000E+00  0.00000000000E+00  0.77109266102E+02  0.77109266102E+02  0.00000000000E+00 0. -1.
         21   -1    0    0  501  503 -0.00000000000E+00 -0.00000000000E+00 -0.20109166207E+04  0.20109166207E+04  0.00000000000E+00 0.  1.
          6    2    1    2  501    0 -0.20700255240E+02 -0.33621504059E+03 -0.67900207814E+03  0.77761029337E+03  0.17368043114E+03 0.  0.
         24    2    3    3    0    0 -0.14735192113E+01 -0.71484425381E+02 -0.25805606044E+03  0.27994614375E+03  0.81637728651E+02 0.  0.
         -6    2    1    2    0  502  0.20700255240E+02  0.33621504059E+03 -0.12548052764E+04  0.13104155934E+04  0.17083234935E+03 0.  0.
        -24    2    5    5    0    0 -0.42626301630E+02  0.14578874804E+03 -0.45863115400E+03  0.48932622620E+03  0.77628986746E+02 0.  0.
          5    1    3    3  501    0 -0.19226736029E+02 -0.26473061520E+03 -0.42094601769E+03  0.49766414962E+03  0.47000000000E+01 0. -1.
        -11    1    4    4    0    0 -0.31330197373E+02 -0.58321989090E+02 -0.11041129431E+03  0.12873884259E+03  0.00000000000E+00 0.  1.
         12    1    4    4    0    0  0.29856678162E+02 -0.13162436292E+02 -0.14764476613E+03  0.15120730117E+03  0.00000000000E+00 0. -1.
         -5    1    5    5    0  502  0.63326556870E+02  0.19042629254E+03 -0.79617412243E+03  0.82108936720E+03  0.47000000000E+01 0.  1.
         13    1    6    6    0    0 -0.20258550809E+01  0.75382292711E+01  0.78430397491E+00  0.78450061873E+01  0.00000000000E+00 0. -1.
        -14    1    6    6    0    0 -0.40600446549E+02  0.13825051877E+03 -0.45941545797E+03  0.48148122001E+03  0.00000000000E+00 0.  1.
</event>
<event>
12    1  0.8421768E-002  0.1735925E+03  0.7818608E-02  0.1174216E+00
         21   -1    0    0  503  502  0.00000000000E+00  0.00000000000E+00  0.21601629962E+03  0.21601629962E+03  0.00000000000E+00 0.  1.
         21   -1    0    0  501  503 -0.00000000000E+00 -0.00000000000E+00 -0.14349243385E+03  0.14349243385E+03  0.00000000000E+00 0.  1.
          6    2    1    2  501    0 -0.44806404325E+01 -0.10015093598E+02  0.55572142370E+01  0.17368145178E+03  0.17324544965E+03 0.  0.
         24    2    3    3    0    0 -0.10458105541E+02  0.94732838251E+01  0.71279188377E+02  0.10471048087E+03  0.75395271934E+02 0.  0.
         -6    2    1    2    0  502  0.44806404325E+01  0.10015093598E+02  0.66966651534E+02  0.18582728169E+03  0.17299383794E+03 0.  0.
        -24    2    5    5    0    0  0.23293540129E+02 -0.59360135920E+02  0.43209163082E+02  0.10997640218E+03  0.78495620983E+02 0.  0.
          5    1    3    3  501    0  0.59774651086E+01 -0.19488377423E+02 -0.65721974140E+02  0.68970970913E+02  0.47000000000E+01 0. -1.
        -13    1    4    4    0    0  0.11680584330E+02 -0.18474319648E+02 -0.32449018735E+01  0.22096740142E+02  0.00000000000E+00 0.  1.
         14    1    4    4    0    0 -0.22138689871E+02  0.27947603473E+02  0.74524090251E+02  0.82613740726E+02  0.00000000000E+00 0. -1.
         -5    1    5    5    0  502 -0.18812899696E+02  0.69375229519E+02  0.23757488452E+02  0.75850879516E+02  0.47000000000E+01 0.  1.
         13    1    6    6    0    0  0.39177066227E+02 -0.18458651071E+01  0.28616833234E+02  0.48550724820E+02  0.00000000000E+00 0. -1.
        -14    1    6    6    0    0 -0.15883526099E+02 -0.57514270813E+02  0.14592329848E+02  0.61425677358E+02  0.00000000000E+00 0.  1.
</event>
<event>
12    1  0.8421768E-002  0.2005838E+03  0.7818608E-02  0.1152750E+00
         21   -1    0    0  503  502  0.00000000000E+00  0.00000000000E+00  0.11952789487E+03  0.11952789487E+03  0.00000000000E+00 0. -1.
         21   -1    0    0  501  503 -0.00000000000E+00 -0.00000000000E+00 -0.53649915720E+03  0.53649915720E+03  0.00000000000E+00 0. -1.
          6    2    1    2  501    0 -0.55504493977E+02 -0.36665035208E+02 -0.41633788307E+03  0.45544220608E+03  0.17223616502E+03 0.  0.
         24    2    3    3    0    0 -0.74543095113E+02 -0.50601932654E+02 -0.16900565715E+03  0.20694265794E+03  0.78390834361E+02 0.  0.
         -6    2    1    2    0  502  0.55504493977E+02  0.36665035208E+02 -0.63337924831E+00  0.20058484599E+03  0.18923214741E+03 0.  0.
        -24    2    5    5    0    0  0.84355779596E+01  0.71459790261E+02  0.55439647329E+02  0.11939105224E+03  0.77479082715E+02 0.  0.
          5    1    3    3  501    0  0.19038601136E+02  0.13936897445E+02 -0.24733222593E+03  0.24849954814E+03  0.47000000000E+01 0. -1.
        -11    1    4    4    0    0  0.14990532530E+02 -0.15304236196E+02 -0.18541855372E+02  0.28332598040E+02  0.00000000000E+00 0.  1.
         12    1    4    4    0    0 -0.89533627643E+02 -0.35297696458E+02 -0.15046380177E+03  0.17861005990E+03  0.00000000000E+00 0. -1.
         -5    1    5    5    0  502  0.47068916018E+02 -0.34794755052E+02 -0.56073026577E+02  0.81193793752E+02  0.47000000000E+01 0.  1.
         11    1    6    6    0    0  0.27451558391E+02  0.77405437456E+02  0.30824631553E+02  0.87723131022E+02  0.00000000000E+00 0. -1.
        -12    1    6    6    0    0 -0.19015980432E+02 -0.59456471955E+01  0.24615015776E+02  0.31667921214E+02  0.00000000000E+00 0.  1.
</event>
<event>
12    1  0.8421768E-002  0.2166283E+03  0.7818608E-02  0.1136654E+00
         21   -1    0    0  503  502  0.00000000000E+00  0.00000000000E+00  0.20076480176E+03  0.20076480176E+03  0.00000000000E+00 0.  1.
         21   -1    0    0  501  503 -0.00000000000E+00 -0.00000000000E+00 -0.38398207113E+03  0.38398207113E+03  0.00000000000E+00 0.  1.
          6    2    1    2  501    0 -0.58745572980E+02  0.11670772261E+03 -0.27544382684E+03  0.35042419776E+03  0.17278912516E+03 0.  0.
         24    2    3    3    0    0  0.21190648318E+02  0.50202812018E+02 -0.19916489228E+03  0.22137665434E+03  0.79822320537E+02 0.  0.
         -6    2    1    2    0  502  0.58745572980E+02 -0.11670772261E+03  0.92226557466E+02  0.23432267513E+03  0.17125899485E+03 0.  0.
        -24    2    5    5    0    0  0.86519071899E+02 -0.13210572332E+03  0.55461768594E+02  0.18551483387E+03  0.80014210441E+02 0.  0.
          5    1    3    3  501    0 -0.79936221298E+02  0.66504910593E+02 -0.76278934554E+02  0.12904754343E+03  0.47000000000E+01 0. -1.
        -13    1    4    4    0    0 -0.25414427118E+02 -0.27001050013E+01 -0.64343285203E+02  0.69233243630E+02  0.00000000000E+00 0.  1.
         14    1    4    4    0    0  0.46605075436E+02  0.52902917020E+02 -0.13482160708E+03  0.15214341071E+03  0.00000000000E+00 0. -1.
         -5    1    5    5    0  502 -0.27773498919E+02  0.15398000712E+02  0.36764788872E+02  0.48807841265E+02  0.47000000000E+01 0.  1.
         11    1    6    6    0    0  0.53615789679E+02 -0.23577121927E+02 -0.15348192540E+01  0.58590863207E+02  0.00000000000E+00 0. -1.
        -12    1    6    6    0    0  0.32903282220E+02 -0.10852860140E+03  0.56996587848E+02  0.12692397066E+03  0.00000000000E+00 0.  1.
</event>
<event>
12    1  0.8421768E-002  0.2438364E+03  0.7818608E-02  0.1117350E+00
         21   -1    0    0  503  502  0.00000000000E+00  0.00000000000E+00  0.62006182768E+02  0.62006182768E+02  0.00000000000E+00 0. -1.
         21   -1    0    0  501  503 -0.00000000000E+00 -0.00000000000E+00 -0.11974439249E+04  0.11974439249E+04  0.00000000000E+00 0. -1.
          6    2    1    2  501    0  0.15219497842E+03 -0.80541610240E+02 -0.28590316720E+03  0.37576166834E+03  0.17264399191E+03 0.  0.
         24    2    3    3    0    0  0.65981978048E+02 -0.10309070198E+03 -0.21831881364E+03  0.26382026484E+03  0.83406915124E+02 0.  0.
         -6    2    1    2    0  502 -0.15219497842E+03  0.80541610240E+02 -0.84953457498E+03  0.88368843937E+03  0.17188950334E+03 0.  0.
        -24    2    5    5    0    0 -0.26831497229E+02  0.59765277436E+02 -0.51620049826E+03  0.52692331338E+03  0.83026538825E+02 0.  0.
          5    1    3    3  501    0  0.86213000375E+02  0.22549091739E+02 -0.67584353565E+02  0.11194140351E+03  0.47000000000E+01 0. -1.
        -13    1    4    4    0    0  0.42209233188E+01  0.39296798472E+01 -0.72331561388E+02  0.72561100806E+02  0.00000000000E+00 0.  1.
         14    1    4    4    0    0  0.61761054729E+02 -0.10702038183E+03 -0.14598725225E+03  0.19125916403E+03  0.00000000000E+00 0. -1.
         -5    1    5    5    0  502 -0.12536348119E+03  0.20776332804E+02 -0.33333407672E+03  0.35676512599E+03  0.47000000000E+01 0.  1.
         13    1    6    6    0    0 -0.35009855510E+02 -0.76118268187E+01 -0.13209984214E+03  0.13687219653E+03  0.00000000000E+00 0. -1.
        -14    1    6    6    0    0  0.81783582814E+01  0.67377104254E+02 -0.38410065612E+03  0.39005111685E+03  0.00000000000E+00 0.  1.
</event>
<event>
12    1  0.8421768E-002  0.2053567E+03  0.7818608E-02  0.1145405E+00
         21   -1    0    0  501  502  0.00000000000E+00  0.00000000000E+00  0.79544195942E+03  0.79544195942E+03  0.00000000000E+00 0.  1.
         21   -1    0    0  502  503 -0.00000000000E+00 -0.00000000000E+00 -0.75880131307E+02  0.75880131307E+02  0.00000000000E+00 0.  1.
         -6    2    1    2    0  503 -0.10606452610E+03  0.26147559864E+02  0.12024595119E+03  0.23797159230E+03  0.17389080303E+03 0.  0.
        -24    2    3    3    0    0 -0.65002417797E+02 -0.26619308172E+02  0.13236433279E+03  0.16985856657E+03  0.79985712205E+02 0.  0.
          6    2    1    2  501    0  0.10606452610E+03 -0.26147559864E+02  0.59931587692E+03  0.63335049844E+03  0.17326267617E+03 0.  0.
         24    2    5    5    0    0  0.10559163157E+03  0.35661486317E+02  0.47320492692E+03  0.49282774750E+03  0.80839047399E+02 0.  0.
          5    1    5    5  501    0  0.47289452672E+00 -0.61809046180E+02  0.12611095000E+03  0.14052275093E+03  0.47000000000E+01 0. -1.
        -11    1    6    6    0    0  0.11909735564E+03  0.28892063054E+02  0.42401667860E+03  0.44137181056E+03  0.00000000000E+00 0.  1.
         12    1    6    6    0    0 -0.13505724066E+02  0.67694232623E+01  0.49188248320E+02  0.51455936942E+02  0.00000000000E+00 0. -1.
         -5    1    3    3    0  503 -0.41062108301E+02  0.52766868036E+02 -0.12118381595E+02  0.68113025721E+02  0.47000000000E+01 0.  1.
         11    1    4    4    0    0 -0.12078292174E+02  0.26570139430E+02  0.53880377590E+02  0.61277667550E+02  0.00000000000E+00 0. -1.
        -12    1    4    4    0    0 -0.52924125623E+02 -0.53189447602E+02  0.78483955200E+02  0.10858089902E+03  0.00000000000E+00 0.  1.
</event>
<event>
12    1  0.8421768E-002  0.1939061E+03  0.7818608E-02  0.1155245E+00
         21   -1    0    0  503  502  0.00000000000E+00  0.00000000000E+00  0.98110707179E+02  0.98110707179E+02  0.00000000000E+00 0. -1.
         21   -1    0    0  501  503 -0.00000000000E+00 -0.00000000000E+00 -0.47739758435E+03  0.47739758435E+03  0.00000000000E+00 0. -1.
          6    2    1    2  501    0  0.24895039298E+02 -0.88024291998E+02 -0.31854954477E+03  0.37231229809E+03  0.16963076335E+03 0.  0.
         24    2    3    3    0    0 -0.12772319673E+02 -0.84683158437E+02 -0.11856187688E+03  0.16872656575E+03  0.84127081656E+02 0.  0.
         -6    2    1    2    0  502 -0.24895039298E+02  0.88024291998E+02 -0.60737332399E+02  0.20319599343E+03  0.17097236396E+03 0.  0.
        -24    2    5    5    0    0 -0.56631446999E+02  0.88644680922E+02 -0.91056370943E+02  0.15904943576E+03  0.77074380187E+02 0.  0.
          5    1    3    3  501    0  0.37667358971E+02 -0.33411335616E+01 -0.19998766789E+03  0.20358573234E+03  0.47000000000E+01 0. -1.
        -13    1    4    4    0    0 -0.55582247871E+01 -0.10037890393E+03 -0.11131772203E+03  0.14999484476E+03  0.00000000000E+00 0.  1.
         14    1    4    4    0    0 -0.72140948864E+01  0.15695745496E+02 -0.72441548543E+01  0.18731720991E+02  0.00000000000E+00 0. -1.
         -5    1    5    5    0  502  0.31736407701E+02 -0.62038892391E+00  0.30319038545E+02  0.44146557674E+02  0.47000000000E+01 0.  1.
         13    1    6    6    0    0 -0.34042892034E+02 -0.93281405907E+00 -0.43196110110E+02  0.55006295719E+02  0.00000000000E+00 0. -1.
        -14    1    6    6    0    0 -0.22588554965E+02  0.89577494981E+02 -0.47860260834E+02  0.10404314004E+03  0.00000000000E+00 0.  1.
</event>
<event>
12    1  0.8421768E-002  0.2091271E+03  0.7818608E-02  0.1142402E+00
         21   -1    0    0  503  502  0.00000000000E+00  0.00000000000E+00  0.22859231591E+03  0.22859231591E+03  0.00000000000E+00 0.  1.
         21   -1    0    0  501  503 -0.00000000000E+00 -0.00000000000E+00 -0.20290355256E+03  0.20290355256E+03  0.00000000000E+00 0.  1.
          6    2    1    2  501    0  0.11224998673E+03 -0.38673324071E+02 -0.40123975919E+02  0.21294149108E+03  0.17215824018E+03 0.  0.
         24    2    3    3    0    0  0.14551738386E+03 -0.48188648427E+02 -0.42309169944E+02  0.17795397641E+03  0.79875509498E+02 0.  0.
         -6    2    1    2    0  502 -0.11224998673E+03  0.38673324071E+02  0.65812739263E+02  0.21855437739E+03  0.17128635005E+03 0.  0.
        -24    2    5    5    0    0 -0.37958005428E+02 -0.37983012251E+02  0.54466986956E+02  0.11110062697E+03  0.80580253472E+02 0.  0.
          5    1    3    3  501    0 -0.33267397131E+02  0.95153243563E+01  0.21851940245E+01  0.34987514664E+02  0.47000000000E+01 0. -1.
        -13    1    4    4    0    0  0.11554368077E+03 -0.51029032045E+01 -0.94752489823E+01  0.11604379402E+03  0.00000000000E+00 0.  1.
         14    1    4    4    0    0  0.29973703086E+02 -0.43085745223E+02 -0.32833920962E+02  0.61910182392E+02  0.00000000000E+00 0. -1.
         -5    1    5    5    0  502 -0.74291981299E+02  0.76656336322E+02  0.11345752307E+02  0.10745375042E+03  0.47000000000E+01 0.  1.
         11    1    6    6    0    0  0.23753573090E+02 -0.21210325531E+02  0.25953796144E+02  0.41081743852E+02  0.00000000000E+00 0. -1.
        -12    1    6    6    0    0 -0.61711578518E+02 -0.16772686720E+02  0.28513190812E+02  0.70018883119E+02  0.00000000000E+00 0.  1.
</event>
<event>
12    1  0.8421768E-002  0.1810701E+03  0.7818608E-02  0.1167385E+00
         21   -1    0    0  503  502  0.00000000000E+00  0.00000000000E+00  0.28575529849E+03  0.28575529849E+03  0.00000000000E+00 0. -1.
         21   -1    0    0  501  503 -0.00000000000E+00 -0.00000000000E+00 -0.11720113952E+03  0.11720113952E+03  0.00000000000E+00 0. -1.
          6    2    1    2  501    0 -0.43677569395E+02  0.30506396424E+02  0.12123461814E+03  0.21580533933E+03  0.17039877216E+03 0.  0.
         24    2    3    3    0    0  0.33651462022E+02  0.33698434467E+02  0.96647442284E+02  0.13446293081E+03  0.80445921466E+02 0.  0.
         -6    2    1    2    0  502  0.43677569395E+02 -0.30506396424E+02  0.47319540830E+02  0.18715109869E+03  0.17305497538E+03 0.  0.
        -24    2    5    5    0    0 -0.14741146938E+02 -0.31615976331E+02  0.81552240810E+02  0.11926925035E+03  0.79734024891E+02 0.  0.
          5    1    3    3  501    0 -0.77329031417E+02 -0.31920380429E+01  0.24587175858E+02  0.81342408517E+02  0.47000000000E+01 0. -1.
        -11    1    4    4    0    0  0.55518870196E+02  0.63149664348E+01  0.43548802449E+02  0.70842938559E+02  0.00000000000E+00 0.  1.
         12    1    4    4    0    0 -0.21867408175E+02  0.27383468032E+02  0.53098639834E+02  0.63619992251E+02  0.00000000000E+00 0. -1.
         -5    1    5    5    0  502  0.58418716333E+02  0.11095799068E+01 -0.34232699980E+02  0.67881848336E+02  0.47000000000E+01 0.  1.
         13    1    6    6    0    0 -0.62385516063E+01 -0.57507025013E+02  0.43083602913E+02  0.72126099936E+02  0.00000000000E+00 0. -1.
        -14    1    6    6    0    0 -0.85025953322E+01  0.25891048682E+02  0.38468637898E+02  0.47143150414E+02  0.00000000000E+00 0.  1.
</event>
<event>
12    1  0.8421768E-002  0.2022628E+03  0.7818608E-02  0.1147915E+00
         21   -1    0    0  503  502  0.00000000000E+00  0.00000000000E+00  0.63111588078E+03  0.63111588078E+03  0.00000000000E+00 0. -1.
         21   -1    0    0  501  503 -0.00000000000E+00 -0.00000000000E+00 -0.65577590226E+02  0.65577590226E+02  0.00000000000E+00 0. -1.
          6    2    1    2  501    0 -0.10442085994E+03 -0.18339427990E+02  0.24252885498E+03  0.31558280716E+03  0.17184938774E+03 0.  0.
         24    2    3    3    0    0 -0.34493298184E+01 -0.39531832874E+02  0.15684199416E+03  0.18138632420E+03  0.82017826049E+02 0.  0.
         -6    2    1    2    0  502  0.10442085994E+03  0.18339427990E+02  0.32300943558E+03  0.38111066385E+03  0.17225037597E+03 0.  0.
        -24    2    5    5    0    0  0.12372604133E+02  0.31824101863E+02  0.24839829911E+03  0.26176398601E+03  0.75185201867E+02 0.  0.
          5    1    3    3  501    0 -0.10097153012E+03  0.21192404884E+02  0.85686860823E+02  0.13419648295E+03  0.47000000000E+01 0. -1.
        -11    1    4    4    0    0 -0.20217759514E+02 -0.49659471053E+02  0.15203949092E+03  0.16121671025E+03  0.00000000000E+00 0.  1.
         12    1    4    4    0    0  0.16768429695E+02  0.10127638179E+02  0.48025032352E+01  0.20169613949E+02  0.00000000000E+00 0. -1.
         -5    1    5    5    0  502  0.92048255805E+02 -0.13484673873E+02  0.74611136464E+02  0.11934667784E+03  0.47000000000E+01 0.  1.
         13    1    6    6    0    0 -0.14202833645E+02  0.42812463952E+02  0.20354768832E+03  0.20848570449E+03  0.00000000000E+00 0. -1.
        -14    1    6    6    0    0  0.26575437778E+02 -0.10988362088E+02  0.44850610789E+02  0.53278281528E+02  0.00000000000E+00 0.  1.
</event>
<event>
12    1  0.8421768E-002  0.1884018E+03  0.7818608E-02  0.1160004E+00
         21   -1    0    0  503  502  0.00000000000E+00  0.00000000000E+00  0.78164135284E+02  0.78164135284E+02  0.00000000000E+00 0.  1.
         21   -1    0    0  501  503 -0.00000000000E+00 -0.00000000000E+00 -0.49991557929E+03  0.49991557929E+03  0.00000000000E+00 0.  1.
          6    2    1    2  501    0  0.73837319526E+02  0.14234901679E+02 -0.12224654175E+03  0.22424582074E+03  0.17230028720E+03 0.  0.
         24    2    3    3    0    0  0.10970125985E+03  0.36835023421E+02 -0.68926738577E+02  0.15596640123E+03  0.78634837427E+02 0.  0.
         -6    2    1    2    0  502 -0.73837319526E+02 -0.14234901679E+02 -0.29950490226E+03  0.35383389384E+03  0.17274448116E+03 0.  0.
        -24    2    5    5    0    0 -0.42220438931E+02 -0.46795221028E+02 -0.77192022233E+02  0.12688696577E+03  0.78545118316E+02 0.  0.
          5    1    3    3  501    0 -0.35863940325E+02 -0.22600121742E+02 -0.53319803174E+02  0.68279419512E+02  0.47000000000E+01 0. -1.
        -13    1    4    4    0    0  0.53656667350E+02  0.36840377590E+02 -0.75334475745E+02  0.99556690422E+02  0.00000000000E+00 0.  1.
         14    1    4    4    0    0  0.56044592502E+02 -0.53541690914E-02  0.64077371683E+01  0.56409710804E+02  0.00000000000E+00 0. -1.
         -5    1    5    5    0  502 -0.31616880595E+02  0.32560319349E+02 -0.22231288003E+03  0.22694692807E+03  0.47000000000E+01 0.  1.
         13    1    6    6    0    0 -0.31052442219E+01 -0.57969093904E+02 -0.32811317970E+02  0.66683138623E+02  0.00000000000E+00 0. -1.
        -14    1    6    6    0    0 -0.39115194709E+02  0.11173872876E+02 -0.44380704263E+02  0.60203827146E+02  0.00000000000E+00 0.  1.
</event>
<event>
12    1  0.8421768E-002  0.2302121E+03  0.7818608E-02  0.1126825E+00
         21   -1    0    0  501  502  0.00000000000E+00  0.00000000000E+00  0.81710934571E+03  0.81710934571E+03  0.00000000000E+00 0. -1.
         21   -1    0    0  502  503 -0.00000000000E+00 -0.00000000000E+00 -0.15977632169E+03  0.15977632169E+03  0.00000000000E+00 0.  1.
         -6    2    1    2    0  503 -0.12860839591E+03 -0.82616536012E+02 -0.49402324528E+02  0.23360075229E+03  0.16959690527E+03 0.  0.
        -24    2    3    3    0    0 -0.37933435526E+02 -0.93475929021E+02 -0.16868230589E+01  0.13045651377E+03  0.82700433958E+02 0.  0.
          6    2    1    2  501    0  0.12860839591E+03  0.82616536012E+02  0.70673534854E+03  0.74328491512E+03  0.17213948020E+03 0.  0.
         24    2    5    5    0    0  0.49827188273E+02 -0.21580291607E+02  0.33490853542E+03  0.34915203585E+03  0.82431543507E+02 0.  0.
          5    1    5    5  501    0  0.78781207639E+02  0.10419682762E+03  0.37182681312E+03  0.39413287927E+03  0.47000000000E+01 0. -1.
        -13    1    6    6    0    0 -0.77847259924E+01  0.23817068826E+02  0.73862854099E+02  0.77997281632E+02  0.00000000000E+00 0.  1.
         14    1    6    6    0    0  0.57611914265E+02 -0.45397360434E+02  0.26104568132E+03  0.27115475422E+03  0.00000000000E+00 0. -1.
         -5    1    3    3    0  503 -0.90674960387E+02  0.10859393010E+02 -0.47715501469E+02  0.10314423851E+03  0.47000000000E+01 0.  1.
         13    1    4    4    0    0 -0.58842260508E+02 -0.48286027750E+02  0.15691126077E+02  0.77718489017E+02  0.00000000000E+00 0. -1.
        -14    1    4    4    0    0  0.20908824983E+02 -0.45189901271E+02 -0.17377949135E+02  0.52738024757E+02  0.00000000000E+00 0.  1.
</event>
<event>
12    1  0.8421768E-002  0.1810041E+03  0.7818608E-02  0.1168891E+00
         21   -1    0    0  503  502  0.00000000000E+00  0.00000000000E+00  0.18744737083E+03  0.18744737083E+03  0.00000000000E+00 0.  1.
         21   -1    0    0  501  503 -0.00000000000E+00 -0.00000000000E+00 -0.66540019657E+03  0.66540019657E+03  0.00000000000E+00 0.  1.
          6    2    1    2  501    0 -0.27139863793E+00 -0.55945020570E+02 -0.60665796564E+03  0.63074963372E+03  0.16334409748E+03 0.  0.
         24    2    3    3    0    0 -0.10463481021E+02 -0.33855843808E+02 -0.14831269126E+03  0.17173515593E+03  0.78997511347E+02 0.  0.
         -6    2    1    2    0  502  0.27139863793E+00  0.55945020570E+02  0.12870513990E+03  0.22209793368E+03  0.17214110527E+03 0.  0.
        -24    2    5    5    0    0  0.56765459533E+02  0.60519137884E+02  0.11652436042E+03  0.16393469053E+03  0.80073545826E+02 0.  0.
          5    1    3    3  501    0  0.10192082383E+02 -0.22089176762E+02 -0.45834527438E+03  0.45901447779E+03  0.47000000000E+01 0. -1.
        -13    1    4    4    0    0 -0.24005176501E+02  0.79054430058E+01 -0.11183808299E+03  0.11465819349E+03  0.00000000000E+00 0.  1.
         14    1    4    4    0    0  0.13541695480E+02 -0.41761286814E+02 -0.36474608270E+02  0.57076962439E+02  0.00000000000E+00 0. -1.
         -5    1    5    5    0  502 -0.56494060895E+02 -0.45741173142E+01  0.12180779487E+02  0.58163243157E+02  0.47000000000E+01 0.  1.
         11    1    6    6    0    0 -0.12003538168E+02 -0.87869013189E+01  0.29966410003E+02  0.33455646636E+02  0.00000000000E+00 0. -1.
        -12    1    6    6    0    0  0.68768997701E+02  0.69306039203E+02  0.86557950414E+02  0.13047904389E+03  0.00000000000E+00 0.  1.
</event>
<event>
12    1  0.8421768E-002  0.1777283E+03  0.7818608E-02  0.1170082E+00
         21   -1    0    0  501  502  0.00000000000E+00  0.00000000000E+00  0.15295300776E+03  0.15295300776E+03  0.00000000000E+00 0. -1.
         21   -1    0    0  502  503 -0.00000000000E+00 -0.00000000000E+00 -0.21753470849E+03  0.21753470849E+03  0.00000000000E+00 0. -1.
         -6    2    1    2    0  503 -0.25305156317E+02 -0.35499773493E+02  0.99733289952E+01  0.17775527163E+03  0.17203745071E+03 0.  0.
        -24    2    3    3    0    0  0.26085391595E+02 -0.57447486163E+02 -0.26834097407E+02  0.11067645870E+03  0.86882382591E+02 0.  0.
          6    2    1    2  501    0  0.25305156317E+02  0.35499773493E+02 -0.74555029725E+02  0.19273244463E+03  0.17229845589E+03 0.  0.
         24    2    5    5    0    0 -0.12269555504E+02  0.13977516411E+02  0.25674871865E+02  0.83447543152E+02  0.77190546413E+02 0.  0.
          5    1    5    5  501    0  0.37574711821E+02  0.21522257083E+02 -0.10022990159E+03  0.10928490148E+03  0.47000000000E+01 0. -1.
        -13    1    6    6    0    0 -0.11944579252E+02 -0.28975759181E+02 -0.34792098879E+01  0.31533672400E+02  0.00000000000E+00 0.  1.
         14    1    6    6    0    0 -0.32497625128E+00  0.42953275591E+02  0.29154081753E+02  0.51913870752E+02  0.00000000000E+00 0. -1.
         -5    1    3    3    0  503 -0.51390547912E+02  0.21947712669E+02  0.36807426402E+02  0.67078812933E+02  0.47000000000E+01 0.  1.
         13    1    4    4    0    0 -0.62616506994E+01  0.47761521242E+01 -0.38749923084E+02  0.39542084386E+02  0.00000000000E+00 0. -1.
        -14    1    4    4    0    0  0.32347042295E+02 -0.62223638287E+02  0.11915825677E+02  0.71134374310E+02  0.00000000000E+00 0.  1.
</event>
<event>
12    1  0.8421768E-002  0.1817980E+03  0.7818608E-02  0.1166361E+00
         21   -1    0    0  503  502  0.00000000000E+00  0.00000000000E+00  0.40535657705E+02  0.40535657705E+02  0.00000000000E+00 0. -1.
         21   -1    0    0  501  503 -0.00000000000E+00 -0.00000000000E+00 -0.10705481630E+04  0.10705481630E+04  0.00000000000E+00 0. -1.
          6    2    1    2  501    0  0.55119064565E+02  0.19366385494E+02 -0.79036336241E+03  0.81100231927E+03  0.17215501462E+03 0.  0.
         24    2    3    3    0    0  0.99508684604E+02  0.93269723730E+01 -0.57186649417E+03  0.58776657031E+03  0.91919983118E+02 0.  0.
         -6    2    1    2    0  502 -0.55119064565E+02 -0.19366385494E+02 -0.23964914286E+03  0.30008150140E+03  0.17089185951E+03 0.  0.
        -24    2    5    5    0    0 -0.72185155489E+02 -0.39382663730E+02 -0.24603338140E+03  0.27260876299E+03  0.83793925915E+02 0.  0.
          5    1    3    3  501    0 -0.44389620040E+02  0.10039413121E+02 -0.21849686824E+03  0.22323574896E+03  0.47000000000E+01 0. -1.
        -11    1    4    4    0    0  0.19441703515E+02 -0.22489824550E+02 -0.45203948656E+02  0.54103317994E+02  0.00000000000E+00 0.  1.
         12    1    4    4    0    0  0.80066981089E+02  0.31816796923E+02 -0.52666254551E+03  0.53366325232E+03  0.00000000000E+00 0. -1.
         -5    1    5    5    0  502  0.17066090924E+02  0.20016278237E+02  0.63842385494E+01  0.27472738410E+02  0.47000000000E+01 0.  1.
         11    1    6    6    0    0 -0.80144917215E+02 -0.29978586537E+02 -0.12820346036E+03  0.15413646763E+03  0.00000000000E+00 0. -1.
        -12    1    6    6    0    0  0.79597617260E+01 -0.94040771936E+01 -0.11782992105E+03  0.11847229536E+03  0.00000000000E+00 0.  1.
</event>
<event>
12    1  0.8421768E-002  0.1903789E+03  0.7818608E-02  0.1158131E+00
         21   -1    0    0  501  502  0.00000000000E+00  0.00000000000E+00  0.68408912336E+03  0.68408912336E+03  0.00000000000E+00 0. -1.
         21   -1    0    0  502  503 -0.00000000000E+00 -0.00000000000E+00 -0.53065441424E+02  0.53065441424E+02  0.00000000000E+00 0. -1.
         -6    2    1    2    0  503 -0.82724118261E+02 -0.11175543517E+02  0.33137908377E+03  0.38217301977E+03  0.17110215477E+03 0.  0.
        -24    2    3    3    0    0 -0.33412228650E+02 -0.15058479443E+02  0.31875141507E+03  0.33090619166E+03  0.80952506068E+02 0.  0.
          6    2    1    2  501    0  0.82724118261E+02  0.11175543517E+02  0.29964459816E+03  0.35498154501E+03  0.17104630827E+03 0.  0.
         24    2    5    5    0    0  0.14779273984E+02  0.66723208924E+02  0.16340801089E+03  0.19285646148E+03  0.76295630045E+02 0.  0.
          5    1    5    5  501    0  0.67944844277E+02 -0.55547665407E+02  0.13623658727E+03  0.16212508353E+03  0.47000000000E+01 0. -1.
        -11    1    6    6    0    0 -0.10501341267E+02  0.71548474168E+02  0.92437274832E+02  0.11736316331E+03  0.00000000000E+00 0.  1.
         12    1    6    6    0    0  0.25280615251E+02 -0.48252652436E+01  0.70970736057E+02  0.75493298170E+02  0.00000000000E+00 0. -1.
         -5    1    3    3    0  503 -0.49311889612E+02  0.38829359262E+01  0.12627668697E+02  0.51266828117E+02  0.47000000000E+01 0.  1.
         11    1    4    4    0    0 -0.54761535324E+01  0.20502728131E+02  0.21408913415E+02  0.30144513463E+02  0.00000000000E+00 0. -1.
        -12    1    4    4    0    0 -0.27936075117E+02 -0.35561207574E+02  0.29734250166E+03  0.30076167819E+03  0.00000000000E+00 0.  1.
</event>
<event>
12    1  0.8421768E-002  0.2020816E+03  0.7818608E-02  0.1148143E+00
         21   -1    0    0  501  502  0.00000000000E+00  0.00000000000E+00  0.48157069588E+02  0.48157069588E+02  0.00000000000E+00 0. -1.
         21   -1    0    0  502  503 -0.00000000000E+00 -0.00000000000E+00 -0.84513467772E+03  0.84513467772E+03  0.00000000000E+00 0.  1.
         -6    2    1    2    0  503  0.10225940838E+03 -0.24427348158E+02 -0.40478119529E+03  0.45242104828E+03  0.17257840804E+03 0.  0.
        -24    2    3    3    0    0  0.13883576115E+03 -0.22733281306E+01 -0.29085892608E+03  0.33064665192E+03  0.73808921909E+02 0.  0.
          6    2    1    2  501    0 -0.10225940838E+03  0.24427348158E+02 -0.39219641284E+03  0.44087069903E+03  0.17174185593E+03 0.  0.
         24    2    5    5    0    0 -0.18436965628E+02  0.52889987664E+02 -0.28780882699E+03  0.30392113957E+03  0.79980408145E+02 0.  0.
          5    1    5    5  501    0 -0.83822442754E+02 -0.28462639506E+02 -0.10438758584E+03  0.13694955946E+03  0.47000000000E+01 0. -1.
        -13    1    6    6    0    0 -0.10262760517E+01 -0.11354769168E+02 -0.35024670444E+01  0.11926914973E+02  0.00000000000E+00 0.  1.
         14    1    6    6    0    0 -0.17410689576E+02  0.64244756832E+02 -0.28430635995E+03  0.29199422460E+03  0.00000000000E+00 0. -1.
         -5    1    3    3    0  503 -0.36576352767E+02 -0.22154020028E+02 -0.11392226921E+03  0.12177439636E+03  0.47000000000E+01 0.  1.
         11    1    4    4    0    0  0.87068411993E+02 -0.35659222527E+02 -0.19794276511E+03  0.21916620812E+03  0.00000000000E+00 0. -1.
        -12    1    4    4    0    0  0.51767349155E+02  0.33385894396E+02 -0.92916160964E+02  0.11148044381E+03  0.00000000000E+00 0.  1.
</event>
<event>
12    1  0.8421768E-002  0.1753723E+03  0.7818608E-02  0.1172734E+00
         21   -1    0    0  501  502  0.00000000000E+00  0.00000000000E+00  0.62095806169E+03  0.62095806169E+03  0.00000000000E+00 0. -1.
         21   -1    0    0  502  503 -0.00000000000E+00 -0.00000000000E+00 -0.78227477694E+02  0.78227477694E+02  0.00000000000E+00 0. -1.
         -6    2    1    2    0  503 -0.78574400162E+01 -0.27592261080E+02  0.48538231323E+03  0.51609247700E+03  0.17300977596E+03 0.  0.
        -24    2    3    3    0    0 -0.46617799543E+02 -0.51313032034E+02  0.20397263203E+03  0.23099856419E+03  0.83362194968E+02 0.  0.
          6    2    1    2  501    0  0.78574400162E+01  0.27592261080E+02  0.57348270768E+02  0.18309306239E+03  0.17149686032E+03 0.  0.
         24    2    5    5    0    0 -0.25504563714E+02  0.33208332437E+02  0.95853873918E+02  0.13162137091E+03  0.79893329014E+02 0.  0.
          5    1    5    5  501    0  0.33362003730E+02 -0.56160713568E+01 -0.38505603149E+02  0.51471691484E+02  0.47000000000E+01 0. -1.
        -13    1    6    6    0    0  0.20105112715E+02 -0.11867638519E+02  0.12585016213E+02  0.26522425123E+02  0.00000000000E+00 0.  1.
         14    1    6    6    0    0 -0.45609676428E+02  0.45075970957E+02  0.83268857704E+02  0.10509894578E+03  0.00000000000E+00 0. -1.
         -5    1    3    3    0  503  0.38760359527E+02  0.23720770954E+02  0.28140968120E+03  0.28509391281E+03  0.47000000000E+01 0.  1.
         11    1    4    4    0    0 -0.56913730260E+02 -0.51187193858E+02  0.20664002308E+03  0.22036197641E+03  0.00000000000E+00 0. -1.
        -12    1    4    4    0    0  0.10295930716E+02 -0.12583817642E+00 -0.26673910545E+01  0.10636587780E+02  0.00000000000E+00 0.  1.
</event>
<event>
12    1  0.8421768E-002  0.1870418E+03  0.7818608E-02  0.1161294E+00
         21   -1    0    0  501  502  0.00000000000E+00  0.00000000000E+00  0.29683815890E+03  0.29683815890E+03  0.00000000000E+00 0.  1.
         21   -1    0    0  502  503 -0.00000000000E+00 -0.00000000000E+00 -0.14573269447E+03  0.14573269447E+03  0.00000000000E+00 0.  1.
         -6    2    1    2    0  503  0.68569458419E+02 -0.22698016363E+02 -0.21971731477E+02  0.18773688988E+03  0.17188778974E+03 0.  0.
        -24    2    3    3    0    0  0.60138122806E+02  0.15437388534E+02  0.44129912310E+02  0.11081541148E+03  0.80484156717E+02 0.  0.
          6    2    1    2  501    0 -0.68569458419E+02  0.22698016363E+02  0.17307719590E+03  0.25483396349E+03  0.17253307693E+03 0.  0.
         24    2    5    5    0    0 -0.60464599975E+02 -0.11694517755E+02  0.19005028793E+03  0.21535344949E+03  0.80406881975E+02 0.  0.
          5    1    5    5  501    0 -0.81048584435E+01  0.34392534117E+02 -0.16973092024E+02  0.39480514007E+02  0.47000000000E+01 0. -1.
        -11    1    6    6    0    0 -0.33835964118E+02 -0.38657486958E+02  0.55759638165E+02  0.75818276253E+02  0.00000000000E+00 0.  1.
         12    1    6    6    0    0 -0.26628635858E+02  0.26962969203E+02  0.13429064976E+03  0.13953517323E+03  0.00000000000E+00 0. -1.
         -5    1    3    3    0  503  0.84313356131E+01 -0.38135404897E+02 -0.66101643788E+02  0.76921478394E+02  0.47000000000E+01 0.  1.
         13    1    4    4    0    0 -0.16860064419E+02  0.28349245413E+01  0.25329659846E+02  0.30559617754E+02  0.00000000000E+00 0. -1.
        -14    1    4    4    0    0  0.76998187224E+02  0.12602463993E+02  0.18800252464E+02  0.80255793730E+02  0.00000000000E+00 0.  1.
</event>
<event>
12    1  0.8421768E-002  0.2214476E+03  0.7818608E-02  0.1132894E+00
         21   -1    0    0  503  502  0.00000000000E+00  0.00000000000E+00  0.71443574402E+03  0.71443574402E+03  0.00000000000E+00 0.  1.
         21   -1    0    0  501  503 -0.00000000000E+00 -0.00000000000E+00 -0.73384842261E+02  0.73384842261E+02  0.00000000000E+00 0.  1.
          6    2    1    2  501    0 -0.13747283095E+03 -0.25285285492E+02  0.21917314899E+03  0.31157005091E+03  0.17175826756E+03 0.  0.
         24    2    3    3    0    0 -0.11309652024E+03 -0.56380463737E+02  0.22661869658E+03  0.27108992229E+03  0.78511991108E+02 0.  0.
         -6    2    1    2    0  502  0.13747283095E+03  0.25285285492E+02  0.42187775277E+03  0.47625053537E+03  0.17115960169E+03 0.  0.
        -24    2    5    5    0    0  0.12265538143E+03  0.10217066598E+02  0.17601286998E+03  0.22943433124E+03  0.80689843921E+02 0.  0.
          5    1    3    3  501    0 -0.24376310710E+02  0.31095178245E+02 -0.74455475916E+01  0.40480128617E+02  0.47000000000E+01 0. -1.
        -11    1    4    4    0    0 -0.15013963572E+01 -0.23851302424E+02  0.11381111741E+02  0.26470143989E+02  0.00000000000E+00 0.  1.
         12    1    4    4    0    0 -0.11159512388E+03 -0.32529161312E+02  0.21523758484E+03  0.24461977830E+03  0.00000000000E+00 0. -1.
         -5    1    5    5    0  502  0.14817449518E+02  0.15068218894E+02  0.24586488279E+03  0.24681620413E+03  0.47000000000E+01 0.  1.
         11    1    6    6    0    0  0.10081295881E+03 -0.13625779980E+02  0.16754135645E+03  0.19600770563E+03  0.00000000000E+00 0. -1.
        -12    1    6    6    0    0  0.21842422613E+02  0.23842846578E+02  0.84715135302E+01  0.33426625615E+02  0.00000000000E+00 0.  1.
</event>
<event>
12    1  0.8421768E-002  0.1793903E+03  0.7818608E-02  0.1168899E+00
         21   -1    0    0  503  502  0.00000000000E+00  0.00000000000E+00  0.57482820383E+02  0.57482820383E+02  0.00000000000E+00 0.  1.
         21   -1    0    0  501  503 -0.00000000000E+00 -0.00000000000E+00 -0.67222474445E+03  0.67222474445E+03  0.00000000000E+00 0. -1.
          6    2    1    2  501    0  0.78659852818E+01 -0.45970490498E+02 -0.15544760939E+03  0.23737065699E+03  0.17322156278E+03 0.  0.
         24    2    3    3    0    0 -0.40425459939E+02  0.47915721821E+01 -0.31118165646E+02  0.94581472276E+02  0.79499293641E+02 0.  0.
         -6    2    1    2    0  502 -0.78659852818E+01  0.45970490498E+02 -0.45929431468E+03  0.49233690785E+03  0.17108244682E+03 0.  0.
        -24    2    5    5    0    0 -0.54695110301E+02 -0.21250730609E+01 -0.36413000279E+03  0.37578440276E+03  0.75014581260E+02 0.  0.
          5    1    3    3  501    0  0.48291445221E+02 -0.50762062680E+02 -0.12432944374E+03  0.14278918471E+03  0.47000000000E+01 0. -1.
        -11    1    4    4    0    0 -0.15384090509E+02 -0.27128216775E+02  0.13756716749E+02  0.34086032945E+02  0.00000000000E+00 0.  1.
         12    1    4    4    0    0 -0.25041369430E+02  0.31919788957E+02 -0.44874882394E+02  0.60495439331E+02  0.00000000000E+00 0. -1.
         -5    1    5    5    0  502  0.46829125019E+02  0.48095563559E+02 -0.95164311889E+02  0.11655250508E+03  0.47000000000E+01 0.  1.
         13    1    6    6    0    0  0.31227366930E+01  0.26617173102E+02 -0.13987206354E+03  0.14241635983E+03  0.00000000000E+00 0. -1.
        -14    1    6    6    0    0 -0.57817846994E+02 -0.28742246163E+02 -0.22425793925E+03  0.23336804293E+03  0.00000000000E+00 0.  1.
</event>
<event>
12    1  0.8421768E-002  0.2018981E+03  0.7818608E-02  0.1148196E+00
         21   -1    0    0  503  502  0.00000000000E+00  0.00000000000E+00  0.56307664679E+03  0.56307664679E+03  0.00000000000E+00 0. -1.
         21   -1    0    0  501  503 -0.00000000000E+00 -0.00000000000E+00 -0.11243919439E+03  0.11243919439E+03  0.00000000000E+00 0. -1.
          6    2    1    2  501    0 -0.10528637647E+03  0.33269808564E+01  0.23621631578E+02  0.20327520383E+03  0.17223976644E+03 0.  0.
         24    2    3    3    0    0 -0.78384873071E+02 -0.39272690841E+02 -0.36065506544E+02  0.12502517271E+03  0.81510983773E+02 0.  0.
         -6    2    1    2    0  502  0.10528637647E+03 -0.33269808564E+01  0.42701582082E+03  0.47224063736E+03  0.17196632946E+03 0.  0.
        -24    2    5    5    0    0  0.13116292207E+03  0.11901002645E+02  0.40885423663E+03  0.43683696193E+03  0.79494644486E+02 0.  0.
          5    1    3    3  501    0 -0.26901503401E+02  0.42599671698E+02  0.59687138122E+02  0.78250031126E+02  0.47000000000E+01 0. -1.
        -11    1    4    4    0    0  0.13308402235E+02  0.85052493382E+01 -0.88688027733E+01  0.18113765456E+02  0.00000000000E+00 0.  1.
         12    1    4    4    0    0 -0.91693275306E+02 -0.47777940179E+02 -0.27196703771E+02  0.10691140725E+03  0.00000000000E+00 0. -1.
         -5    1    5    5    0  502 -0.25876545601E+02 -0.15227983501E+02  0.18161584190E+02  0.35403675431E+02  0.47000000000E+01 0.  1.
         13    1    6    6    0    0  0.64425680739E+02 -0.29063321774E+02  0.14026821883E+03  0.15706851443E+03  0.00000000000E+00 0. -1.
        -14    1    6    6    0    0  0.66737241333E+02  0.40964324419E+02  0.26858601780E+03  0.27976844750E+03  0.00000000000E+00 0.  1.
</event>
<event>
12    1  0.8421768E-002  0.2968722E+03  0.7818608E-02  0.1087377E+00
         21   -1    0    0  503  502  0.00000000000E+00  0.00000000000E+00  0.14169270773E+04  0.14169270773E+04  0.00000000000E+00 0. -1.
         21   -1    0    0  501  503 -0.00000000000E+00 -0.00000000000E+00 -0.66827396164E+02  0.66827396164E+02  0.00000000000E+00 0. -1.
          6    2    1    2  501    0  0.17883023414E+03 -0.15398282490E+03  0.46596205434E+03  0.55249771299E+03  0.18011697246E+03 0.  0.
         24    2    3    3    0    0  0.13531274781E+03 -0.12795922651E+03  0.45821038040E+03  0.50098870660E+03  0.79685808461E+02 0.  0.
         -6    2    1    2    0  502 -0.17883023414E+03  0.15398282490E+03  0.88413762684E+03  0.93125676052E+03  0.17276819096E+03 0.  0.
        -24    2    5    5    0    0 -0.97141387795E+02 -0.19653416835E+01  0.40020267360E+03  0.41627323918E+03  0.60670568759E+02 0.  0.
          5    1    3    3  501    0  0.43517486334E+02 -0.26023598393E+02  0.77516739414E+01  0.51509006388E+02  0.47000000000E+01 0. -1.
        -13    1    4    4    0    0  0.22790185831E+02 -0.22016542913E+02  0.17969100156E+03  0.18246363138E+03  0.00000000000E+00 0.  1.
         14    1    4    4    0    0  0.11252256198E+03 -0.10594268359E+03  0.27851937884E+03  0.31852507523E+03  0.00000000000E+00 0. -1.
         -5    1    5    5    0  502 -0.81688846348E+02  0.15594816658E+03  0.48393495324E+03  0.51498352134E+03  0.47000000000E+01 0.  1.
         13    1    6    6    0    0 -0.30975790732E+02  0.28619649227E+00  0.25273718664E+03  0.25462848825E+03  0.00000000000E+00 0. -1.
        -14    1    6    6    0    0 -0.66165597063E+02 -0.22515381758E+01  0.14746548696E+03  0.16164475093E+03  0.00000000000E+00 0.  1.
</event>
<event>
12    1  0.8421768E-002  0.2234547E+03  0.7818608E-02  0.1131870E+00
         21   -1    0    0  501  502  0.00000000000E+00  0.00000000000E+00  0.37579170515E+03  0.37579170515E+03  0.00000000000E+00 0. -1.
         21   -1    0    0  502  503 -0.00000000000E+00 -0.00000000000E+00 -0.17918617287E+03  0.17918617287E+03  0.00000000000E+00 0.  1.
         -6    2    1    2    0  503 -0.10746064392E+03  0.84040949874E+02 -0.44909123942E+02  0.22792285478E+03  0.17697832373E+03 0.  0.
        -24    2    3    3    0    0 -0.11456260738E+03  0.47390561427E+02 -0.87202902614E+02  0.17131417547E+03  0.79835732424E+02 0.  0.
          6    2    1    2  501    0  0.10746064392E+03 -0.84040949874E+02  0.24151465623E+03  0.32705502323E+03  0.17327719932E+03 0.  0.
         24    2    5    5    0    0  0.12222142045E+03 -0.11795730274E+02  0.16083956395E+03  0.21765752421E+03  0.80176166319E+02 0.  0.
          5    1    5    5  501    0 -0.14760776529E+02 -0.72245219600E+02  0.80675092273E+02  0.10939749902E+03  0.47000000000E+01 0. -1.
        -11    1    6    6    0    0  0.53753629297E+01 -0.21973030714E+02  0.55794629629E+02  0.60205890915E+02  0.00000000000E+00 0.  1.
         12    1    6    6    0    0  0.11684605752E+03  0.10177300440E+02  0.10504493432E+03  0.15745163330E+03  0.00000000000E+00 0. -1.
         -5    1    3    3    0  503  0.71019634647E+01  0.36650388447E+02  0.42293778673E+02  0.56608679306E+02  0.47000000000E+01 0.  1.
         11    1    4    4    0    0 -0.13808430566E+02  0.18512014606E+02  0.12837586017E+02  0.26422926677E+02  0.00000000000E+00 0. -1.
        -12    1    4    4    0    0 -0.10075417682E+03  0.28878546821E+02 -0.10004048863E+03  0.14489124880E+03  0.00000000000E+00 0.  1.
</event>
<event>
12    1  0.8421768E-002  0.1761630E+03  0.7818608E-02  0.1172231E+00
         21   -1    0    0  503  502  0.00000000000E+00  0.00000000000E+00  0.96306135334E+02  0.96306135334E+02  0.00000000000E+00 0. -1.
         21   -1    0    0  501  503 -0.00000000000E+00 -0.00000000000E+00 -0.38459755302E+03  0.38459755302E+03  0.00000000000E+00 0. -1.
          6    2    1    2  501    0 -0.10521401216E+02 -0.19857978124E+02 -0.24373407483E+03  0.29919305855E+03  0.17206146540E+03 0.  0.
         24    2    3    3    0    0  0.50973121684E+01 -0.78255953121E+02 -0.16745628505E+03  0.20175251820E+03  0.80700027301E+02 0.  0.
         -6    2    1    2    0  502  0.10521401216E+02  0.19857978124E+02 -0.44557342860E+02  0.18171062980E+03  0.17472365896E+03 0.  0.
        -24    2    5    5    0    0  0.28310859413E+02  0.66195394158E+02  0.91489782285E+01  0.10842980098E+03  0.80560430548E+02 0.  0.
          5    1    3    3  501    0 -0.15618713385E+02  0.58397974997E+02 -0.76277789779E+02  0.97440540357E+02  0.47000000000E+01 0. -1.
        -13    1    4    4    0    0  0.23320328582E+02 -0.77940306027E+02 -0.16418504590E+03  0.18323552692E+03  0.00000000000E+00 0.  1.
         14    1    4    4    0    0 -0.18223016414E+02 -0.31564709307E+00 -0.32712391467E+01  0.18516991274E+02  0.00000000000E+00 0. -1.
         -5    1    5    5    0  502 -0.17789458197E+02 -0.46337416034E+02 -0.53706321088E+02  0.73280828819E+02  0.47000000000E+01 0.  1.
         13    1    6    6    0    0  0.80655361413E+01  0.23646600307E+00  0.34114582838E+02  0.35055863299E+02  0.00000000000E+00 0. -1.
        -14    1    6    6    0    0  0.20245323272E+02  0.65958928154E+02 -0.24965604610E+02  0.73373937683E+02  0.00000000000E+00 0.  1.
</event>
<event>
12    1  0.8421768E-002  0.4690800E+03  0.7818608E-02  0.1022228E+00
         21   -1    0    0  501  502  0.00000000000E+00  0.00000000000E+00  0.75824957425E+03  0.75824957425E+03  0.00000000000E+00 0. -1.
         21   -1    0    0  502  503 -0.00000000000E+00 -0.00000000000E+00 -0.29111132515E+03  0.29111132515E+03  0.00000000000E+00 0.  1.
         -6    2    1    2    0  503  0.11579233357E+03  0.42050169893E+03  0.26934561807E+03  0.54090949882E+03  0.17264553463E+03 0.  0.
        -24    2    3    3    0    0  0.10888144081E+02  0.28757622279E+03  0.17583992146E+03  0.34741666568E+03  0.83426770376E+02 0.  0.
          6    2    1    2  501    0 -0.11579233357E+03 -0.42050169893E+03  0.19779263103E+03  0.50845140059E+03  0.17079624865E+03 0.  0.
         24    2    5    5    0    0 -0.10415378970E+03 -0.15905882135E+03  0.10025901649E+03  0.22912590962E+03  0.79366816195E+02 0.  0.
          5    1    5    5  501    0 -0.11638543870E+02 -0.26144287758E+03  0.97533614548E+02  0.27932549097E+03  0.47000000000E+01 0. -1.
        -11    1    6    6    0    0 -0.28088114624E+02 -0.71407496060E+02  0.15156257743E+01  0.76748093125E+02  0.00000000000E+00 0.  1.
         12    1    6    6    0    0 -0.76065675079E+02 -0.87651325291E+02  0.98743390712E+02  0.15237781649E+03  0.00000000000E+00 0. -1.
         -5    1    3    3    0  503  0.10490418949E+03  0.13292547614E+03  0.93505696603E+02  0.19349283314E+03  0.47000000000E+01 0.  1.
         11    1    4    4    0    0 -0.29938539880E+02  0.81239932216E+02  0.73177731895E+02  0.11336323567E+03  0.00000000000E+00 0. -1.
        -12    1    4    4    0    0  0.40826683961E+02  0.20633629058E+03  0.10266218957E+03  0.23405343001E+03  0.00000000000E+00 0.  1.
</event>
<event>
12    1  0.8421768E-002  0.2456859E+03  0.7818608E-02  0.1116136E+00
         21   -1    0    0  503  502  0.00000000000E+00  0.00000000000E+00  0.40246790027E+03  0.40246790027E+03  0.00000000000E+00 0.  1.
         21   -1    0    0  501  503 -0.00000000000E+00 -0.00000000000E+00 -0.17159917302E+03  0.17159917302E+03  0.00000000000E+00 0. -1.
          6    2    1    2  501    0  0.20515372806E+02 -0.17232524982E+03  0.21788211107E+03  0.32803823036E+03  0.17326163455E+03 0.  0.
         24    2    3    3    0    0  0.24014166726E+02 -0.18236316206E+03  0.11700649919E+03  0.22649523300E+03  0.61453776441E+02 0.  0.
         -6    2    1    2    0  502 -0.20515372806E+02  0.17232524982E+03  0.12986616182E+02  0.24602884292E+03  0.17390993963E+03 0.  0.
        -24    2    5    5    0    0  0.26821619025E+02  0.14358514116E+03 -0.39141429089E+02  0.16983036692E+03  0.77293014227E+02 0.  0.
          5    1    3    3  501    0 -0.34987939202E+01  0.10037912241E+02  0.10087561188E+03  0.10154299736E+03  0.47000000000E+01 0. -1.
        -11    1    4    4    0    0 -0.59050543564E+01 -0.93104475017E+02  0.87331284092E+02  0.12778914710E+03  0.00000000000E+00 0.  1.
         12    1    4    4    0    0  0.29919221082E+02 -0.89258687043E+02  0.29675215100E+02  0.98706085901E+02  0.00000000000E+00 0. -1.
         -5    1    5    5    0  502 -0.47336991830E+02  0.28740108659E+02  0.52128045272E+02  0.76198476003E+02  0.47000000000E+01 0.  1.
         11    1    6    6    0    0 -0.25459709170E+00  0.12343721591E+03 -0.51689700148E+02  0.13382315267E+03  0.00000000000E+00 0. -1.
        -12    1    6    6    0    0  0.27076216116E+02  0.20147925254E+02  0.12548271059E+02  0.36007214247E+02  0.00000000000E+00 0.  1.
</event>
<event>
12    1  0.8421768E-002  0.1772519E+03  0.7818608E-02  0.1172228E+00
         21   -1    0    0  501  502  0.00000000000E+00  0.00000000000E+00  0.84666740630E+02  0.84666740630E+02  0.00000000000E+00 0. -1.
         21   -1    0    0  502  503 -0.00000000000E+00 -0.00000000000E+00 -0.15144599966E+04  0.15144599966E+04  0.00000000000E+00 0. -1.
         -6    2    1    2    0  503 -0.39151908815E+02 -0.13148950315E+02 -0.14172677879E+04  0.14283088713E+04  0.17237309040E+03 0.  0.
        -24    2    3    3    0    0  0.42107796292E+02  0.23279043033E+01 -0.89703514346E+03  0.90151976068E+03  0.79292778033E+02 0.  0.
          6    2    1    2  501    0  0.39151908815E+02  0.13148950315E+02 -0.12525468032E+02  0.17081786591E+03  0.16527579710E+03 0.  0.
         24    2    5    5    0    0  0.15913497390E+02  0.56739012701E+02 -0.48280385193E+02  0.10965724619E+03  0.78874337304E+02 0.  0.
          5    1    5    5  501    0  0.23238411425E+02 -0.43590062386E+02  0.35754917161E+02  0.61160619729E+02  0.47000000000E+01 0. -1.
        -13    1    6    6    0    0  0.16961598437E+01  0.17118807839E+02 -0.62812447257E+02  0.65125525491E+02  0.00000000000E+00 0.  1.
         14    1    6    6    0    0  0.14217337546E+02  0.39620204863E+02  0.14532062064E+02  0.44531720695E+02  0.00000000000E+00 0. -1.
         -5    1    3    3    0  503 -0.81259705107E+02 -0.15476854618E+02 -0.52023264447E+03  0.52678911063E+03  0.47000000000E+01 0.  1.
         13    1    4    4    0    0 -0.12736530577E+02 -0.88512261363E+01 -0.53130740601E+03  0.53153374597E+03  0.00000000000E+00 0. -1.
        -14    1    4    4    0    0  0.54844326868E+02  0.11179130440E+02 -0.36572773745E+03  0.36998601472E+03  0.00000000000E+00 0.  1.
</event>
<event>
12    1  0.8421768E-002  0.1773142E+03  0.7818608E-02  0.1170627E+00
         21   -1    0    0  501  502  0.00000000000E+00  0.00000000000E+00  0.16450172218E+03  0.16450172218E+03  0.00000000000E+00 0. -1.
         21   -1    0    0  502  503 -0.00000000000E+00 -0.00000000000E+00 -0.42030383917E+03  0.42030383917E+03  0.00000000000E+00 0. -1.
         -6    2    1    2    0  503 -0.35601898615E+02  0.24442312074E+02 -0.34435768434E+03  0.38732741422E+03  0.17197496690E+03 0.  0.
        -24    2    3    3    0    0  0.20034855355E+02  0.12016561840E+00 -0.30266935166E+03  0.31352346933E+03  0.79289466599E+02 0.  0.
          6    2    1    2  501    0  0.35601898615E+02 -0.24442312074E+02  0.88555567342E+02  0.19747814713E+03  0.17114499199E+03 0.  0.
         24    2    5    5    0    0  0.34664221124E+02  0.20566852022E+02  0.11470002130E+03  0.14520648593E+03  0.79399150130E+02 0.  0.
          5    1    5    5  501    0  0.93767749038E+00 -0.45009164096E+02 -0.26144453961E+02  0.52271661200E+02  0.47000000000E+01 0. -1.
        -13    1    6    6    0    0 -0.79385582976E+01 -0.66722111972E+01 -0.76053905631E+01  0.12860057376E+02  0.00000000000E+00 0.  1.
         14    1    6    6    0    0  0.42602779422E+02  0.27239063219E+02  0.12230541187E+03  0.13234642855E+03  0.00000000000E+00 0. -1.
         -5    1    3    3    0  503 -0.55636753969E+02  0.24322146456E+02 -0.41688332672E+02  0.73803944891E+02  0.47000000000E+01 0.  1.
         13    1    4    4    0    0  0.21043815488E+02 -0.35608504496E+02 -0.10900959683E+03  0.11659288128E+03  0.00000000000E+00 0. -1.
        -14    1    4    4    0    0 -0.10089601335E+01  0.35728670115E+02 -0.19365975483E+03  0.19693058805E+03  0.00000000000E+00 0.  1.
</event>
<event>
12    1  0.8421768E-002  0.2017736E+03  0.7818608E-02  0.1149014E+00
         21   -1    0    0  503  502  0.00000000000E+00  0.00000000000E+00  0.88518126762E+03  0.88518126762E+03  0.00000000000E+00 0.  1.
         21   -1    0    0  501  503 -0.00000000000E+00 -0.00000000000E+00 -0.54180316184E+02  0.54180316184E+02  0.00000000000E+00 0.  1.
          6    2    1    2  501    0  0.10021647078E+03  0.55340849916E+01  0.22712123266E+03  0.30380359016E+03  0.17503885270E+03 0.  0.
         24    2    3    3    0    0  0.32706996697E+02 -0.46110538522E+02  0.18483062672E+03  0.20874949198E+03  0.78854679205E+02 0.  0.
         -6    2    1    2    0  502 -0.10021647078E+03 -0.55340849916E+01  0.60387971877E+03  0.63555799364E+03  0.17084870916E+03 0.  0.
        -24    2    5    5    0    0 -0.31812669934E+02 -0.92153743800E+01  0.12249733878E+03  0.14930320690E+03  0.78669438085E+02 0.  0.
          5    1    3    3  501    0  0.67509474088E+02  0.51644623513E+02  0.42290605936E+02  0.95054098175E+02  0.47000000000E+01 0. -1.
        -13    1    4    4    0    0  0.46515019918E+02 -0.20166538847E+02  0.51687340581E+02  0.72401087998E+02  0.00000000000E+00 0.  1.
         14    1    4    4    0    0 -0.13808023221E+02 -0.25943999675E+02  0.13314328614E+03  0.13634840398E+03  0.00000000000E+00 0. -1.
         -5    1    5    5    0  502 -0.68403800851E+02  0.36812893883E+01  0.48138237999E+03  0.48625478674E+03  0.47000000000E+01 0.  1.
         11    1    6    6    0    0 -0.34052375808E+02 -0.36743807273E+02  0.10571629459E+03  0.11698549745E+03  0.00000000000E+00 0. -1.
        -12    1    6    6    0    0  0.22397058741E+01  0.27528432893E+02  0.16781044185E+02  0.32317709447E+02  0.00000000000E+00 0.  1.
</event>
<event>
12    1  0.8421768E-002  0.2003648E+03  0.7818608E-02  0.1149857E+00
         21   -1    0    0  503  502  0.00000000000E+00  0.00000000000E+00  0.44234037735E+03  0.44234037735E+03  0.00000000000E+00 0. -1.
         21   -1    0    0  501  503 -0.00000000000E+00 -0.00000000000E+00 -0.24120061829E+03  0.24120061829E+03  0.00000000000E+00 0.  1.
          6    2    1    2  501    0  0.10485869092E+03  0.73626880515E+01 -0.17034912628E+03  0.26146276274E+03  0.16820938510E+03 0.  0.
         24    2    3    3    0    0  0.10006118199E+03  0.60587815162E+02 -0.12279457063E+03  0.18977276336E+03  0.85159096094E+02 0.  0.
         -6    2    1    2    0  502 -0.10485869092E+03 -0.73626880515E+01  0.37148888534E+03  0.42207823289E+03  0.17057692843E+03 0.  0.
        -24    2    5    5    0    0 -0.29453574629E+02 -0.50309099977E+01  0.31895451364E+03  0.33002760029E+03  0.79331028429E+02 0.  0.
          5    1    3    3  501    0  0.47975089270E+01 -0.53225127111E+02 -0.47554555650E+02  0.71689999379E+02  0.47000000000E+01 0. -1.
        -13    1    4    4    0    0  0.42039372043E+02  0.39877391069E+02 -0.11354448756E+03  0.12747496137E+03  0.00000000000E+00 0.  1.
         14    1    4    4    0    0  0.58021809951E+02  0.20710424094E+02 -0.92500830736E+01  0.62297801992E+02  0.00000000000E+00 0. -1.
         -5    1    5    5    0  502 -0.75405116293E+02 -0.23317780538E+01  0.52534371706E+02  0.92050632603E+02  0.47000000000E+01 0.  1.
         11    1    6    6    0    0 -0.43292906833E+02  0.22445623582E+02  0.13542825514E+03  0.14394059223E+03  0.00000000000E+00 0. -1.
        -12    1    6    6    0    0  0.13839332205E+02 -0.27476533579E+02  0.18352625849E+03  0.18608700806E+03  0.00000000000E+00 0.  1.
</event>
<event>
12    1  0.8421768E-002  0.1736724E+03  0.7818608E-02  0.1174379E+00
         21   -1    0    0  501  502  0.00000000000E+00  0.00000000000E+00  0.94921864667E+02  0.94921864667E+02  0.00000000000E+00 0.  1.
         21   -1    0    0  502  503 -0.00000000000E+00 -0.00000000000E+00 -0.71331046405E+03  0.71331046405E+03  0.00000000000E+00 0.  1.
         -6    2    1    2    0  503  0.12722415995E+01  0.15677492152E+01 -0.61144152879E+03  0.63562791820E+03  0.17366067730E+03 0.  0.
        -24    2    3    3    0    0 -0.25140315335E+02 -0.60778262592E+02 -0.40948085857E+03  0.42256724453E+03  0.81009073297E+02 0.  0.
          6    2    1    2  501    0 -0.12722415995E+01 -0.15677492152E+01 -0.69470705993E+01  0.17260441052E+03  0.17245273063E+03 0.  0.
         24    2    5    5    0    0 -0.57224174091E+02  0.30612837396E+02  0.11619910231E+02  0.10527661773E+03  0.82075526275E+02 0.  0.
          5    1    5    5  501    0  0.55951932491E+02 -0.32180586611E+02 -0.18566980830E+02  0.67327792785E+02  0.47000000000E+01 0. -1.
        -13    1    6    6    0    0 -0.51248952634E+02 -0.17562431471E+02  0.16125207619E+02  0.56523592119E+02  0.00000000000E+00 0.  1.
         14    1    6    6    0    0 -0.59752214566E+01  0.48175268866E+02 -0.45052973876E+01  0.48753025612E+02  0.00000000000E+00 0. -1.
         -5    1    3    3    0  503  0.26412556935E+02  0.62346011807E+02 -0.20196067022E+03  0.21306067367E+03  0.47000000000E+01 0.  1.
         11    1    4    4    0    0  0.17690650633E+02  0.82689156203E+01 -0.43607398521E+02  0.47780113972E+02  0.00000000000E+00 0. -1.
        -12    1    4    4    0    0 -0.42830965968E+02 -0.69047178212E+02 -0.36587346005E+03  0.37478713056E+03  0.00000000000E+00 0.  1.
</event>
<event>
12    1  0.8421768E-002  0.4100798E+03  0.7818608E-02  0.1040399E+00
         21   -1    0    0  501  502  0.00000000000E+00  0.00000000000E+00  0.85631165547E+02  0.85631165547E+02  0.00000000000E+00 0. -1.
         21   -1    0    0  502  503 -0.00000000000E+00 -0.00000000000E+00 -0.20633517583E+04  0.20633517583E+04  0.00000000000E+00 0.  1.
         -6    2    1    2    0  503 -0.33773765600E+03  0.15766824590E+03 -0.12277756149E+04  0.12942414810E+04  0.16941679556E+03 0.  0.
        -24    2    3    3    0    0 -0.64006193905E+02  0.24293172117E+02 -0.29173417220E+03  0.30990744418E+03  0.79036989168E+02 0.  0.
          6    2    1    2  501    0  0.33773765600E+03 -0.15766824590E+03 -0.74994497786E+03  0.85474144283E+03  0.17099550938E+03 0.  0.
         24    2    5    5    0    0  0.29966852724E+03 -0.15865779067E+03 -0.73557281302E+03  0.81376722063E+03  0.78588837288E+02 0.  0.
          5    1    5    5  501    0  0.38069128757E+02  0.98954477002E+00 -0.14372164837E+02  0.40974222205E+02  0.47000000000E+01 0. -1.
        -11    1    6    6    0    0  0.24621798036E+03 -0.99237096567E+02 -0.60495146697E+03  0.66063421996E+03  0.00000000000E+00 0.  1.
         12    1    6    6    0    0  0.53450546883E+02 -0.59420694098E+02 -0.13062134605E+03  0.15313300067E+03  0.00000000000E+00 0. -1.
         -5    1    3    3    0  503 -0.27373146210E+03  0.13337507378E+03 -0.93604144272E+03  0.98433403687E+03  0.47000000000E+01 0.  1.
         13    1    4    4    0    0 -0.21834608227E+02  0.40088830339E+02 -0.69462685368E+02  0.83119968076E+02  0.00000000000E+00 0. -1.
        -14    1    4    4    0    0 -0.42171585679E+02 -0.15795658222E+02 -0.22227148683E+03  0.22678747610E+03  0.00000000000E+00 0.  1.
</event>
<event>
12    1  0.8421768E-002  0.3922230E+03  0.7818608E-02  0.1046773E+00
         21   -1    0    0  503  502  0.00000000000E+00  0.00000000000E+00  0.12290053741E+04  0.12290053741E+04  0.00000000000E+00 0. -1.
         21   -1    0    0  501  503 -0.00000000000E+00 -0.00000000000E+00 -0.13843470767E+03  0.13843470767E+03  0.00000000000E+00 0.  1.
          6    2    1    2  501    0 -0.26394265684E+03 -0.23097258808E+03  0.32433592699E+03  0.50665292644E+03  0.16878783069E+03 0.  0.
         24    2    3    3    0    0 -0.26930209581E+03 -0.17596611075E+03  0.25609173042E+03  0.41871091998E+03  0.79045361565E+02 0.  0.
         -6    2    1    2    0  502  0.26394265684E+03  0.23097258808E+03  0.76623473943E+03  0.86078715532E+03  0.17556989579E+03 0.  0.
        -24    2    5    5    0    0  0.25409775478E+03  0.24380620237E+03  0.76226660382E+03  0.84348224698E+03  0.80029946791E+02 0.  0.
          5    1    3    3  501    0  0.53594389673E+01 -0.55006477329E+02  0.68244196567E+02  0.87942006454E+02  0.47000000000E+01 0. -1.
        -13    1    4    4    0    0 -0.75770206121E+02 -0.61805300570E+02  0.36038885373E+02  0.10421046288E+03  0.00000000000E+00 0.  1.
         14    1    4    4    0    0 -0.19353188969E+03 -0.11416081018E+03  0.22005284505E+03  0.31450045711E+03  0.00000000000E+00 0. -1.
         -5    1    5    5    0  502  0.98449020675E+01 -0.12833614289E+02  0.39681356179E+01  0.17304908342E+02  0.47000000000E+01 0.  1.
         13    1    6    6    0    0  0.15008972882E+03  0.11498869594E+03  0.48490658925E+03  0.52046491446E+03  0.00000000000E+00 0. -1.
        -14    1    6    6    0    0  0.10400802595E+03  0.12881750643E+03  0.27736001457E+03  0.32301733252E+03  0.00000000000E+00 0.  1.
</event>
<event>
12    1  0.8421768E-002  0.2299601E+03  0.7818608E-02  0.1126767E+00
         21   -1    0    0  503  502  0.00000000000E+00  0.00000000000E+00  0.11812545270E+04  0.11812545270E+04  0.00000000000E+00 0.  1.
         21   -1    0    0  501  503 -0.00000000000E+00 -0.00000000000E+00 -0.54680182455E+03  0.54680182455E+03  0.00000000000E+00 0.  1.
          6    2    1    2  501    0 -0.11550623703E+03 -0.98867831194E+02 -0.51079873236E+03  0.55994569557E+03  0.17177688486E+03 0.  0.
         24    2    3    3    0    0  0.94347247318E+01 -0.26075490423E+02 -0.16056722399E+03  0.18100880339E+03  0.78825175252E+02 0.  0.
         -6    2    1    2    0  502  0.11550623703E+03  0.98867831194E+02  0.11452514348E+04  0.11681106559E+04  0.17252569909E+03 0.  0.
        -24    2    5    5    0    0  0.14633908493E+03  0.66479410897E+02  0.79715080130E+03  0.81711804163E+03  0.79986586982E+02 0.  0.
          5    1    3    3  501    0 -0.12494096177E+03 -0.72792340771E+02 -0.35023150837E+03  0.37893689218E+03  0.47000000000E+01 0. -1.
        -13    1    4    4    0    0  0.21158223919E+02 -0.46248380512E+02 -0.14308189497E+03  0.15185194041E+03  0.00000000000E+00 0.  1.
         14    1    4    4    0    0 -0.11723499188E+02  0.20172890089E+02 -0.17485329024E+02  0.29156862980E+02  0.00000000000E+00 0. -1.
         -5    1    5    5    0  502 -0.30832847896E+02  0.32388420297E+02  0.34810063346E+03  0.35099261430E+03  0.47000000000E+01 0.  1.
         13    1    6    6    0    0  0.10361278488E+02  0.37820764408E+02  0.13714305731E+03  0.14263935109E+03  0.00000000000E+00 0. -1.
        -14    1    6    6    0    0  0.13597780644E+03  0.28658646489E+02  0.66000774399E+03  0.67447869054E+03  0.00000000000E+00 0.  1.
</event>
<event>
12    1  0.8421768E-002  0.2253848E+03  0.7818608E-02  0.1129972E+00
         21   -1    0    0  501  502  0.00000000000E+00  0.00000000000E+00  0.44952389353E+03  0.44952389353E+03  0.00000000000E+00 0.  1.
         21   -1    0    0  502  503 -0.00000000000E+00 -0.00000000000E+00 -0.11700344487E+03  0.11700344487E+03  0.00000000000E+00 0.  1.
         -6    2    1    2    0  503  0.25010825776E+02 -0.14274092615E+03  0.11323700553E+03  0.25223185452E+03  0.17262032212E+03 0.  0.
        -24    2    3    3    0    0  0.14246095857E+02 -0.11687937469E+02  0.56272328677E+02  0.10885183617E+03  0.91337769481E+02 0.  0.
          6    2    1    2  501    0 -0.25010825776E+02  0.14274092615E+03  0.21928344312E+03  0.31429548388E+03  0.17232501081E+03 0.  0.
         24    2    5    5    0    0 -0.50651540372E+02  0.46897679022E+02  0.17652931583E+03  0.20615955245E+03  0.81081384286E+02 0.  0.
          5    1    5    5  501    0  0.25640714596E+02  0.95843247128E+02  0.42754127291E+02  0.10813593143E+03  0.47000000000E+01 0. -1.
        -13    1    6    6    0    0 -0.67696750588E+02  0.53715654106E+02  0.15791794641E+03  0.18001749730E+03  0.00000000000E+00 0.  1.
         14    1    6    6    0    0  0.17045210216E+02 -0.68179750846E+01  0.18611369424E+02  0.26142055149E+02  0.00000000000E+00 0. -1.
         -5    1    3    3    0  503  0.10764729919E+02 -0.13105298868E+03  0.56964676853E+02  0.14338001835E+03  0.47000000000E+01 0.  1.
         13    1    4    4    0    0 -0.35559383566E+02 -0.89563707752E+01  0.44748505472E+01  0.36941989991E+02  0.00000000000E+00 0. -1.
        -14    1    4    4    0    0  0.49805479423E+02 -0.27315666939E+01  0.51797478130E+02  0.71909846181E+02  0.00000000000E+00 0.  1.
</event>
<event>
12    1  0.8421768E-002  0.2111944E+03  0.7818608E-02  0.1140974E+00
         21   -1    0    0  503  502  0.00000000000E+00  0.00000000000E+00  0.30940685897E+02  0.30940685897E+02  0.00000000000E+00 0.  1.
         21   -1    0    0  501  503 -0.00000000000E+00 -0.00000000000E+00 -0.16768875535E+04  0.16768875535E+04  0.00000000000E+00 0. -1.
          6    2    1    2  501    0 -0.11639603619E+03  0.37566837168E+02 -0.11480152667E+04  0.11669595229E+04  0.16998873777E+03 0.  0.
         24    2    3    3    0    0 -0.25329894423E+02  0.45166561011E+02 -0.44083927958E+03  0.45388816268E+03  0.94834445301E+02 0.  0.
         -6    2    1    2    0  502  0.11639603619E+03 -0.37566837168E+02 -0.49793160094E+03  0.54086871656E+03  0.17217370541E+03 0.  0.
        -24    2    5    5    0    0  0.18945319757E+02  0.23825974322E+02 -0.30085657968E+03  0.31255670758E+03  0.79059545441E+02 0.  0.
          5    1    3    3  501    0 -0.91066141765E+02 -0.75997238430E+01 -0.70717598711E+03  0.71307136019E+03  0.47000000000E+01 0. -1.
        -11    1    4    4    0    0 -0.36260041201E+02 -0.19411081764E+02 -0.13555540994E+03  0.14165750897E+03  0.00000000000E+00 0.  1.
         12    1    4    4    0    0  0.10930146778E+02  0.64577642775E+02 -0.30528386964E+03  0.31223065371E+03  0.00000000000E+00 0. -1.
         -5    1    5    5    0  502  0.97450716431E+02 -0.61392811489E+02 -0.19707502126E+03  0.22831200897E+03  0.47000000000E+01 0.  1.
         11    1    6    6    0    0  0.16680891870E+02 -0.28096745779E+02 -0.12236915554E+03  0.12665658098E+03  0.00000000000E+00 0. -1.
        -12    1    6    6    0    0  0.22644278870E+01  0.51922720101E+02 -0.17848742414E+03  0.18590012661E+03  0.00000000000E+00 0.  1.
</event>
<event>
12    1  0.8421768E-002  0.1907625E+03  0.7818608E-02  0.1157873E+00
         21   -1    0    0  503  502  0.00000000000E+00  0.00000000000E+00  0.38460383629E+02  0.38460383629E+02  0.00000000000E+00 0. -1.
         21   -1    0    0  501  503 -0.00000000000E+00 -0.00000000000E+00 -0.12764470850E+04  0.12764470850E+04  0.00000000000E+00 0. -1.
          6    2    1    2  501    0 -0.58881139851E+02 -0.55180964148E+02 -0.95398737606E+03  0.97278768364E+03  0.17237179677E+03 0.  0.
         24    2    3    3    0    0 -0.45254662882E+02 -0.26178784529E+02 -0.26848428109E+03  0.28651995854E+03  0.85302779423E+02 0.  0.
         -6    2    1    2    0  502  0.58881139851E+02  0.55180964148E+02 -0.28399932528E+03  0.34211978496E+03  0.17285370423E+03 0.  0.
        -24    2    5    5    0    0  0.69559835019E+02  0.14802670524E+02 -0.27934389536E+03  0.29983262197E+03  0.82516056735E+02 0.  0.
          5    1    3    3  501    0 -0.13626476969E+02 -0.29002179619E+02 -0.68550309497E+03  0.68626772510E+03  0.47000000000E+01 0. -1.
        -13    1    4    4    0    0  0.13349539748E+02  0.18635281855E+02 -0.99959802987E+02  0.10255460085E+03  0.00000000000E+00 0.  1.
         14    1    4    4    0    0 -0.58604202630E+02 -0.44814066384E+02 -0.16852447810E+03  0.18396535769E+03  0.00000000000E+00 0. -1.
         -5    1    5    5    0  502 -0.10678695168E+02  0.40378293624E+02 -0.46554299239E+01  0.42287162996E+02  0.47000000000E+01 0.  1.
         13    1    6    6    0    0  0.78534665688E+02 -0.60141244104E+01 -0.15978383137E+03  0.17814246033E+03  0.00000000000E+00 0. -1.
        -14    1    6    6    0    0 -0.89748306692E+01  0.20816794935E+02 -0.11956006399E+03  0.12169016163E+03  0.00000000000E+00 0.  1.
</event>
<event>
12    1  0.8421768E-002  0.2629805E+03  0.7818608E-02  0.1105375E+00
         21   -1    0    0  501  502  0.00000000000E+00  0.00000000000E+00  0.11676416891E+04  0.11676416891E+04  0.00000000000E+00 0. -1.
         21   -1    0    0  502  503 -0.00000000000E+00 -0.00000000000E+00 -0.59217443277E+02  0.59217443277E+02  0.00000000000E+00 0.  1.
         -6    2    1    2    0  503 -0.19759914517E+03 -0.22831036618E+02  0.55785663354E+03  0.61673559358E+03  0.17202351697E+03 0.  0.
        -24    2    3    3    0    0 -0.60571474418E+02 -0.13640948134E+02  0.37456011362E+03  0.38764883164E+03  0.78239114116E+02 0.  0.
          6    2    1    2  501    0  0.19759914517E+03  0.22831036618E+02  0.55056761225E+03  0.61012353877E+03  0.17192835281E+03 0.  0.
         24    2    5    5    0    0  0.11164677743E+03  0.55829810687E+02  0.20908914080E+03  0.25641975723E+03  0.80317198829E+02 0.  0.
          5    1    5    5  501    0  0.85952367742E+02 -0.32998774069E+02  0.34147847146E+03  0.35370378155E+03  0.47000000000E+01 0. -1.
        -11    1    6    6    0    0  0.10955660169E+03  0.22696068320E+02  0.18168454631E+03  0.21337065135E+03  0.00000000000E+00 0.  1.
         12    1    6    6    0    0  0.20901757386E+01  0.33133742368E+02  0.27404594486E+02  0.43049105877E+02  0.00000000000E+00 0. -1.
         -5    1    3    3    0  503 -0.13702767075E+03 -0.91900884840E+01  0.18329651992E+03  0.22908676193E+03  0.47000000000E+01 0.  1.
         13    1    4    4    0    0  0.10618844387E+02 -0.22981030530E+02  0.62444177149E+02  0.67380730778E+02  0.00000000000E+00 0. -1.
        -14    1    4    4    0    0 -0.71190318805E+02  0.93400823955E+01  0.31211593647E+03  0.32026810086E+03  0.00000000000E+00 0.  1.
</event>
<event>
12    1  0.8421768E-002  0.2197999E+03  0.7818608E-02  0.1134063E+00
         21   -1    0    0  503  502  0.00000000000E+00  0.00000000000E+00  0.10653003454E+04  0.10653003454E+04  0.00000000000E+00 0.  1.
         21   -1    0    0  501  503 -0.00000000000E+00 -0.00000000000E+00 -0.45331537757E+02  0.45331537757E+02  0.00000000000E+00 0.  1.
          6    2    1    2  501    0 -0.98387988305E+02 -0.92050189492E+02  0.50015895418E+03  0.54632498008E+03  0.17366223191E+03 0.  0.
         24    2    3    3    0    0 -0.13705823474E+03 -0.65294378600E+02  0.36451267554E+03  0.40268214426E+03  0.78962668975E+02 0.  0.
         -6    2    1    2    0  502  0.98387988305E+02  0.92050189492E+02  0.51980985351E+03  0.56430690312E+03  0.17345478797E+03 0.  0.
        -24    2    5    5    0    0 -0.18402203447E+02  0.28469175493E+02  0.18617087874E+03  0.20511398877E+03  0.79139227022E+02 0.  0.
          5    1    3    3  501    0  0.38670246431E+02 -0.26755810892E+02  0.13564627863E+03  0.14364283582E+03  0.47000000000E+01 0. -1.
        -13    1    4    4    0    0 -0.90707471133E+02 -0.59601719481E+02  0.32100101584E+03  0.33885374788E+03  0.00000000000E+00 0.  1.
         14    1    4    4    0    0 -0.46350763604E+02 -0.56926591192E+01  0.43511659706E+02  0.63828396383E+02  0.00000000000E+00 0. -1.
         -5    1    5    5    0  502  0.11679019175E+03  0.63581013998E+02  0.33363897477E+03  0.35919291435E+03  0.47000000000E+01 0.  1.
         13    1    6    6    0    0 -0.23719956274E+01  0.33634061849E+02  0.22401505539E+02  0.40480908218E+02  0.00000000000E+00 0. -1.
        -14    1    6    6    0    0 -0.16030207820E+02 -0.51648863554E+01  0.16376937320E+03  0.16463308055E+03  0.00000000000E+00 0.  1.
</event>
<event>
12    1  0.8421768E-002  0.1931195E+03  0.7818608E-02  0.1155742E+00
         21   -1    0    0  503  502  0.00000000000E+00  0.00000000000E+00  0.10776228675E+03  0.10776228675E+03  0.00000000000E+00 0. -1.
         21   -1    0    0  501  503 -0.00000000000E+00 -0.00000000000E+00 -0.42990824190E+03  0.42990824190E+03  0.00000000000E+00 0. -1.
          6    2    1    2  501    0 -0.89635193555E+02 -0.60382882197E+01 -0.42095063130E+02  0.19765405048E+03  0.17095087154E+03 0.  0.
         24    2    3    3    0    0 -0.61601413132E+02 -0.74155370003E+02 -0.56351476321E+02  0.12247981957E+03  0.50319621599E+02 0.  0.
         -6    2    1    2    0  502  0.89635193555E+02  0.60382882197E+01 -0.28005089201E+03  0.34001647817E+03  0.17062172917E+03 0.  0.
        -24    2    5    5    0    0  0.26918230447E+02  0.30906427125E+01 -0.43998635868E+02  0.95711620044E+02  0.80564825144E+02 0.  0.
          5    1    3    3  501    0 -0.28033780424E+02  0.68117081783E+02  0.14256413191E+02  0.75174230908E+02  0.47000000000E+01 0. -1.
        -11    1    4    4    0    0  0.59906095060E+01  0.25053639134E+01 -0.25101258379E+01  0.69616795613E+01  0.00000000000E+00 0.  1.
         12    1    4    4    0    0 -0.67592022638E+02 -0.76660733916E+02 -0.53841350483E+02  0.11551814001E+03  0.00000000000E+00 0. -1.
         -5    1    5    5    0  502  0.62716963108E+02  0.29476455072E+01 -0.23605225614E+03  0.24430485813E+03  0.47000000000E+01 0.  1.
         13    1    6    6    0    0  0.17455041099E+01  0.35577911782E+02 -0.16045740394E+00  0.35621065929E+02  0.00000000000E+00 0. -1.
        -14    1    6    6    0    0  0.25172726338E+02 -0.32487269069E+02 -0.43838178464E+02  0.60090554115E+02  0.00000000000E+00 0.  1.
</event>
<event>
12    1  0.8421768E-002  0.2197836E+03  0.7818608E-02  0.1134119E+00
         21   -1    0    0  503  502  0.00000000000E+00  0.00000000000E+00  0.18284057285E+03  0.18284057285E+03  0.00000000000E+00 0.  1.
         21   -1    0    0  501  503 -0.00000000000E+00 -0.00000000000E+00 -0.80774003889E+03  0.80774003889E+03  0.00000000000E+00 0.  1.
          6    2    1    2  501    0  0.69816251317E+02  0.11744489259E+03 -0.71883251267E+03  0.75156544434E+03  0.17164738309E+03 0.  0.
         24    2    3    3    0    0  0.41875299455E+02  0.14874477420E+03 -0.49545473447E+03  0.52423286601E+03  0.73933452109E+02 0.  0.
         -6    2    1    2    0  502 -0.69816251317E+02 -0.11744489259E+03  0.93933046627E+02  0.23901516739E+03  0.17215464342E+03 0.  0.
        -24    2    5    5    0    0  0.24667721354E+02 -0.35299200475E+02  0.57844408220E+02  0.10863259323E+03  0.81243674940E+02 0.  0.
          5    1    3    3  501    0  0.27940951861E+02 -0.31299881607E+02 -0.22337777820E+03  0.22733257833E+03  0.47000000000E+01 0. -1.
        -11    1    4    4    0    0  0.16865921422E+02  0.81851014313E+02 -0.15226596673E+03  0.17369217735E+03  0.00000000000E+00 0.  1.
         12    1    4    4    0    0  0.25009378034E+02  0.66893759884E+02 -0.34318876774E+03  0.35054068866E+03  0.00000000000E+00 0. -1.
         -5    1    5    5    0  502 -0.94483972671E+02 -0.82145692115E+02  0.36088638407E+02  0.13038257417E+03  0.47000000000E+01 0.  1.
         11    1    6    6    0    0 -0.41851967165E+01  0.24856362697E+02  0.14673445176E+02  0.29166155582E+02  0.00000000000E+00 0. -1.
        -12    1    6    6    0    0  0.28852918071E+02 -0.60155563172E+02  0.43170963044E+02  0.79466437644E+02  0.00000000000E+00 0.  1.
</event>
<event>
12    1  0.8421768E-002  0.2239712E+03  0.7818608E-02  0.1131049E+00
         21   -1    0    0  503  502  0.00000000000E+00  0.00000000000E+00  0.84443376082E+02  0.84443376082E+02  0.00000000000E+00 0.  1.
         21   -1    0    0  501  503 -0.00000000000E+00 -0.00000000000E+00 -0.84832294059E+03  0.84832294059E+03  0.00000000000E+00 0.  1.
          6    2    1    2  501    0 -0.13623280223E+03 -0.43131544154E+02 -0.63764882261E+03  0.67567240239E+03  0.17180648377E+03 0.  0.
         24    2    3    3    0    0 -0.10745508843E+03  0.75393388047E+01 -0.57329017329E+03  0.58872517165E+03  0.79575544467E+02 0.  0.
         -6    2    1    2    0  502  0.13623280223E+03  0.43131544154E+02 -0.12623074190E+03  0.25709391429E+03  0.17246267439E+03 0.  0.
        -24    2    5    5    0    0  0.47818131625E+01 -0.37706144911E+01 -0.23421387429E+02  0.83683913482E+02  0.80108381059E+02 0.  0.
          5    1    3    3  501    0 -0.28777713804E+02 -0.50670882958E+02 -0.64358649317E+02  0.86947230741E+02  0.47000000000E+01 0. -1.
        -11    1    4    4    0    0 -0.73497818833E+02 -0.41270979888E+01 -0.19008089785E+03  0.20383745986E+03  0.00000000000E+00 0.  1.
         12    1    4    4    0    0 -0.33957269594E+02  0.11666436793E+02 -0.38320927544E+03  0.38488771179E+03  0.00000000000E+00 0. -1.
         -5    1    5    5    0  502  0.13145098907E+03  0.46902158645E+02 -0.10280935447E+03  0.17341000081E+03  0.47000000000E+01 0.  1.
         11    1    6    6    0    0 -0.30976690669E+01  0.14176924215E+02 -0.49202435308E+02  0.51297761882E+02  0.00000000000E+00 0. -1.
        -12    1    6    6    0    0  0.78794822294E+01 -0.17947538706E+02  0.25781047878E+02  0.32386151601E+02  0.00000000000E+00 0.  1.
</event>
<event>
12    1  0.8421768E-002  0.1872502E+03  0.7818608E-02  0.1160996E+00
         21   -1    0    0  501  502  0.00000000000E+00  0.00000000000E+00  0.85115204382E+02  0.85115204382E+02  0.00000000000E+00 0.  1.
         21   -1    0    0  502  503 -0.00000000000E+00 -0.00000000000E+00 -0.54822847929E+03  0.54822847929E+03  0.00000000000E+00 0.  1.
         -6    2    1    2    0  503 -0.26612038638E+02 -0.72256169400E+02 -0.38968044454E+03  0.43233493936E+03  0.17068537231E+03 0.  0.
        -24    2    3    3    0    0 -0.61058103121E+02 -0.35208601523E+02 -0.35470839227E+03  0.37065683884E+03  0.81244760166E+02 0.  0.
          6    2    1    2  501    0  0.26612038638E+02  0.72256169400E+02 -0.73432830368E+02  0.20100874431E+03  0.17053732757E+03 0.  0.
         24    2    5    5    0    0 -0.42501670906E+02  0.62678203180E+02 -0.70949824557E+02  0.13103233685E+03  0.80004040590E+02 0.  0.
          5    1    5    5  501    0  0.69113709543E+02  0.95779662202E+01 -0.24830058112E+01  0.69976407464E+02  0.47000000000E+01 0. -1.
        -13    1    6    6    0    0 -0.42227436777E+02  0.17532308867E+02  0.14093684569E+01  0.45744120828E+02  0.00000000000E+00 0.  1.
         14    1    6    6    0    0 -0.27423412921E+00  0.45145894313E+02 -0.72359193014E+02  0.85288216017E+02  0.00000000000E+00 0. -1.
         -5    1    3    3    0  503  0.34446064483E+02 -0.37047567877E+02 -0.34972052267E+02  0.61678100520E+02  0.47000000000E+01 0.  1.
         11    1    4    4    0    0 -0.31278141158E+02 -0.33614304179E+01 -0.31491078790E+02  0.44511901466E+02  0.00000000000E+00 0. -1.
        -12    1    4    4    0    0 -0.29779961963E+02 -0.31847171105E+02 -0.32321731348E+03  0.32614493737E+03  0.00000000000E+00 0.  1.
</event>
<event>
12    1  0.8421768E-002  0.1786074E+03  0.7818608E-02  0.1169469E+00
         21   -1    0    0  503  502  0.00000000000E+00  0.00000000000E+00  0.43852879520E+02  0.43852879520E+02  0.00000000000E+00 0. -1.
         21   -1    0    0  501  503 -0.00000000000E+00 -0.00000000000E+00 -0.10555264807E+04  0.10555264807E+04  0.00000000000E+00 0. -1.
          6    2    1    2  501    0  0.79575598625E+01  0.39972711473E+02 -0.81592392125E+03  0.83524393711E+03  0.17389493607E+03 0.  0.
         24    2    3    3    0    0  0.34313117622E+02  0.81135052660E+02 -0.41807747238E+03  0.43437882185E+03  0.78331993129E+02 0.  0.
         -6    2    1    2    0  502 -0.79575598625E+01 -0.39972711473E+02 -0.19574967995E+03  0.26413542312E+03  0.17259329109E+03 0.  0.
        -24    2    5    5    0    0 -0.48885287498E+02 -0.48917901051E+02 -0.19548675141E+03  0.22197792750E+03  0.79223720839E+02 0.  0.
          5    1    3    3  501    0 -0.26355557760E+02 -0.41162341187E+02 -0.39784644887E+03  0.40086511526E+03  0.47000000000E+01 0. -1.
        -13    1    4    4    0    0  0.48566980349E+02  0.16900627820E+02 -0.16088661577E+03  0.16890496125E+03  0.00000000000E+00 0.  1.
         14    1    4    4    0    0 -0.14253862727E+02  0.64234424840E+02 -0.25719085661E+03  0.26547386060E+03  0.00000000000E+00 0. -1.
         -5    1    5    5    0  502  0.40927727636E+02  0.89451895781E+01 -0.26292853782E+00  0.42157495626E+02  0.47000000000E+01 0.  1.
         13    1    6    6    0    0  0.11471214608E+02 -0.77749451538E+01 -0.62129929713E+00  0.13871717613E+02  0.00000000000E+00 0. -1.
        -14    1    6    6    0    0 -0.60356502107E+02 -0.41142955898E+02 -0.19486545211E+03  0.20810620989E+03  0.00000000000E+00 0.  1.
</event>
<event>
12    1  0.8421768E-002  0.1814830E+03  0.7818608E-02  0.1166804E+00
         21   -1    0    0  501  502  0.00000000000E+00  0.00000000000E+00  0.13930352568E+03  0.13930352568E+03  0.00000000000E+00 0. -1.
         21   -1    0    0  502  503 -0.00000000000E+00 -0.00000000000E+00 -0.24216883950E+03  0.24216883950E+03  0.00000000000E+00 0. -1.
         -6    2    1    2    0  503 -0.15265464185E+02  0.53459449786E+02 -0.85965937709E+02  0.19920423958E+03  0.17088370155E+03 0.  0.
        -24    2    3    3    0    0 -0.44827321379E+02 -0.12843539932E+02 -0.73937301064E+01  0.92126363000E+02  0.79108496729E+02 0.  0.
          6    2    1    2  501    0  0.15265464185E+02 -0.53459449786E+02 -0.16899376119E+02  0.18226812560E+03  0.17275744131E+03 0.  0.
         24    2    5    5    0    0  0.64915105255E+01  0.37641304390E+02 -0.13533172008E+02  0.90563431036E+02  0.80991238979E+02 0.  0.
          5    1    5    5  501    0  0.87739536590E+01 -0.91100754177E+02 -0.33662041111E+01  0.91704694561E+02  0.47000000000E+01 0. -1.
        -11    1    6    6    0    0 -0.17460392617E+02  0.51580369306E+01  0.27517987341E+02  0.32995610051E+02  0.00000000000E+00 0.  1.
         12    1    6    6    0    0  0.23951903143E+02  0.32483267460E+02 -0.41051159349E+02  0.57567820985E+02  0.00000000000E+00 0. -1.
         -5    1    3    3    0  503  0.29561857195E+02  0.66302989718E+02 -0.78572207602E+02  0.10707787658E+03  0.47000000000E+01 0.  1.
         13    1    4    4    0    0 -0.12020205505E+02  0.71636281857E+01 -0.39592821584E+02  0.41992790216E+02  0.00000000000E+00 0. -1.
        -14    1    4    4    0    0 -0.32807115874E+02 -0.20007168118E+02  0.32199091478E+02  0.50133572784E+02  0.00000000000E+00 0.  1.
</event>
<event>
12    1  0.8421768E-002  0.1957258E+03  0.7818608E-02  0.1153704E+00
         21   -1    0    0  503  502  0.00000000000E+00  0.00000000000E+00  0.25218904130E+03  0.25218904130E+03  0.00000000000E+00 0.  1.
         21   -1    0    0  501  503 -0.00000000000E+00 -0.00000000000E+00 -0.15103291032E+03  0.15103291032E+03  0.00000000000E+00 0.  1.
          6    2    1    2  501    0 -0.28417255065E+02 -0.87087802154E+02  0.58549981639E+02  0.20429558908E+03  0.17296462557E+03 0.  0.
         24    2    3    3    0    0  0.29688698440E+02  0.36104966116E+01  0.22212206674E+02  0.90519461876E+02  0.82498099081E+02 0.  0.
         -6    2    1    2    0  502  0.28417255065E+02  0.87087802154E+02  0.42606149345E+02  0.19892636255E+03  0.17136098764E+03 0.  0.
        -24    2    5    5    0    0 -0.45182270071E+02  0.29960273802E+02  0.40881698519E+02  0.10562304896E+03  0.80906487150E+02 0.  0.
          5    1    3    3  501    0 -0.58105953505E+02 -0.90698298765E+02  0.36337774965E+02  0.11377612720E+03  0.47000000000E+01 0. -1.
        -11    1    4    4    0    0  0.47784645105E+02 -0.24865645474E+02  0.16182427157E+02  0.56245387201E+02  0.00000000000E+00 0.  1.
         12    1    4    4    0    0 -0.18095946665E+02  0.28476142086E+02  0.60297795174E+01  0.34274074675E+02  0.00000000000E+00 0. -1.
         -5    1    5    5    0  502  0.73599525136E+02  0.57127528352E+02  0.17244508269E+01  0.93303313588E+02  0.47000000000E+01 0.  1.
         13    1    6    6    0    0 -0.28419048665E+01 -0.50634331480E+01  0.49641938142E+02  0.49980364154E+02  0.00000000000E+00 0. -1.
        -14    1    6    6    0    0 -0.42340365205E+02  0.35023706950E+02 -0.87602396235E+01  0.55642684806E+02  0.00000000000E+00 0.  1.
</event>
<event>
12    1  0.8421768E-002  0.1766950E+03  0.7818608E-02  0.1172022E+00
         21   -1    0    0  503  502  0.00000000000E+00  0.00000000000E+00  0.54658586974E+03  0.54658586974E+03  0.00000000000E+00 0.  1.
         21   -1    0    0  501  503 -0.00000000000E+00 -0.00000000000E+00 -0.55959977786E+02  0.55959977786E+02  0.00000000000E+00 0.  1.
          6    2    1    2  501    0 -0.46809801412E+01  0.16735167723E+01  0.26062255542E+03  0.31487337788E+03  0.17662507034E+03 0.  0.
         24    2    3    3    0    0  0.47862798260E+02 -0.17471968111E+02  0.75436736751E+02  0.12137072757E+03  0.80274747792E+02 0.  0.
         -6    2    1    2    0  502  0.46809801412E+01 -0.16735167723E+01  0.23000333654E+03  0.28767246965E+03  0.17271132777E+03 0.  0.
        -24    2    5    5    0    0 -0.48350378313E+02 -0.41325920348E+02  0.16146702870E+03  0.19225782937E+03  0.82739838159E+02 0.  0.
          5    1    3    3  501    0 -0.52543778401E+02  0.19145484883E+02  0.18518581867E+03  0.19350265031E+03  0.47000000000E+01 0. -1.
        -11    1    4    4    0    0  0.57503936342E+02  0.14877136429E+02  0.59390557935E+02  0.83995656167E+02  0.00000000000E+00 0.  1.
         12    1    4    4    0    0 -0.96411380816E+01 -0.32349104540E+02  0.16046178817E+02  0.37375071407E+02  0.00000000000E+00 0. -1.
         -5    1    5    5    0  502  0.53031358454E+02  0.39652403576E+02  0.68536307838E+02  0.95414640286E+02  0.47000000000E+01 0.  1.
         11    1    6    6    0    0  0.17093608444E+02 -0.25443035201E+02  0.85031442820E+02  0.90387420352E+02  0.00000000000E+00 0. -1.
        -12    1    6    6    0    0 -0.65443986757E+02 -0.15882885147E+02  0.76435585883E+02  0.10187040901E+03  0.00000000000E+00 0.  1.
</event>
<event>
12    1  0.8421768E-002  0.2470736E+03  0.7818608E-02  0.1115189E+00
         21   -1    0    0  501  502  0.00000000000E+00  0.00000000000E+00  0.35192767917E+02  0.35192767917E+02  0.00000000000E+00 0. -1.
         21   -1    0    0  502  503 -0.00000000000E+00 -0.00000000000E+00 -0.18264628723E+04  0.18264628723E+04  0.00000000000E+00 0. -1.
         -6    2    1    2    0  503  0.17609961802E+03  0.18069614651E+02 -0.11052056476E+04  0.11324575796E+04  0.17217159982E+03 0.  0.
        -24    2    3    3    0    0  0.13614271710E+03 -0.10144168244E+02 -0.47722507881E+03  0.50255738418E+03  0.78628270889E+02 0.  0.
          6    2    1    2  501    0 -0.17609961802E+03 -0.18069614651E+02 -0.68606445682E+03  0.72919806060E+03  0.17235946806E+03 0.  0.
         24    2    5    5    0    0 -0.77193320268E+02  0.31959103308E+02 -0.49529820616E+03  0.50851915189E+03  0.79317222849E+02 0.  0.
          5    1    5    5  501    0 -0.98906297755E+02 -0.50028717959E+02 -0.19076625066E+03  0.22067890871E+03  0.47000000000E+01 0. -1.
        -13    1    6    6    0    0 -0.32926091052E+02 -0.23787978463E+02 -0.24296784706E+03  0.24633994824E+03  0.00000000000E+00 0.  1.
         14    1    6    6    0    0 -0.44267229217E+02  0.55747081771E+02 -0.25233035910E+03  0.26217920366E+03  0.00000000000E+00 0. -1.
         -5    1    3    3    0  503  0.39956900924E+02  0.28213782895E+02 -0.62798056876E+03  0.62990019544E+03  0.47000000000E+01 0.  1.
         13    1    4    4    0    0  0.12043598847E+03  0.24935657789E+01 -0.46157755836E+03  0.47703761652E+03  0.00000000000E+00 0. -1.
        -14    1    4    4    0    0  0.15706728634E+02 -0.12637734023E+02 -0.15647520449E+02  0.25519767667E+02  0.00000000000E+00 0.  1.
</event>
<event>
12    1  0.8421768E-002  0.1725847E+03  0.7818608E-02  0.1175192E+00
         21   -1    0    0  501  502  0.00000000000E+00  0.00000000000E+00  0.16477189008E+03  0.16477189008E+03  0.00000000000E+00 0. -1.
         21   -1    0    0  502  503 -0.00000000000E+00 -0.00000000000E+00 -0.19277981124E+03  0.19277981124E+03  0.00000000000E+00 0. -1.
         -6    2    1    2    0  503  0.13528184768E+02 -0.13279327807E+02 -0.58728470730E+02  0.18225418023E+03  0.17148819378E+03 0.  0.
        -24    2    3    3    0    0 -0.39767325065E+02 -0.16539223120E+02  0.13307245990E+02  0.92464020582E+02  0.80731197577E+02 0.  0.
          6    2    1    2  501    0 -0.13528184768E+02  0.13279327807E+02  0.30720549570E+02  0.17529752109E+03  0.17154042207E+03 0.  0.
         24    2    5    5    0    0 -0.14120107156E+02 -0.31422233944E+02  0.72674752489E+02  0.11380910642E+03  0.80524274871E+02 0.  0.
          5    1    5    5  501    0  0.59192238800E+00  0.44701561751E+02 -0.41954202919E+02  0.61488414662E+02  0.47000000000E+01 0. -1.
        -11    1    6    6    0    0  0.32209102708E+02 -0.21348962825E+02  0.43299035623E+02  0.58034567259E+02  0.00000000000E+00 0.  1.
         12    1    6    6    0    0 -0.46329209865E+02 -0.10073271120E+02  0.29375716865E+02  0.55774539165E+02  0.00000000000E+00 0. -1.
         -5    1    3    3    0  503  0.53295509833E+02  0.32598953129E+01 -0.72035716721E+02  0.89790159646E+02  0.47000000000E+01 0.  1.
         13    1    4    4    0    0  0.22040816717E+02  0.54819858268E+01 -0.70218788495E+01  0.23773021531E+02  0.00000000000E+00 0. -1.
        -14    1    4    4    0    0 -0.61808141781E+02 -0.22021208946E+02  0.20329124840E+02  0.68690999051E+02  0.00000000000E+00 0.  1.
</event>
<event>
12    1  0.8421768E-002  0.2134844E+03  0.7818608E-02  0.1138960E+00
         21   -1    0    0  501  502  0.00000000000E+00  0.00000000000E+00  0.90409566528E+02  0.90409566528E+02  0.00000000000E+00 0.  1.
         21   -1    0    0  502  503 -0.00000000000E+00 -0.00000000000E+00 -0.86733129791E+03  0.86733129791E+03  0.00000000000E+00 0.  1.
         -6    2    1    2    0  503 -0.36860617891E+02  0.12034819010E+03 -0.69866301386E+03  0.73036444553E+03  0.17163864468E+03 0.  0.
        -24    2    3    3    0    0 -0.66993508445E+02  0.10519593313E+03 -0.66930428017E+03  0.68540215880E+03  0.79079613742E+02 0.  0.
          6    2    1    2  501    0  0.36860617891E+02 -0.12034819010E+03 -0.78258717522E+02  0.22737641891E+03  0.17243322474E+03 0.  0.
         24    2    5    5    0    0 -0.31389586654E+02 -0.18284227527E+02 -0.78050509192E+01  0.85739728696E+02  0.77270713278E+02 0.  0.
          5    1    5    5  501    0  0.68250204546E+02 -0.10206396257E+03 -0.70453666603E+02  0.14163669021E+03  0.47000000000E+01 0. -1.
        -13    1    6    6    0    0  0.12044330494E+02 -0.35807455584E+02 -0.92019225453E+01  0.38883353135E+02  0.00000000000E+00 0.  1.
         14    1    6    6    0    0 -0.43433917148E+02  0.17523228058E+02  0.13968716261E+01  0.46856375561E+02  0.00000000000E+00 0. -1.
         -5    1    3    3    0  503  0.30132890553E+02  0.15152256964E+02 -0.29358733684E+02  0.44962286727E+02  0.47000000000E+01 0.  1.
         11    1    4    4    0    0  0.18508806825E+01  0.57582611587E+01 -0.86550179494E+00  0.61100265327E+01  0.00000000000E+00 0. -1.
        -12    1    4    4    0    0 -0.68844389127E+02  0.99437671975E+02 -0.66843877838E+03  0.67929213227E+03  0.00000000000E+00 0.  1.
</event>
<event>
12    1  0.8421768E-002  0.2155481E+03  0.7818608E-02  0.1137443E+00
         21   -1    0    0  503  502  0.00000000000E+00  0.00000000000E+00  0.67180646233E+02  0.67180646233E+02  0.00000000000E+00 0. -1.
         21   -1    0    0  501  503 -0.00000000000E+00 -0.00000000000E+00 -0.76851619452E+03  0.76851619452E+03  0.00000000000E+00 0. -1.
          6    2    1    2  501    0  0.70431416474E+01 -0.12848206512E+03 -0.48491630708E+03  0.53024921831E+03  0.17164836657E+03 0.  0.
         24    2    3    3    0    0  0.26298758234E+02  0.74167340398E+01 -0.10574723334E+03  0.12697444987E+03  0.64756474049E+02 0.  0.
         -6    2    1    2    0  502 -0.70431416474E+01  0.12848206512E+03 -0.21641924120E+03  0.30544762244E+03  0.17292690707E+03 0.  0.
        -24    2    5    5    0    0 -0.66078523930E+01  0.15594670546E+03 -0.21758187733E+03  0.27755608844E+03  0.73023764839E+02 0.  0.
          5    1    3    3  501    0 -0.19255616586E+02 -0.13589879916E+03 -0.37916907374E+03  0.40327476845E+03  0.47000000000E+01 0. -1.
        -11    1    4    4    0    0  0.39645701129E+02 -0.11738939489E+02 -0.41350152082E+02  0.58475801795E+02  0.00000000000E+00 0.  1.
         12    1    4    4    0    0 -0.13346942895E+02  0.19155673529E+02 -0.64397081259E+02  0.68498648072E+02  0.00000000000E+00 0. -1.
         -5    1    5    5    0  502 -0.43528925441E+00 -0.27464640346E+02  0.11626361248E+01  0.27891533999E+02  0.47000000000E+01 0.  1.
         13    1    6    6    0    0  0.13546181479E+02  0.11487317614E+03 -0.10573666889E+03  0.15671499219E+03  0.00000000000E+00 0. -1.
        -14    1    6    6    0    0 -0.20154033872E+02  0.41073529320E+02 -0.11184520844E+03  0.12084109625E+03  0.00000000000E+00 0.  1.
</event>
<event>
12    1  0.8421768E-002  0.2084570E+03  0.7818608E-02  0.1146374E+00
         21   -1    0    0  501  502  0.00000000000E+00  0.00000000000E+00  0.12497562461E+03  0.12497562461E+03  0.00000000000E+00 0. -1.
         21   -1    0    0  502  503 -0.00000000000E+00 -0.00000000000E+00 -0.33138477528E+03  0.33138477528E+03  0.00000000000E+00 0.  1.
         -6    2    1    2    0  503 -0.47610681858E+02  0.65608327640E+02 -0.14167317013E+03  0.23808293479E+03  0.17332330200E+03 0.  0.
        -24    2    3    3    0    0 -0.55125929933E+02 -0.21259156909E+02 -0.90383305416E+02  0.13681507686E+03  0.84014305066E+02 0.  0.
          6    2    1    2  501    0  0.47610681858E+02 -0.65608327640E+02 -0.64735980540E+02  0.21827746511E+03  0.19204966783E+03 0.  0.
         24    2    5    5    0    0  0.82974734943E+02  0.14663250240E+02 -0.58119150618E+02  0.13018651833E+03  0.80441757442E+02 0.  0.
          5    1    5    5  501    0 -0.35364053084E+02 -0.80271577881E+02 -0.66168299220E+01  0.88090946778E+02  0.47000000000E+01 0. -1.
        -13    1    6    6    0    0  0.54031280506E+02 -0.21526239146E+02 -0.30881794961E+01  0.58243412482E+02  0.00000000000E+00 0.  1.
         14    1    6    6    0    0  0.28943454436E+02  0.36189489386E+02 -0.55030971122E+02  0.71943105850E+02  0.00000000000E+00 0. -1.
         -5    1    3    3    0  503  0.75152480744E+01  0.86867484549E+02 -0.51289864716E+02  0.10126785792E+03  0.47000000000E+01 0.  1.
         11    1    4    4    0    0  0.13428730112E+02  0.18596506937E+02 -0.15025858899E+02  0.27421475130E+02  0.00000000000E+00 0. -1.
        -12    1    4    4    0    0 -0.68554660045E+02 -0.39855663846E+02 -0.75357446517E+02  0.10939360173E+03  0.00000000000E+00 0.  1.
</event>
<event>
12    1  0.8421768E-002  0.1873301E+03  0.7818608E-02  0.1160990E+00
         21   -1    0    0  501  502  0.00000000000E+00  0.00000000000E+00  0.11938961960E+04  0.11938961960E+04  0.00000000000E+00 0.  1.
         21   -1    0    0  502  503 -0.00000000000E+00 -0.00000000000E+00 -0.60754100859E+02  0.60754100859E+02  0.00000000000E+00 0.  1.
         -6    2    1    2    0  503 -0.72685874271E+02  0.20428381258E+02  0.11569072860E+03  0.22017469454E+03  0.17144094129E+03 0.  0.
        -24    2    3    3    0    0  0.23243539531E+02  0.82876496299E+01  0.82191339594E+02  0.11773374149E+03  0.80603165663E+02 0.  0.
          6    2    1    2  501    0  0.72685874271E+02 -0.20428381258E+02  0.10174513665E+04  0.10344756023E+04  0.17097348755E+03 0.  0.
         24    2    5    5    0    0 -0.21134282858E+02  0.85112837927E+01  0.35828348825E+03  0.36801922125E+03  0.80944359875E+02 0.  0.
          5    1    5    5  501    0  0.93820157129E+02 -0.28939665051E+02  0.65916787824E+03  0.66645638102E+03  0.47000000000E+01 0. -1.
        -11    1    6    6    0    0 -0.70127407158E+00  0.40990090334E+02  0.12365376745E+03  0.13027253546E+03  0.00000000000E+00 0.  1.
         12    1    6    6    0    0 -0.20433008786E+02 -0.32478806542E+02  0.23462972080E+03  0.23774668579E+03  0.00000000000E+00 0. -1.
         -5    1    3    3    0  503 -0.95929413802E+02  0.12140731629E+02  0.33499389005E+02  0.10244095304E+03  0.47000000000E+01 0.  1.
         11    1    4    4    0    0 -0.19535119136E+02  0.29604263145E+02  0.26076542918E+02  0.44022941366E+02  0.00000000000E+00 0. -1.
        -12    1    4    4    0    0  0.42778658667E+02 -0.21316613515E+02  0.56114796676E+02  0.73710800125E+02  0.00000000000E+00 0.  1.
</event>
<event>
12    1  0.8421768E-002  0.2289234E+03  0.7818608E-02  0.1127796E+00
         21   -1    0    0  501  502  0.00000000000E+00  0.00000000000E+00  0.24175990856E+03  0.24175990856E+03  0.00000000000E+00 0. -1.
         21   -1    0    0  502  503 -0.00000000000E+00 -0.00000000000E+00 -0.21695074587E+03  0.21695074587E+03  0.00000000000E+00 0.  1.
         -6    2    1    2    0  503 -0.12579410791E+03 -0.81500622267E+02  0.35879140839E+02  0.22951972821E+03  0.17007493606E+03 0.  0.
        -24    2    3    3    0    0 -0.61019429630E+02 -0.39182444593E+02 -0.45717716074E+02  0.11697318599E+03  0.79586317416E+02 0.  0.
          6    2    1    2  501    0  0.12579410791E+03  0.81500622267E+02 -0.11069978150E+02  0.22919092623E+03  0.17303013389E+03 0.  0.
         24    2    5    5    0    0  0.53935650990E+02  0.10686403359E+03  0.22826781760E+02  0.14565637770E+03  0.79785601936E+02 0.  0.
          5    1    5    5  501    0  0.71858456919E+02 -0.25363411327E+02 -0.33896759910E+02  0.83534548526E+02  0.47000000000E+01 0. -1.
        -11    1    6    6    0    0  0.73240878677E+02  0.65705195837E+02  0.15353305030E+02  0.99584753074E+02  0.00000000000E+00 0.  1.
         12    1    6    6    0    0 -0.19305227687E+02  0.41158837757E+02  0.74734767299E+01  0.46071624630E+02  0.00000000000E+00 0. -1.
         -5    1    3    3    0  503 -0.64774678279E+02 -0.42318177674E+02  0.81596856913E+02  0.11254654222E+03  0.47000000000E+01 0.  1.
         13    1    4    4    0    0 -0.91492491925E+01 -0.49839049401E+02 -0.65183188612E+01  0.51089412668E+02  0.00000000000E+00 0. -1.
        -14    1    4    4    0    0 -0.51870180437E+02  0.10656604809E+02 -0.39199397213E+02  0.65883773317E+02  0.00000000000E+00 0.  1.
</event>
<event>
12    1  0.8421768E-002  0.2255388E+03  0.7818608E-02  0.1129894E+00
         21   -1    0    0  503  502  0.00000000000E+00  0.00000000000E+00  0.12830721164E+04  0.12830721164E+04  0.00000000000E+00 0. -1.
         21   -1    0    0  501  503 -0.00000000000E+00 -0.00000000000E+00 -0.40411506618E+02  0.40411506618E+02  0.00000000000E+00 0. -1.
          6    2    1    2  501    0 -0.85714233035E+02  0.11743173423E+03  0.71611360547E+03  0.75066647936E+03  0.17188462801E+03 0.  0.
         24    2    3    3    0    0 -0.23261464760E+02  0.80290046312E+02  0.20286621493E+03  0.23227972496E+03  0.76233733908E+02 0.  0.
         -6    2    1    2    0  502  0.85714233035E+02 -0.11743173423E+03  0.52654700431E+03  0.57281714365E+03  0.17242560821E+03 0.  0.
        -24    2    5    5    0    0  0.20557869069E+02 -0.82434989850E+02  0.45519217083E+03  0.46993990544E+03  0.80158897209E+02 0.  0.
          5    1    3    3  501    0 -0.62452768275E+02  0.37141687922E+02  0.51324739054E+03  0.51838675440E+03  0.47000000000E+01 0. -1.
        -13    1    4    4    0    0  0.25903314634E+01 -0.12230809886E+02  0.75171448579E+01  0.14588008581E+02  0.00000000000E+00 0.  1.
         14    1    4    4    0    0 -0.25851796223E+02  0.92520856198E+02  0.19534907008E+03  0.21769171638E+03  0.00000000000E+00 0. -1.
         -5    1    5    5    0  502  0.65156363966E+02 -0.34996744384E+02  0.71354833473E+02  0.10287723822E+03  0.47000000000E+01 0.  1.
         13    1    6    6    0    0  0.28632100114E+02 -0.56247571979E+02  0.14012779317E+03  0.15368599458E+03  0.00000000000E+00 0. -1.
        -14    1    6    6    0    0 -0.80742310458E+01 -0.26187417871E+02  0.31506437766E+03  0.31625391086E+03  0.00000000000E+00 0.  1.
</event>
<event>
12    1  0.8421768E-002  0.2125375E+03  0.7818608E-02  0.1139930E+00
         21   -1    0    0  501  502  0.00000000000E+00  0.00000000000E+00  0.60141859180E+03  0.60141859180E+03  0.00000000000E+00 0.  1.
         21   -1    0    0  502  503 -0.00000000000E+00 -0.00000000000E+00 -0.88490899918E+02  0.88490899918E+02  0.00000000000E+00 0. -1.
         -6    2    1    2    0  503 -0.59692505552E+02 -0.10904151245E+03  0.12006242889E+03  0.24410487663E+03  0.17239187134E+03 0.  0.
        -24    2    3    3    0    0 -0.78756240002E+02 -0.19711873862E+02  0.10354984529E+03  0.15116421965E+03  0.74410668141E+02 0.  0.
          6    2    1    2  501    0  0.59692505552E+02  0.10904151245E+03  0.39286526299E+03  0.44580461509E+03  0.17013345736E+03 0.  0.
         24    2    5    5    0    0  0.38824457240E+02  0.38360722577E+01  0.26132870201E+03  0.27601763985E+03  0.79818500888E+02 0.  0.
          5    1    5    5  501    0  0.20868048312E+02  0.10520544019E+03  0.13153656099E+03  0.16978697524E+03  0.47000000000E+01 0. -1.
        -11    1    6    6    0    0 -0.20939786145E+02  0.15443587705E+02  0.10691520335E+03  0.11003562947E+03  0.00000000000E+00 0.  1.
         12    1    6    6    0    0  0.59764243385E+02 -0.11607515447E+02  0.15441349866E+03  0.16598201038E+03  0.00000000000E+00 0. -1.
         -5    1    3    3    0  503  0.19063734450E+02 -0.89329638588E+02  0.16512583597E+02  0.92940656973E+02  0.47000000000E+01 0.  1.
         11    1    4    4    0    0 -0.66535196937E+02 -0.56747514708E+01  0.26407914226E+02  0.71808865535E+02  0.00000000000E+00 0. -1.
        -12    1    4    4    0    0 -0.12221043065E+02 -0.14037122391E+02  0.77141931067E+02  0.79355354119E+02  0.00000000000E+00 0.  1.
</event>
<event>
12    1  0.8421768E-002  0.1833932E+03  0.7818608E-02  0.1164815E+00
         21   -1    0    0  501  502  0.00000000000E+00  0.00000000000E+00  0.23558342952E+03  0.23558342952E+03  0.00000000000E+00 0. -1.
         21   -1    0    0  502  503 -0.00000000000E+00 -0.00000000000E+00 -0.16325131923E+03  0.16325131923E+03  0.00000000000E+00 0. -1.
         -6    2    1    2    0  503  0.15025539811E+02 -0.58209979241E+02 -0.35819159667E+02  0.18685847320E+03  0.17325965565E+03 0.  0.
        -24    2    3    3    0    0  0.21252807833E+02 -0.75720496893E+02  0.31113545704E+02  0.11723466876E+03  0.81182752745E+02 0.  0.
          6    2    1    2  501    0 -0.15025539811E+02  0.58209979241E+02  0.10815126995E+03  0.21197627555E+03  0.17211355459E+03 0.  0.
         24    2    5    5    0    0 -0.40071370361E+00  0.43533625295E+02  0.14402707179E+03  0.17028162288E+03  0.79728894270E+02 0.  0.
          5    1    5    5  501    0 -0.14624826108E+02  0.14676353947E+02 -0.35875801836E+02  0.41694652669E+02  0.47000000000E+01 0. -1.
        -11    1    6    6    0    0  0.19869094878E+02 -0.10842426164E+02  0.83153900322E+02  0.86179523525E+02  0.00000000000E+00 0.  1.
         12    1    6    6    0    0 -0.20269808582E+02  0.54376051459E+02  0.60873171467E+02  0.84102099359E+02  0.00000000000E+00 0. -1.
         -5    1    3    3    0  503 -0.62272680215E+01  0.17510517651E+02 -0.66932705371E+02  0.69623804433E+02  0.47000000000E+01 0.  1.
         11    1    4    4    0    0  0.51798665785E+02 -0.47875095190E+02  0.27637014766E+02  0.75755733128E+02  0.00000000000E+00 0. -1.
        -12    1    4    4    0    0 -0.30545857953E+02 -0.27845401703E+02  0.34765309379E+01  0.41478935635E+02  0.00000000000E+00 0.  1.
</event>
<event>
12    1  0.8421768E-002  0.1850915E+03  0.7818608E-02  0.1163132E+00
         21   -1    0    0  501  502  0.00000000000E+00  0.00000000000E+00  0.21853025136E+03  0.21853025136E+03  0.00000000000E+00 0. -1.
         21   -1    0    0  502  503 -0.00000000000E+00 -0.00000000000E+00 -0.28564335338E+03  0.28564335338E+03  0.00000000000E+00 0. -1.
         -6    2    1    2    0  503  0.26083855881E+02  0.64150454660E+02 -0.20331345341E+03  0.27494583273E+03  0.17164848449E+03 0.  0.
        -24    2    3    3    0    0 -0.66831252577E+01  0.54528232723E+02 -0.34923067156E+02  0.10306309831E+03  0.79902373476E+02 0.  0.
          6    2    1    2  501    0 -0.26083855881E+02 -0.64150454660E+02  0.13620035139E+03  0.22922777201E+03  0.17087769711E+03 0.  0.
         24    2    5    5    0    0 -0.14272015851E+02  0.11774739846E+02 -0.47075738115E+01  0.68662246099E+02  0.65954589327E+02 0.  0.
          5    1    5    5  501    0 -0.11811840030E+02 -0.75925194506E+02  0.14090792520E+03  0.16056552591E+03  0.47000000000E+01 0. -1.
        -11    1    6    6    0    0 -0.53699577409E+01  0.38938544896E+02  0.17898884988E+01  0.39347813479E+02  0.00000000000E+00 0.  1.
         12    1    6    6    0    0 -0.89020581103E+01 -0.27163805049E+02 -0.64974623103E+01  0.29314432620E+02  0.00000000000E+00 0. -1.
         -5    1    3    3    0  503  0.32766981139E+02  0.96222219369E+01 -0.16839038625E+03  0.17188273441E+03  0.47000000000E+01 0.  1.
         13    1    4    4    0    0  0.24605927642E+02  0.31783045983E+02 -0.47651580608E+02  0.62340090002E+02  0.00000000000E+00 0. -1.
        -14    1    4    4    0    0 -0.31289052900E+02  0.22745186740E+02  0.12728513451E+02  0.40723008311E+02  0.00000000000E+00 0.  1.
</event>
<event>
12    1  0.8421768E-002  0.1746585E+03  0.7818608E-02  0.1173607E+00
         21   -1    0    0  503  502  0.00000000000E+00  0.00000000000E+00  0.68667354664E+03  0.68667354664E+03  0.00000000000E+00 0. -1.
         21   -1    0    0  501  503 -0.00000000000E+00 -0.00000000000E+00 -0.44085671480E+02  0.44085671480E+02  0.00000000000E+00 0. -1.
          6    2    1    2  501    0  0.49995181443E+01 -0.30083455017E+02  0.34741051392E+03  0.38884398731E+03  0.17197549778E+03 0.  0.
         24    2    3    3    0    0 -0.17824503670E+00 -0.86392230552E+02  0.25117421385E+03  0.27712557842E+03  0.79034493993E+02 0.  0.
         -6    2    1    2    0  502 -0.49995181443E+01  0.30083455017E+02  0.29517736124E+03  0.34191523081E+03  0.16984210616E+03 0.  0.
        -24    2    5    5    0    0 -0.45967002041E+02  0.52991424320E+02  0.26480039470E+03  0.28580854769E+03  0.81524355693E+02 0.  0.
          5    1    3    3  501    0  0.51777631810E+01  0.56308775535E+02  0.96236300072E+02  0.11171840889E+03  0.47000000000E+01 0. -1.
        -13    1    4    4    0    0  0.12673289692E+02  0.41217509945E+01  0.96789574429E+02  0.97702726784E+02  0.00000000000E+00 0.  1.
         14    1    4    4    0    0 -0.12851534729E+02 -0.90513981546E+02  0.15438463942E+03  0.17942285164E+03  0.00000000000E+00 0. -1.
         -5    1    5    5    0  502  0.40967483897E+02 -0.22907969303E+02  0.30376966537E+02  0.56106683117E+02  0.47000000000E+01 0.  1.
         11    1    6    6    0    0  0.11258020087E+02  0.47194739722E+02  0.97664540531E+02  0.10905250548E+03  0.00000000000E+00 0. -1.
        -12    1    6    6    0    0 -0.57225022128E+02  0.57966845981E+01  0.16713585417E+03  0.17675604221E+03  0.00000000000E+00 0.  1.
</event>
<event>
12    1  0.8421768E-002  0.2704781E+03  0.7818608E-02  0.1101119E+00
         21   -1    0    0  503  502  0.00000000000E+00  0.00000000000E+00  0.17599045701E+04  0.17599045701E+04  0.00000000000E+00 0.  1.
         21   -1    0    0  501  503 -0.00000000000E+00 -0.00000000000E+00 -0.41878808997E+02  0.41878808997E+02  0.00000000000E+00 0. -1.
          6    2    1    2  501    0 -0.10906836757E+03 -0.17643253031E+03  0.76895742125E+03  0.81514041684E+03  0.17359158075E+03 0.  0.
         24    2    3    3    0    0 -0.38363821322E+02 -0.14573009529E+03  0.35707246824E+03  0.39607827718E+03  0.81659112284E+02 0.  0.
         -6    2    1    2    0  502  0.10906836757E+03  0.17643253031E+03  0.94906833985E+03  0.98664296226E+03  0.17236378597E+03 0.  0.
        -24    2    5    5    0    0  0.25858527186E+02  0.38947638722E+02  0.20229506367E+03  0.22275920869E+03  0.80701860451E+02 0.  0.
          5    1    3    3  501    0 -0.70704546243E+02 -0.30702435019E+02  0.41188495301E+03  0.41906213965E+03  0.47000000000E+01 0. -1.
        -13    1    4    4    0    0 -0.18604799246E+02 -0.68206700952E+02  0.26421725812E+03  0.27351243500E+03  0.00000000000E+00 0.  1.
         14    1    4    4    0    0 -0.19759022076E+02 -0.77523394343E+02  0.92855210120E+02  0.12256584218E+03  0.00000000000E+00 0. -1.
         -5    1    5    5    0  502  0.83209840379E+02  0.13748489159E+03  0.74677327618E+03  0.76388375357E+03  0.47000000000E+01 0.  1.
         11    1    6    6    0    0 -0.27488570768E+01  0.55223477823E+02  0.15923124555E+03  0.16855793745E+03  0.00000000000E+00 0. -1.
        -12    1    6    6    0    0  0.28607384263E+02 -0.16275839101E+02  0.43063818120E+02  0.54201271238E+02  0.00000000000E+00 0.  1.
</event>
<event>
12    1  0.8421768E-002  0.2570846E+03  0.7818608E-02  0.1109310E+00
         21   -1    0    0  503  502  0.00000000000E+00  0.00000000000E+00  0.44142239573E+03  0.44142239573E+03  0.00000000000E+00 0. -1.
         21   -1    0    0  501  503 -0.00000000000E+00 -0.00000000000E+00 -0.31160036450E+03  0.31160036450E+03  0.00000000000E+00 0.  1.
          6    2    1    2  501    0  0.64992664020E+02 -0.17625323635E+03 -0.20789492019E+03  0.32858759943E+03  0.17163992238E+03 0.  0.
         24    2    3    3    0    0 -0.24847596301E+02 -0.10593627777E+03 -0.74026494898E+02  0.15263705999E+03  0.77319157691E+02 0.  0.
         -6    2    1    2    0  502 -0.64992664020E+02  0.17625323635E+03  0.33771695142E+03  0.42443516080E+03  0.17550845207E+03 0.  0.
        -24    2    5    5    0    0 -0.33871819323E+02  0.22440800810E+02  0.18442539621E+03  0.20501054230E+03  0.79785374632E+02 0.  0.
          5    1    3    3  501    0  0.89840260320E+02 -0.70316958589E+02 -0.13386842529E+03  0.17595053944E+03  0.47000000000E+01 0. -1.
        -11    1    4    4    0    0  0.25776284978E+02 -0.32927788237E+02 -0.38866676255E+02  0.57090057178E+02  0.00000000000E+00 0.  1.
         12    1    4    4    0    0 -0.50623881279E+02 -0.73008489528E+02 -0.35159818643E+02  0.95547002810E+02  0.00000000000E+00 0. -1.
         -5    1    5    5    0  502 -0.31120844696E+02  0.15381243554E+03  0.15329155522E+03  0.21942461850E+03  0.47000000000E+01 0.  1.
         11    1    6    6    0    0 -0.22434500527E+02  0.37001223885E+02  0.18110147538E+03  0.18619919916E+03  0.00000000000E+00 0. -1.
        -12    1    6    6    0    0 -0.11437318796E+02 -0.14560423075E+02  0.33239208293E+01  0.18811343148E+02  0.00000000000E+00 0.  1.
</event>
<event>
12    1  0.8421768E-002  0.1778002E+03  0.7818608E-02  0.1170519E+00
         21   -1    0    0  501  502  0.00000000000E+00  0.00000000000E+00  0.14141901341E+04  0.14141901341E+04  0.00000000000E+00 0. -1.
         21   -1    0    0  502  503 -0.00000000000E+00 -0.00000000000E+00 -0.22107236738E+02  0.22107236738E+02  0.00000000000E+00 0. -1.
         -6    2    1    2    0  503 -0.44941319236E+02  0.17455939348E+02  0.72271567014E+03  0.74371856224E+03  0.16874515684E+03 0.  0.
        -24    2    3    3    0    0 -0.94484258051E+02  0.20302560742E+02  0.50118582639E+03  0.51664992126E+03  0.80002747326E+02 0.  0.
          6    2    1    2  501    0  0.44941319236E+02 -0.17455939348E+02  0.66936722724E+03  0.69257880862E+03  0.17113880112E+03 0.  0.
         24    2    5    5    0    0  0.26634255628E+02 -0.76542378036E+02  0.48649651347E+03  0.49947224796E+03  0.78902152407E+02 0.  0.
          5    1    5    5  501    0  0.18307063608E+02  0.59086438688E+02  0.18287071377E+03  0.19310656065E+03  0.47000000000E+01 0. -1.
        -11    1    6    6    0    0 -0.26881977480E+02 -0.21143897321E+02  0.19467673229E+03  0.19765812708E+03  0.00000000000E+00 0.  1.
         12    1    6    6    0    0  0.53516233109E+02 -0.55398480715E+02  0.29181978118E+03  0.30181412088E+03  0.00000000000E+00 0. -1.
         -5    1    3    3    0  503  0.49542938815E+02 -0.28466213935E+01  0.22152984376E+03  0.22706864098E+03  0.47000000000E+01 0.  1.
         11    1    4    4    0    0 -0.32006416497E+02 -0.28540959104E+02  0.12366299726E+03  0.13088748579E+03  0.00000000000E+00 0. -1.
        -12    1    4    4    0    0 -0.62477841554E+02  0.48843519846E+02  0.37752282913E+03  0.38576243548E+03  0.00000000000E+00 0.  1.
</event>
<event>
12    1  0.8421768E-002  0.2199124E+03  0.7818608E-02  0.1133977E+00
         21   -1    0    0  503  502  0.00000000000E+00  0.00000000000E+00  0.15867447361E+03  0.15867447361E+03  0.00000000000E+00 0.  1.
         21   -1    0    0  501  503 -0.00000000000E+00 -0.00000000000E+00 -0.30683760666E+03  0.30683760666E+03  0.00000000000E+00 0. -1.
          6    2    1    2  501    0  0.49220663097E+02  0.12308994262E+03 -0.94070761176E+02  0.23904480078E+03  0.17526922441E+03 0.  0.
         24    2    3    3    0    0  0.64785662793E+02  0.82259090558E+02  0.28218792767E+01  0.13265071510E+03  0.81391087532E+02 0.  0.
         -6    2    1    2    0  502 -0.49220663097E+02 -0.12308994262E+03 -0.54092371883E+02  0.22646727949E+03  0.17546405994E+03 0.  0.
        -24    2    5    5    0    0 -0.13060001405E+00 -0.13528882593E+03 -0.71383179419E+02  0.17280435865E+03  0.80390948422E+02 0.  0.
          5    1    3    3  501    0 -0.15564999696E+02  0.40830852062E+02 -0.96892640453E+02  0.10639408569E+03  0.47000000000E+01 0. -1.
        -11    1    4    4    0    0  0.35428532147E+02  0.90656755733E+02 -0.13105180682E+02  0.98211883247E+02  0.00000000000E+00 0.  1.
         12    1    4    4    0    0  0.29357130647E+02 -0.83976651750E+01  0.15927059958E+02  0.34438831849E+02  0.00000000000E+00 0. -1.
         -5    1    5    5    0  502 -0.49090063083E+02  0.12198883305E+02  0.17290807536E+02  0.53662920836E+02  0.47000000000E+01 0.  1.
         11    1    6    6    0    0 -0.27596223838E+02 -0.99875875998E+02 -0.74894834224E+02  0.12785139174E+03  0.00000000000E+00 0. -1.
        -12    1    6    6    0    0  0.27465623824E+02 -0.35412949927E+02  0.35116548054E+01  0.44952966910E+02  0.00000000000E+00 0.  1.
</event>
<event>
12    1  0.8421768E-002  0.2055959E+03  0.7818608E-02  0.1145164E+00
         21   -1    0    0  503  502  0.00000000000E+00  0.00000000000E+00  0.11997113235E+04  0.11997113235E+04  0.00000000000E+00 0.  1.
         21   -1    0    0  501  503 -0.00000000000E+00 -0.00000000000E+00 -0.35709232118E+02  0.35709232118E+02  0.00000000000E+00 0.  1.
          6    2    1    2  501    0  0.85134165896E+02  0.72567429063E+02  0.65672066491E+03  0.68805948838E+03  0.17213358147E+03 0.  0.
         24    2    3    3    0    0 -0.17439365659E+01  0.49570594906E+02  0.48696205896E+03  0.49592221099E+03  0.79664969064E+02 0.  0.
         -6    2    1    2    0  502 -0.85134165896E+02 -0.72567429063E+02  0.50728142645E+03  0.54736106721E+03  0.17249879512E+03 0.  0.
        -24    2    5    5    0    0 -0.35849969235E+02  0.28290173462E+02  0.27681360297E+03  0.29096548284E+03  0.77133567304E+02 0.  0.
          5    1    3    3  501    0  0.86878102462E+02  0.22996834158E+02  0.16975860595E+03  0.19213727739E+03  0.47000000000E+01 0. -1.
        -11    1    4    4    0    0  0.37895792155E+02  0.31592486588E+02  0.29409259937E+03  0.29820233613E+03  0.00000000000E+00 0.  1.
         12    1    4    4    0    0 -0.39639728720E+02  0.17978108318E+02  0.19286945960E+03  0.19771987486E+03  0.00000000000E+00 0. -1.
         -5    1    5    5    0  502 -0.49284196661E+02 -0.10085760253E+03  0.23046782348E+03  0.25639558437E+03  0.47000000000E+01 0.  1.
         13    1    6    6    0    0 -0.33270881942E+02 -0.20055304031E+02  0.15711667539E+03  0.16184812785E+03  0.00000000000E+00 0. -1.
        -14    1    6    6    0    0 -0.25790872928E+01  0.48345477494E+02  0.11969692758E+03  0.12911735498E+03  0.00000000000E+00 0.  1.
</event>
<event>
12    1  0.8421768E-002  0.2220580E+03  0.7818608E-02  0.1132748E+00
         21   -1    0    0  503  502  0.00000000000E+00  0.00000000000E+00  0.97465729213E+02  0.97465729213E+02  0.00000000000E+00 0. -1.
         21   -1    0    0  501  503 -0.00000000000E+00 -0.00000000000E+00 -0.10271616502E+04  0.10271616502E+04  0.00000000000E+00 0.  1.
          6    2    1    2  501    0  0.17490902627E+02 -0.13393192041E+03 -0.86833305561E+03  0.89627676009E+03  0.17625562184E+03 0.  0.
         24    2    3    3    0    0  0.69039700390E+02 -0.36018780396E+02 -0.39928035821E+03  0.41432574134E+03  0.78595055253E+02 0.  0.
         -6    2    1    2    0  502 -0.17490902627E+02  0.13393192041E+03 -0.61362865404E+02  0.22835061935E+03  0.17359410453E+03 0.  0.
        -24    2    5    5    0    0 -0.44597606358E+02  0.11017296664E+03  0.16453048542E+02  0.14246308979E+03  0.76798437962E+02 0.  0.
          5    1    3    3  501    0 -0.51548797763E+02 -0.97913140019E+02 -0.46905269739E+03  0.48195101875E+03  0.47000000000E+01 0. -1.
        -11    1    4    4    0    0  0.49485425517E+02 -0.31475798706E+02 -0.38559540258E+03  0.39002993184E+03  0.00000000000E+00 0.  1.
         12    1    4    4    0    0  0.19554274873E+02 -0.45429816902E+01 -0.13684955637E+02  0.24295809499E+02  0.00000000000E+00 0. -1.
         -5    1    5    5    0  502  0.27106703731E+02  0.23758953771E+02 -0.77815913946E+02  0.85887529564E+02  0.47000000000E+01 0.  1.
         13    1    6    6    0    0 -0.50601989167E+02  0.77131770089E+02 -0.18397295628E+02  0.94065571551E+02  0.00000000000E+00 0. -1.
        -14    1    6    6    0    0  0.60043828089E+01  0.33041196555E+02  0.34850344170E+02  0.48397518237E+02  0.00000000000E+00 0.  1.
</event>
<event>
12    1  0.8421768E-002  0.2024546E+03  0.7818608E-02  0.1148193E+00
         21   -1    0    0  503  502  0.00000000000E+00  0.00000000000E+00  0.82311403787E+02  0.82311403787E+02  0.00000000000E+00 0.  1.
         21   -1    0    0  501  503 -0.00000000000E+00 -0.00000000000E+00 -0.49667352145E+03  0.49667352145E+03  0.00000000000E+00 0.  1.
          6    2    1    2  501    0 -0.10536066236E+03 -0.18726792805E+02 -0.17785419361E+03  0.26765894798E+03  0.16899004796E+03 0.  0.
         24    2    3    3    0    0 -0.12451505815E+03  0.86740267928E+01 -0.18149432483E+03  0.23370255907E+03  0.78086219799E+02 0.  0.
         -6    2    1    2    0  502  0.10536066236E+03  0.18726792805E+02 -0.23650792405E+03  0.31132597725E+03  0.17186129300E+03 0.  0.
        -24    2    5    5    0    0  0.36749625059E+02 -0.48580448270E+02 -0.83188695442E+02  0.13031046686E+03  0.79686032828E+02 0.  0.
          5    1    3    3  501    0  0.19154395789E+02 -0.27400819598E+02  0.36401312257E+01  0.33956388913E+02  0.47000000000E+01 0. -1.
        -13    1    4    4    0    0 -0.11724899465E+03 -0.16319046712E+02 -0.12884206229E+03  0.17496832585E+03  0.00000000000E+00 0.  1.
         14    1    4    4    0    0 -0.72660634938E+01  0.24993073505E+02 -0.52652262539E+02  0.58734233224E+02  0.00000000000E+00 0. -1.
         -5    1    5    5    0  502  0.68611037300E+02  0.67307241075E+02 -0.15331922861E+03  0.18101551039E+03  0.47000000000E+01 0.  1.
         11    1    6    6    0    0  0.15596533918E+02  0.25644174865E+01 -0.72166284813E+02  0.73876929897E+02  0.00000000000E+00 0. -1.
        -12    1    6    6    0    0  0.21153091141E+02 -0.51144865757E+02 -0.11022410629E+02  0.56433536963E+02  0.00000000000E+00 0.  1.
</event>
<event>
12    1  0.8421768E-002  0.2931243E+03  0.7818608E-02  0.1088788E+00
         21   -1    0    0  503  502  0.00000000000E+00  0.00000000000E+00  0.10746312559E+04  0.10746312559E+04  0.00000000000E+00 0.  1.
         21   -1    0    0  501  503 -0.00000000000E+00 -0.00000000000E+00 -0.92582782883E+02  0.92582782883E+02  0.00000000000E+00 0.  1.
          6    2    1    2  501    0  0.20934927024E+03  0.10874106632E+03  0.27475132218E+03  0.40175883476E+03  0.17398314807E+03 0.  0.
         24    2    3    3    0    0  0.84450844794E+02  0.11038722141E+03  0.19864533401E+03  0.25541493177E+03  0.80371231233E+02 0.  0.
         -6    2    1    2    0  502 -0.20934927024E+03 -0.10874106632E+03  0.70729715087E+03  0.76545520406E+03  0.17320702449E+03 0.  0.
        -24    2    5    5    0    0 -0.22956905307E+03 -0.11647013793E+03  0.64058602374E+03  0.69516265361E+03  0.81445797976E+02 0.  0.
          5    1    3    3  501    0  0.12489842545E+03 -0.16461550909E+01  0.76105988168E+02  0.14634390299E+03  0.47000000000E+01 0. -1.
        -11    1    4    4    0    0  0.30662743058E+02  0.38694423250E+02  0.15889421464E+02  0.51864592131E+02  0.00000000000E+00 0.  1.
         12    1    4    4    0    0  0.53788101736E+02  0.71692798160E+02  0.18275591254E+03  0.20355033964E+03  0.00000000000E+00 0. -1.
         -5    1    5    5    0  502  0.20219782821E+02  0.77290716100E+01  0.66711127133E+02  0.70292550449E+02  0.47000000000E+01 0.  1.
         11    1    6    6    0    0 -0.27851657614E+02 -0.13158588879E+02  0.17093726905E+03  0.17369056752E+03  0.00000000000E+00 0. -1.
        -12    1    6    6    0    0 -0.20171739545E+03 -0.10331154905E+03  0.46964875469E+03  0.52147208609E+03  0.00000000000E+00 0.  1.
</event>
<event>
12    1  0.8421768E-002  0.1857312E+03  0.7818608E-02  0.1162413E+00
         21   -1    0    0  503  502  0.00000000000E+00  0.00000000000E+00  0.50909709461E+03  0.50909709461E+03  0.00000000000E+00 0.  1.
         21   -1    0    0  501  503 -0.00000000000E+00 -0.00000000000E+00 -0.69124407399E+02  0.69124407399E+02  0.00000000000E+00 0.  1.
          6    2    1    2  501    0 -0.66643945534E+02 -0.24894064276E+02  0.17823984820E+03  0.25728511104E+03  0.17136234990E+03 0.  0.
         24    2    3    3    0    0 -0.30630181060E+02  0.75947674962E+00  0.10910544902E+02  0.84148514268E+02  0.77608940637E+02 0.  0.
         -6    2    1    2    0  502  0.66643945534E+02  0.24894064276E+02  0.26173283901E+03  0.32093639097E+03  0.17156619166E+03 0.  0.
        -24    2    5    5    0    0  0.11085661004E+03  0.20843368489E+02  0.21699090059E+03  0.25772959630E+03  0.81337936232E+02 0.  0.
          5    1    3    3  501    0 -0.36013764474E+02 -0.25653541026E+02  0.16732930330E+03  0.17313659677E+03  0.47000000000E+01 0. -1.
        -11    1    4    4    0    0 -0.24100574498E+02 -0.35145200000E+02 -0.75067092499E+01  0.43270930865E+02  0.00000000000E+00 0.  1.
         12    1    4    4    0    0 -0.65296065617E+01  0.35904676749E+02  0.18417254152E+02  0.40877583403E+02  0.00000000000E+00 0. -1.
         -5    1    5    5    0  502 -0.44212664505E+02  0.40506957868E+01  0.44741938417E+02  0.63206794669E+02  0.47000000000E+01 0.  1.
         11    1    6    6    0    0  0.41742147473E+02 -0.13709856856E+02  0.24492441576E+02  0.50301558078E+02  0.00000000000E+00 0. -1.
        -12    1    6    6    0    0  0.69114462566E+02  0.34553225346E+02  0.19249845902E+03  0.20742803822E+03  0.00000000000E+00 0.  1.
</event>
<event>
12    1  0.8421768E-002  0.1848663E+03  0.7818608E-02  0.1163929E+00
         21   -1    0    0  501  502  0.00000000000E+00  0.00000000000E+00  0.64815671111E+02  0.64815671111E+02  0.00000000000E+00 0.  1.
         21   -1    0    0  502  503 -0.00000000000E+00 -0.00000000000E+00 -0.58433506340E+03  0.58433506340E+03  0.00000000000E+00 0. -1.
         -6    2    1    2    0  503  0.54823221419E+02  0.29068628439E+02 -0.37096136185E+03  0.41447299983E+03  0.17414064669E+03 0.  0.
        -24    2    3    3    0    0 -0.64177231681E+01 -0.20883938386E+02 -0.28739802541E+03  0.29936160411E+03  0.80885220848E+02 0.  0.
          6    2    1    2  501    0 -0.54823221419E+02 -0.29068628439E+02 -0.14855803044E+03  0.23467773469E+03  0.17074419459E+03 0.  0.
         24    2    5    5    0    0 -0.83965337057E+01 -0.48288686081E+02 -0.17512014663E+02  0.94249830772E+02  0.78575193040E+02 0.  0.
          5    1    5    5  501    0 -0.46426687714E+02  0.19220057642E+02 -0.13104601577E+03  0.14042790392E+03  0.47000000000E+01 0. -1.
        -13    1    6    6    0    0 -0.43442501623E+02 -0.30292933641E+02 -0.13464448303E+02  0.54646172272E+02  0.00000000000E+00 0.  1.
         14    1    6    6    0    0  0.35045967918E+02 -0.17995752441E+02 -0.40475663604E+01  0.39603658501E+02  0.00000000000E+00 0. -1.
         -5    1    3    3    0  503  0.61240944587E+02  0.49952566825E+02 -0.83563336445E+02  0.11511139572E+03  0.47000000000E+01 0.  1.
         11    1    4    4    0    0  0.18877593213E+02 -0.76724585128E+01 -0.25647321283E+03  0.25728143937E+03  0.00000000000E+00 0. -1.
        -12    1    4    4    0    0 -0.25295316381E+02 -0.13211479873E+02 -0.30924812581E+02  0.42080164739E+02  0.00000000000E+00 0.  1.
</event>
<event>
12    1  0.8421768E-002  0.1822305E+03  0.7818608E-02  0.1165969E+00
         21   -1    0    0  503  502  0.00000000000E+00  0.00000000000E+00  0.95764736211E+02  0.95764736211E+02  0.00000000000E+00 0.  1.
         21   -1    0    0  501  503 -0.00000000000E+00 -0.00000000000E+00 -0.34592554088E+03  0.34592554088E+03  0.00000000000E+00 0.  1.
          6    2    1    2  501    0  0.54357733332E+02 -0.19814680546E+02 -0.13967848729E+03  0.22858399672E+03  0.17144439042E+03 0.  0.
         24    2    3    3    0    0  0.22187841697E+02 -0.71458037807E+02 -0.48769531670E+02  0.11909214091E+03  0.78777657500E+02 0.  0.
         -6    2    1    2    0  502 -0.54357733332E+02  0.19814680546E+02 -0.11048231738E+03  0.21310628037E+03  0.17280208199E+03 0.  0.
        -24    2    5    5    0    0  0.95888733260E+01  0.43295111556E+02 -0.10726063039E+02  0.92218318090E+02  0.80142102461E+02 0.  0.
          5    1    3    3  501    0  0.32169891635E+02  0.51643357262E+02 -0.90908955617E+02  0.10949185581E+03  0.47000000000E+01 0. -1.
        -13    1    4    4    0    0 -0.15917988648E+02  0.27123657188E+01 -0.29312369838E+02  0.33465718518E+02  0.00000000000E+00 0.  1.
         14    1    4    4    0    0  0.38105830344E+02 -0.74170403526E+02 -0.19457161832E+02  0.85626422394E+02  0.00000000000E+00 0. -1.
         -5    1    5    5    0  502 -0.63946606658E+02 -0.23480431010E+02 -0.99756254343E+02  0.12088796228E+03  0.47000000000E+01 0.  1.
         13    1    6    6    0    0 -0.14111497400E+02  0.46058530567E+02 -0.33940589028E+02  0.58927804816E+02  0.00000000000E+00 0. -1.
        -14    1    6    6    0    0  0.23700370726E+02 -0.27634190108E+01  0.23214525989E+02  0.33290513275E+02  0.00000000000E+00 0.  1.
</event>
<event>
12    1  0.8421768E-002  0.2154609E+03  0.7818608E-02  0.1137426E+00
         21   -1    0    0  503  502  0.00000000000E+00  0.00000000000E+00  0.15795519183E+04  0.15795519183E+04  0.00000000000E+00 0.  1.
         21   -1    0    0  501  503 -0.00000000000E+00 -0.00000000000E+00 -0.32117384944E+02  0.32117384944E+02  0.00000000000E+00 0.  1.
          6    2    1    2  501    0 -0.12903580175E+03 -0.31898908763E+01  0.53448745871E+03  0.57606069374E+03  0.17178086570E+03 0.  0.
         24    2    3    3    0    0 -0.75910438144E+02  0.11582187935E+02  0.14674304959E+03  0.18438693233E+03  0.81046138194E+02 0.  0.
         -6    2    1    2    0  502  0.12903580175E+03  0.31898908763E+01  0.10129470746E+04  0.10356086095E+04  0.17251957136E+03 0.  0.
        -24    2    5    5    0    0  0.25320707631E+02 -0.34517359793E+01  0.20755273641E+03  0.22352298469E+03  0.78938796416E+02 0.  0.
          5    1    3    3  501    0 -0.53125363602E+02 -0.14772078812E+02  0.38774440912E+03  0.39167376140E+03  0.47000000000E+01 0. -1.
        -13    1    4    4    0    0 -0.41532941651E+02  0.26033442580E+01  0.14267977701E+03  0.14862463259E+03  0.00000000000E+00 0.  1.
         14    1    4    4    0    0 -0.34377496493E+02  0.89788436775E+01  0.40632725736E+01  0.35762299744E+02  0.00000000000E+00 0. -1.
         -5    1    5    5    0  502  0.10371509411E+03  0.66416268556E+01  0.80539433822E+03  0.81208562479E+03  0.47000000000E+01 0.  1.
         11    1    6    6    0    0  0.16676901597E+01 -0.39199640705E+02  0.11543373373E+03  0.12191939922E+03  0.00000000000E+00 0. -1.
        -12    1    6    6    0    0  0.23653017472E+02  0.35747904726E+02  0.92119002672E+02  0.10160358547E+03  0.00000000000E+00 0.  1.
</event>
<event>
12    1  0.8421768E-002  0.2400382E+03  0.7818608E-02  0.1120211E+00
         21   -1    0    0  501  502  0.00000000000E+00  0.00000000000E+00  0.62588888597E+03  0.62588888597E+03  0.00000000000E+00 0. -1.
         21   -1    0    0  502  503 -0.00000000000E+00 -0.00000000000E+00 -0.96810667642E+02  0.96810667642E+02  0.00000000000E+00 0.  1.
         -6    2    1    2    0  503  0.15509234394E+03  0.61941167994E+02  0.17497541752E+03  0.29490620837E+03  0.16870960720E+03 0.  0.
        -24    2    3    3    0    0  0.30206517718E+02  0.67382465855E+02  0.10727781297E+03  0.15267002108E+03  0.79666654032E+02 0.  0.
          6    2    1    2  501    0 -0.15509234394E+03 -0.61941167994E+02  0.35410280081E+03  0.42779334524E+03  0.17241812333E+03 0.  0.
         24    2    5    5    0    0 -0.15849480484E+03 -0.27063746253E+02  0.34801354172E+03  0.39191604931E+03  0.81435342188E+02 0.  0.
          5    1    5    5  501    0  0.34024609063E+01 -0.34877421741E+02  0.60892590862E+01  0.35877295937E+02  0.47000000000E+01 0. -1.
        -11    1    6    6    0    0 -0.10366084953E+03  0.22277531191E+02  0.19157895709E+03  0.21896199881E+03  0.00000000000E+00 0.  1.
         12    1    6    6    0    0 -0.54833955311E+02 -0.49341277444E+02  0.15643458463E+03  0.17295405050E+03  0.00000000000E+00 0. -1.
         -5    1    3    3    0  503  0.12488582622E+03 -0.54412978609E+01  0.67697604552E+02  0.14223618729E+03  0.47000000000E+01 0.  1.
         13    1    4    4    0    0 -0.37457630686E+01 -0.16970957274E+02  0.13140078429E+02  0.21787744099E+02  0.00000000000E+00 0. -1.
        -14    1    4    4    0    0  0.33952280786E+02  0.84353423130E+02  0.94137734540E+02  0.13088227698E+03  0.00000000000E+00 0.  1.
</event>
<event>
12    1  0.8421768E-002  0.2713267E+03  0.7818608E-02  0.1100686E+00
         21   -1    0    0  501  502  0.00000000000E+00  0.00000000000E+00  0.24581381087E+03  0.24581381087E+03  0.00000000000E+00 0. -1.
         21   -1    0    0  502  503 -0.00000000000E+00 -0.00000000000E+00 -0.35904315622E+03  0.35904315622E+03  0.00000000000E+00 0.  1.
         -6    2    1    2    0  503 -0.20932883337E+03 -0.13497778319E+02  0.67758576623E+02  0.27965947657E+03  0.17209720402E+03 0.  0.
        -24    2    3    3    0    0 -0.18507609721E+03 -0.65850749688E+02  0.41917911337E+02  0.21626500674E+03  0.80149602972E+02 0.  0.
          6    2    1    2  501    0  0.20932883337E+03  0.13497778319E+02 -0.18098792198E+03  0.32519749052E+03  0.17028220529E+03 0.  0.
         24    2    5    5    0    0  0.22849711853E+03  0.27836285050E+02 -0.17231598531E+03  0.29930717539E+03  0.83103516807E+02 0.  0.
          5    1    5    5  501    0 -0.19168285169E+02 -0.14338506731E+02 -0.86719366704E+01  0.25890315124E+02  0.47000000000E+01 0. -1.
        -11    1    6    6    0    0  0.49458468697E+01 -0.57591253315E+01 -0.32783877752E+02  0.33651323396E+02  0.00000000000E+00 0.  1.
         12    1    6    6    0    0  0.22355127167E+03  0.33595410381E+02 -0.13953210755E+03  0.26565585200E+03  0.00000000000E+00 0. -1.
         -5    1    3    3    0  503 -0.24252736154E+02  0.52352971369E+02  0.25840665285E+02  0.63394469826E+02  0.47000000000E+01 0.  1.
         11    1    4    4    0    0 -0.83271973650E+02 -0.72127172475E+02  0.21589112467E+02  0.11226148218E+03  0.00000000000E+00 0. -1.
        -12    1    4    4    0    0 -0.10180412356E+03  0.62764227872E+01  0.20328798870E+02  0.10400352456E+03  0.00000000000E+00 0.  1.
</event>
<event>
12    1  0.8421768E-002  0.2117429E+03  0.7818608E-02  0.1140197E+00
         21   -1    0    0  501  502  0.00000000000E+00  0.00000000000E+00  0.21048538552E+03  0.21048538552E+03  0.00000000000E+00 0. -1.
         21   -1    0    0  502  503 -0.00000000000E+00 -0.00000000000E+00 -0.58284749350E+03  0.58284749350E+03  0.00000000000E+00 0.  1.
         -6    2    1    2    0  503  0.12022961701E+03  0.29576410751E+02 -0.50216260756E+03  0.54497178204E+03  0.17174700552E+03 0.  0.
        -24    2    3    3    0    0  0.49232376178E+02 -0.47383937577E+02 -0.24949268523E+03  0.27142529043E+03  0.82195035720E+02 0.  0.
          6    2    1    2  501    0 -0.12022961701E+03 -0.29576410751E+02  0.12980049959E+03  0.24836109698E+03  0.17177060261E+03 0.  0.
         24    2    5    5    0    0 -0.15439772640E+03 -0.35660322366E+02  0.11263874884E+03  0.20935995124E+03  0.77677441621E+02 0.  0.
          5    1    5    5  501    0  0.34168109390E+02  0.60839116153E+01  0.17161750752E+02  0.39001145736E+02  0.47000000000E+01 0. -1.
        -13    1    6    6    0    0 -0.10961827049E+03 -0.52103435836E+02  0.51581171540E+02  0.13187702798E+03  0.00000000000E+00 0.  1.
         14    1    6    6    0    0 -0.44779455903E+02  0.16443113470E+02  0.61057577296E+02  0.77482923259E+02  0.00000000000E+00 0. -1.
         -5    1    3    3    0  503  0.70997240828E+02  0.76960348328E+02 -0.25266992234E+03  0.27354649161E+03  0.47000000000E+01 0.  1.
         13    1    4    4    0    0  0.17235909440E+02  0.97300883498E+01 -0.82252302630E+01  0.21433749238E+02  0.00000000000E+00 0. -1.
        -14    1    4    4    0    0  0.31996466739E+02 -0.57114025927E+02 -0.24126745496E+03  0.24999154119E+03  0.00000000000E+00 0.  1.
</event>
<event>
12    1  0.8421768E-002  0.1818965E+03  0.7818608E-02  0.1167406E+00
         21   -1    0    0  501  502  0.00000000000E+00  0.00000000000E+00  0.64866721435E+02  0.64866721435E+02  0.00000000000E+00 0.  1.
         21   -1    0    0  502  503 -0.00000000000E+00 -0.00000000000E+00 -0.57143390148E+03  0.57143390148E+03  0.00000000000E+00 0.  1.
         -6    2    1    2    0  503  0.22704408197E+02  0.32754771214E+02 -0.37417044625E+03  0.41604068858E+03  0.17747666471E+03 0.  0.
        -24    2    3    3    0    0  0.79457698761E+00  0.45330416451E+02 -0.37929422198E+03  0.38983895897E+03  0.77812782380E+02 0.  0.
          6    2    1    2  501    0 -0.22704408197E+02 -0.32754771214E+02 -0.13239673379E+03  0.22025993433E+03  0.17145605374E+03 0.  0.
         24    2    5    5    0    0  0.47658925494E+01  0.79591305482E+01  0.10740452769E+02  0.68857875574E+02  0.67379434637E+02 0.  0.
          5    1    5    5  501    0 -0.27470300746E+02 -0.40713901762E+02 -0.14313718656E+03  0.15140205876E+03  0.47000000000E+01 0. -1.
        -11    1    6    6    0    0 -0.27517300955E+02  0.16204320321E+02  0.14974176135E+02  0.35270494748E+02  0.00000000000E+00 0.  1.
         12    1    6    6    0    0  0.32283193504E+02 -0.82451897725E+01 -0.42337233653E+01  0.33587380826E+02  0.00000000000E+00 0. -1.
         -5    1    3    3    0  503  0.21909831209E+02 -0.12575645237E+02  0.51237757238E+01  0.26201729607E+02  0.47000000000E+01 0.  1.
         13    1    4    4    0    0 -0.84114268261E+00  0.10381556379E+02 -0.16119083924E+01  0.10539567473E+02  0.00000000000E+00 0. -1.
        -14    1    4    4    0    0  0.16357196702E+01  0.34948860072E+02 -0.37768231358E+03  0.37929939150E+03  0.00000000000E+00 0.  1.
</event>
<event>
12    1  0.8421768E-002  0.1792876E+03  0.7818608E-02  0.1168586E+00
         21   -1    0    0  503  502  0.00000000000E+00  0.00000000000E+00  0.11014617757E+04  0.11014617757E+04  0.00000000000E+00 0. -1.
         21   -1    0    0  501  503 -0.00000000000E+00 -0.00000000000E+00 -0.30977532547E+02  0.30977532547E+02  0.00000000000E+00 0. -1.
          6    2    1    2  501    0  0.20524875405E+02 -0.45548598983E+02  0.67436797629E+03  0.69779382035E+03  0.17218624478E+03 0.  0.
         24    2    3    3    0    0  0.17811721710E+02 -0.93701559843E+02  0.55904829216E+03  0.57270669715E+03  0.79754173833E+02 0.  0.
         -6    2    1    2    0  502 -0.20524875405E+02  0.45548598983E+02  0.39611626689E+03  0.43464548792E+03  0.17179248499E+03 0.  0.
        -24    2    5    5    0    0 -0.75518458029E+02  0.20680175389E+02  0.20608579834E+03  0.23520526731E+03  0.81972277848E+02 0.  0.
          5    1    3    3  501    0  0.27131536943E+01  0.48152960860E+02  0.11531968412E+03  0.12508712319E+03  0.47000000000E+01 0. -1.
        -13    1    4    4    0    0 -0.14267813815E+02 -0.82804511602E+02  0.30328859996E+03  0.31471277782E+03  0.00000000000E+00 0.  1.
         14    1    4    4    0    0  0.32079535525E+02 -0.10897048241E+02  0.25575969220E+03  0.25799391934E+03  0.00000000000E+00 0. -1.
         -5    1    5    5    0  502  0.54993582625E+02  0.24868423593E+02  0.19003046855E+03  0.19944022062E+03  0.47000000000E+01 0.  1.
         13    1    6    6    0    0 -0.51340806873E+02 -0.28059276993E+02  0.11714447546E+03  0.13094284862E+03  0.00000000000E+00 0. -1.
        -14    1    6    6    0    0 -0.24177651156E+02  0.48739452383E+02  0.88941322882E+02  0.10426241868E+03  0.00000000000E+00 0.  1.
</event>
<event>
12    1  0.8421768E-002  0.2769398E+03  0.7818608E-02  0.1097450E+00
         21   -1    0    0  501  502  0.00000000000E+00  0.00000000000E+00  0.23921900044E+03  0.23921900044E+03  0.00000000000E+00 0.  1.
         21   -1    0    0  502  503 -0.00000000000E+00 -0.00000000000E+00 -0.39065598472E+03  0.39065598472E+03  0.00000000000E+00 0. -1.
         -6    2    1    2    0  503  0.10066965083E+03  0.19202898129E+03 -0.20975667850E+03  0.34740972799E+03  0.17229668214E+03 0.  0.
        -24    2    3    3    0    0  0.45383748574E+02  0.69503197067E+02 -0.24443138080E+02  0.11842873086E+03  0.80854921038E+02 0.  0.
          6    2    1    2  501    0 -0.10066965083E+03 -0.19202898129E+03  0.58319694222E+02  0.28246525716E+03  0.17139406792E+03 0.  0.
         24    2    5    5    0    0 -0.10722703971E+03 -0.12342987479E+03  0.93870677481E+02  0.20478128731E+03  0.79944352551E+02 0.  0.
          5    1    5    5  501    0  0.65573888849E+01 -0.68599106499E+02 -0.35550983259E+02  0.77683969853E+02  0.47000000000E+01 0. -1.
        -13    1    6    6    0    0 -0.23141029869E+02 -0.21053515335E+02 -0.13674663509E+02  0.34143142700E+02  0.00000000000E+00 0.  1.
         14    1    6    6    0    0 -0.84086009845E+02 -0.10237635945E+03  0.10754534099E+03  0.17063814461E+03  0.00000000000E+00 0. -1.
         -5    1    3    3    0  503  0.55285902255E+02  0.12252578422E+03 -0.18531354042E+03  0.22898099714E+03  0.47000000000E+01 0.  1.
         11    1    4    4    0    0 -0.84747452250E+01  0.58274749890E+02 -0.17442978260E+01  0.58913583801E+02  0.00000000000E+00 0. -1.
        -12    1    4    4    0    0  0.53858493799E+02  0.11228447177E+02 -0.22698840254E+02  0.59515147056E+02  0.00000000000E+00 0.  1.
</event>
<event>
12    1  0.8421768E-002  0.2401776E+03  0.7818608E-02  0.1119711E+00
         21   -1    0    0  503  502  0.00000000000E+00  0.00000000000E+00  0.74430594593E+02  0.74430594593E+02  0.00000000000E+00 0. -1.
         21   -1    0    0  501  503 -0.00000000000E+00 -0.00000000000E+00 -0.82502412735E+03  0.82502412735E+03  0.00000000000E+00 0. -1.
          6    2    1    2  501    0 -0.39480157419E+02 -0.16286067706E+03 -0.48662705940E+03  0.54257438686E+03  0.17175211024E+03 0.  0.
         24    2    3    3    0    0 -0.32222359352E+02 -0.72458051513E+02 -0.12361579171E+03  0.16837580213E+03  0.82347417162E+02 0.  0.
         -6    2    1    2    0  502  0.39480157419E+02  0.16286067706E+03 -0.26396647335E+03  0.35688033508E+03  0.17205519914E+03 0.  0.
        -24    2    5    5    0    0 -0.39480615415E+02  0.48497690311E+02 -0.10164176117E+03  0.14313960763E+03  0.79038944202E+02 0.  0.
          5    1    3    3  501    0 -0.72577980671E+01 -0.90402625546E+02 -0.36301126770E+03  0.37419858473E+03  0.47000000000E+01 0. -1.
        -11    1    4    4    0    0 -0.22402800801E+02 -0.32217620858E+02 -0.12062433130E+03  0.12684671805E+03  0.00000000000E+00 0.  1.
         12    1    4    4    0    0 -0.98195585510E+01 -0.40240430655E+02 -0.29914604029E+01  0.41529084083E+02  0.00000000000E+00 0. -1.
         -5    1    5    5    0  502  0.78960772834E+02  0.11436298675E+03 -0.16232471218E+03  0.21374072745E+03  0.47000000000E+01 0.  1.
         11    1    6    6    0    0  0.17862953977E+02  0.20288648703E+02 -0.62760947370E+02  0.68334844009E+02  0.00000000000E+00 0. -1.
        -12    1    6    6    0    0 -0.57343569392E+02  0.28209041608E+02 -0.38880813802E+02  0.74804763625E+02  0.00000000000E+00 0.  1.
</event>
<event>
12    1  0.8421768E-002  0.2052476E+03  0.7818608E-02  0.1146556E+00
         21   -1    0    0  503  502  0.00000000000E+00  0.00000000000E+00  0.58648175923E+03  0.58648175923E+03  0.00000000000E+00 0.  1.
         21   -1    0    0  501  503 -0.00000000000E+00 -0.00000000000E+00 -0.10201023258E+03  0.10201023258E+03  0.00000000000E+00 0.  1.
          6    2    1    2  501    0 -0.44377170825E+02 -0.91171262274E+02  0.46688764197E+02  0.20498363055E+03  0.17192124864E+03 0.  0.
         24    2    3    3    0    0 -0.71649073429E+02 -0.74055208636E+02  0.84049311324E+02  0.15543954467E+03  0.80494730662E+02 0.  0.
         -6    2    1    2    0  502  0.44377170825E+02  0.91171262274E+02  0.43778276245E+03  0.48350836127E+03  0.17845183093E+03 0.  0.
        -24    2    5    5    0    0  0.81165521578E+02  0.97708393155E+01  0.25513320718E+03  0.28013097401E+03  0.81835798997E+02 0.  0.
          5    1    3    3  501    0  0.27271902604E+02 -0.17116053638E+02 -0.37360547126E+02  0.49544085877E+02  0.47000000000E+01 0. -1.
        -11    1    4    4    0    0  0.16327357626E+01 -0.48488498122E+02  0.13026352658E+02  0.50234312375E+02  0.00000000000E+00 0.  1.
         12    1    4    4    0    0 -0.73281809192E+02 -0.25566710514E+02  0.71022958666E+02  0.10520523230E+03  0.00000000000E+00 0. -1.
         -5    1    5    5    0  502 -0.36788350752E+02  0.81400422958E+02  0.18264955527E+03  0.20337738726E+03  0.47000000000E+01 0.  1.
         13    1    6    6    0    0  0.21346255337E+02 -0.20000934515E+02  0.16694274419E+03  0.16948622315E+03  0.00000000000E+00 0. -1.
        -14    1    6    6    0    0  0.59819266240E+02  0.29771773831E+02  0.88190462991E+02  0.11064475086E+03  0.00000000000E+00 0.  1.
</event>
<event>
12    1  0.8421768E-002  0.1852363E+03  0.7818608E-02  0.1163194E+00
         21   -1    0    0  503  502  0.00000000000E+00  0.00000000000E+00  0.17539350230E+04  0.17539350230E+04  0.00000000000E+00 0. -1.
         21   -1    0    0  501  503 -0.00000000000E+00 -0.00000000000E+00 -0.31101655826E+02  0.31101655826E+02  0.00000000000E+00 0. -1.
          6    2    1    2  501    0 -0.12822634645E+01  0.65936760498E+02  0.31168060914E+03  0.36177823863E+03  0.17143334345E+03 0.  0.
         24    2    3    3    0    0  0.73443246741E+01 -0.25461397483E+02  0.94066735776E+02  0.12554545262E+03  0.78809187450E+02 0.  0.
         -6    2    1    2    0  502  0.12822634645E+01 -0.65936760498E+02  0.14111527581E+04  0.14232584402E+04  0.17309875941E+03 0.  0.
        -24    2    5    5    0    0 -0.43295187661E+02 -0.96933367333E+02  0.89740660241E+03  0.90662981033E+03  0.73269720550E+02 0.  0.
          5    1    3    3  501    0 -0.86265881386E+01  0.91398157981E+02  0.21761387336E+03  0.23623278601E+03  0.47000000000E+01 0. -1.
        -13    1    4    4    0    0 -0.69548569462E+01 -0.28461467802E+02  0.10388821874E+03  0.10794066507E+03  0.00000000000E+00 0.  1.
         14    1    4    4    0    0  0.14299181620E+02  0.30000703193E+01 -0.98214829590E+01  0.17604787543E+02  0.00000000000E+00 0. -1.
         -5    1    5    5    0  502  0.44577451126E+02  0.30996606835E+02  0.51374615565E+03  0.51662862990E+03  0.47000000000E+01 0.  1.
         11    1    6    6    0    0 -0.10799563380E+02 -0.46318867871E+02  0.66038562638E+03  0.66209609848E+03  0.00000000000E+00 0. -1.
        -12    1    6    6    0    0 -0.32495624281E+02 -0.50614499463E+02  0.23702097604E+03  0.24453371186E+03  0.00000000000E+00 0.  1.
</event>
<event>
12    1  0.8421768E-002  0.1872057E+03  0.7818608E-02  0.1161301E+00
         21   -1    0    0  503  502  0.00000000000E+00  0.00000000000E+00  0.50332261032E+03  0.50332261032E+03  0.00000000000E+00 0. -1.
         21   -1    0    0  501  503 -0.00000000000E+00 -0.00000000000E+00 -0.91751912069E+02  0.91751912069E+02  0.00000000000E+00 0. -1.
          6    2    1    2  501    0  0.33441208337E+02  0.61061036977E+02  0.57597279695E+02  0.19464580889E+03  0.17240295716E+03 0.  0.
         24    2    3    3    0    0 -0.78750848399E+01  0.77501109899E+02  0.86355052883E+02  0.14148180229E+03  0.80569635862E+02 0.  0.
         -6    2    1    2    0  502 -0.33441208337E+02 -0.61061036977E+02  0.35397341856E+03  0.40042871350E+03  0.17377919581E+03 0.  0.
        -24    2    5    5    0    0  0.20116133937E+01 -0.10369764041E+03  0.27229785994E+03  0.30159668733E+03  0.77827951703E+02 0.  0.
          5    1    3    3  501    0  0.41316293177E+02 -0.16440072922E+02 -0.28757773188E+02  0.53164006605E+02  0.47000000000E+01 0. -1.
        -13    1    4    4    0    0  0.20138117527E+02  0.46412819862E+02  0.85829031827E+02  0.99630900475E+02  0.00000000000E+00 0.  1.
         14    1    4    4    0    0 -0.28013202367E+02  0.31088290037E+02  0.52602105624E+00  0.41850901811E+02  0.00000000000E+00 0. -1.
         -5    1    5    5    0  502 -0.35452821731E+02  0.42636603434E+02  0.81675558623E+02  0.98832026173E+02  0.47000000000E+01 0.  1.
         13    1    6    6    0    0  0.32995207973E+02 -0.88222342815E+02  0.21355493499E+03  0.23340431826E+03  0.00000000000E+00 0. -1.
        -14    1    6    6    0    0 -0.30983594579E+02 -0.15475297596E+02  0.58742924944E+02  0.68192369073E+02  0.00000000000E+00 0.  1.
</event>
<event>
12    1  0.8421768E-002  0.1879365E+03  0.7818608E-02  0.1160355E+00
         21   -1    0    0  501  502  0.00000000000E+00  0.00000000000E+00  0.17691078877E+03  0.17691078877E+03  0.00000000000E+00 0. -1.
         21   -1    0    0  502  503 -0.00000000000E+00 -0.00000000000E+00 -0.47474936715E+03  0.47474936715E+03  0.00000000000E+00 0. -1.
         -6    2    1    2    0  503  0.29060184562E+02  0.49327561672E+02 -0.39697621828E+03  0.43917861825E+03  0.17891349357E+03 0.  0.
        -24    2    3    3    0    0  0.74846922501E+02  0.42764033592E+02 -0.36273454853E+03  0.38143706286E+03  0.80542261229E+02 0.  0.
          6    2    1    2  501    0 -0.29060184562E+02 -0.49327561672E+02  0.99137639894E+02  0.21248153767E+03  0.17900399309E+03 0.  0.
         24    2    5    5    0    0  0.50760099211E+01 -0.68630419031E+02 -0.58255125006E+00  0.10522443256E+03  0.79598627801E+02 0.  0.
          5    1    5    5  501    0 -0.34136194484E+02  0.19302857360E+02  0.99720191144E+02  0.10725710512E+03  0.47000000000E+01 0. -1.
        -13    1    6    6    0    0 -0.18012672345E+02  0.73466725399E+01  0.14670386983E+02  0.24364938265E+02  0.00000000000E+00 0.  1.
         14    1    6    6    0    0  0.23088682266E+02 -0.75977091571E+02 -0.15252938233E+02  0.80859494292E+02  0.00000000000E+00 0. -1.
         -5    1    3    3    0  503 -0.45786737939E+02  0.65635280799E+01 -0.34241669741E+02  0.57741555388E+02  0.47000000000E+01 0.  1.
         11    1    4    4    0    0 -0.12179074666E+00  0.27411544903E+02 -0.19688606796E+03  0.19878513874E+03  0.00000000000E+00 0. -1.
        -12    1    4    4    0    0  0.74968713248E+02  0.15352488689E+02 -0.16584848057E+03  0.18265192411E+03  0.00000000000E+00 0.  1.
</event>
<event>
12    1  0.8421768E-002  0.1749371E+03  0.7818608E-02  0.1173032E+00
         21   -1    0    0  503  502  0.00000000000E+00  0.00000000000E+00  0.10031400202E+03  0.10031400202E+03  0.00000000000E+00 0. -1.
         21   -1    0    0  501  503 -0.00000000000E+00 -0.00000000000E+00 -0.38563057314E+03  0.38563057314E+03  0.00000000000E+00 0. -1.
          6    2    1    2  501    0 -0.21841501406E+02 -0.17679126945E+02 -0.25453113500E+03  0.30831932086E+03  0.17171226578E+03 0.  0.
         24    2    3    3    0    0  0.86516331206E+01  0.19296398663E+02 -0.38190087506E+02  0.86683223670E+02  0.74888562045E+02 0.  0.
         -6    2    1    2    0  502  0.21841501406E+02  0.17679126945E+02 -0.30785436127E+02  0.17762525430E+03  0.17266552978E+03 0.  0.
        -24    2    5    5    0    0  0.20478967720E+02  0.58305175123E+02  0.28911458709E+02  0.10525024797E+03  0.80142751931E+02 0.  0.
          5    1    3    3  501    0 -0.30493134526E+02 -0.36975525609E+02 -0.21634104749E+03  0.22163609719E+03  0.47000000000E+01 0. -1.
        -11    1    4    4    0    0 -0.99646554089E+01 -0.23208621430E+02  0.19437385564E+01  0.25332046614E+02  0.00000000000E+00 0.  1.
         12    1    4    4    0    0  0.18616288529E+02  0.42505020093E+02 -0.40133826062E+02  0.61351177056E+02  0.00000000000E+00 0. -1.
         -5    1    5    5    0  502  0.13625336859E+01 -0.40626048178E+02 -0.59696894836E+02  0.72375006332E+02  0.47000000000E+01 0.  1.
         11    1    6    6    0    0 -0.18992186902E+02  0.44051693113E+02 -0.88679531039E+01  0.48784171836E+02  0.00000000000E+00 0. -1.
        -12    1    6    6    0    0  0.39471154621E+02  0.14253482010E+02  0.37779411813E+02  0.56466076129E+02  0.00000000000E+00 0.  1.
</event>
<event>
12    1  0.8421768E-002  0.2314271E+03  0.7818608E-02  0.1126138E+00
         21   -1    0    0  501  502  0.00000000000E+00  0.00000000000E+00  0.54438976590E+02  0.54438976590E+02  0.00000000000E+00 0.  1.
         21   -1    0    0  502  503 -0.00000000000E+00 -0.00000000000E+00 -0.10299377949E+04  0.10299377949E+04  0.00000000000E+00 0. -1.
         -6    2    1    2    0  503 -0.12541251223E+03 -0.88742721389E+02 -0.35609007525E+03  0.42314631689E+03  0.16926043539E+03 0.  0.
        -24    2    3    3    0    0 -0.88063422588E+02  0.63864272774E+01 -0.24654340022E+03  0.27325611231E+03  0.78033978925E+02 0.  0.
          6    2    1    2  501    0  0.12541251223E+03  0.88742721389E+02 -0.61940874310E+03  0.66123045463E+03  0.17307499611E+03 0.  0.
         24    2    5    5    0    0  0.59210760755E+02  0.13879119442E+02 -0.14632737765E+03  0.17768593844E+03  0.80386859164E+02 0.  0.
          5    1    5    5  501    0  0.66201751477E+02  0.74863601947E+02 -0.47308136545E+03  0.48354451618E+03  0.47000000000E+01 0. -1.
        -13    1    6    6    0    0  0.66045272475E+02  0.36326551824E+02 -0.12505014701E+03  0.14601073814E+03  0.00000000000E+00 0.  1.
         14    1    6    6    0    0 -0.68345117201E+01 -0.22447432382E+02 -0.21277230634E+02  0.31675200306E+02  0.00000000000E+00 0. -1.
         -5    1    3    3    0  503 -0.37349089645E+02 -0.95129148667E+02 -0.10954667502E+03  0.14989020459E+03  0.47000000000E+01 0.  1.
         13    1    4    4    0    0  0.62622946866E+01 -0.17976057666E+02 -0.57790944368E+02  0.60845281122E+02  0.00000000000E+00 0. -1.
        -14    1    4    4    0    0 -0.94325717274E+02  0.24362484944E+02 -0.18875245586E+03  0.21241083118E+03  0.00000000000E+00 0.  1.
</event>
<event>
12    1  0.8421768E-002  0.1984161E+03  0.7818608E-02  0.1154654E+00
         21   -1    0    0  503  502  0.00000000000E+00  0.00000000000E+00  0.10740367240E+04  0.10740367240E+04  0.00000000000E+00 0.  1.
         21   -1    0    0  501  503 -0.00000000000E+00 -0.00000000000E+00 -0.34084008055E+02  0.34084008055E+02  0.00000000000E+00 0.  1.
          6    2    1    2  501    0  0.96394874654E+02 -0.15033150774E+02  0.55270135125E+03  0.58201916787E+03  0.15410892449E+03 0.  0.
         24    2    3    3    0    0  0.27368363378E+02 -0.96409813412E+01  0.14316124961E+03  0.16664112367E+03  0.80200653816E+02 0.  0.
         -6    2    1    2    0  502 -0.96394874654E+02  0.15033150774E+02  0.48725136469E+03  0.52610156419E+03  0.17277440772E+03 0.  0.
        -24    2    5    5    0    0  0.18658674689E+02  0.71267211958E+01  0.17167426997E+03  0.19007950604E+03  0.79115278880E+02 0.  0.
          5    1    3    3  501    0  0.69026511276E+02 -0.53921694331E+01  0.40954010164E+03  0.41537804420E+03  0.47000000000E+01 0. -1.
        -13    1    4    4    0    0  0.50033512223E+02 -0.22877865401E+02  0.11839817905E+03  0.13055603346E+03  0.00000000000E+00 0.  1.
         14    1    4    4    0    0 -0.22665148845E+02  0.13236884060E+02  0.24763070563E+02  0.36085090210E+02  0.00000000000E+00 0. -1.
         -5    1    5    5    0  502 -0.11505354934E+03  0.79064295785E+01  0.31557709473E+03  0.33602205815E+03  0.47000000000E+01 0.  1.
         13    1    6    6    0    0 -0.13360604810E+02  0.17968459463E+02  0.14579882540E+03  0.14750819904E+03  0.00000000000E+00 0. -1.
        -14    1    6    6    0    0  0.32019279499E+02 -0.10841738267E+02  0.25875444570E+02  0.42571307004E+02  0.00000000000E+00 0.  1.
</event>
<event>
12    1  0.8421768E-002  0.2119117E+03  0.7818608E-02  0.1140559E+00
         21   -1    0    0  501  502  0.00000000000E+00  0.00000000000E+00  0.41285370593E+03  0.41285370593E+03  0.00000000000E+00 0.  1.
         21   -1    0    0  502  503 -0.00000000000E+00 -0.00000000000E+00 -0.36783234893E+03  0.36783234893E+03  0.00000000000E+00 0.  1.
         -6    2    1    2    0  503  0.11121138078E+03  0.46688885218E+02 -0.30592871859E+03  0.37071956266E+03  0.17115136594E+03 0.  0.
        -24    2    3    3    0    0  0.91658220287E+02  0.30941410956E+02 -0.91726742033E+02  0.15500010180E+03  0.79073611890E+02 0.  0.
          6    2    1    2  501    0 -0.11121138078E+03 -0.46688885218E+02  0.35095007559E+03  0.40996649220E+03  0.17423761348E+03 0.  0.
         24    2    5    5    0    0 -0.66498318954E+02 -0.97670663295E+02  0.25744531526E+03  0.29436532526E+03  0.80070403228E+02 0.  0.
          5    1    5    5  501    0 -0.44713061827E+02  0.50981778077E+02  0.93504760328E+02  0.11560116694E+03  0.47000000000E+01 0. -1.
        -13    1    6    6    0    0 -0.28236595199E+02 -0.12365732047E+02  0.14446908001E+03  0.14772112820E+03  0.00000000000E+00 0.  1.
         14    1    6    6    0    0 -0.38261723754E+02 -0.85304931249E+02  0.11297623525E+03  0.14664419706E+03  0.00000000000E+00 0. -1.
         -5    1    3    3    0  503  0.19553160494E+02  0.15747474262E+02 -0.21420197656E+03  0.21571946086E+03  0.47000000000E+01 0.  1.
         13    1    4    4    0    0  0.62329369407E+02  0.57875189195E+02 -0.64866801983E+02  0.10696817197E+03  0.00000000000E+00 0. -1.
        -14    1    4    4    0    0  0.29328850880E+02 -0.26933778239E+02 -0.26859940050E+02  0.48031929835E+02  0.00000000000E+00 0.  1.
</event>
<event>
12    1  0.8421768E-002  0.1900798E+03  0.7818608E-02  0.1159578E+00
         21   -1    0    0  503  502  0.00000000000E+00  0.00000000000E+00  0.25025087492E+03  0.25025087492E+03  0.00000000000E+00 0.  1.
         21   -1    0    0  501  503 -0.00000000000E+00 -0.00000000000E+00 -0.14635708237E+03  0.14635708237E+03  0.00000000000E+00 0.  1.
          6    2    1    2  501    0 -0.17479675693E+02 -0.69189019360E+02  0.11438538464E+02  0.18523549785E+03  0.17055406779E+03 0.  0.
         24    2    3    3    0    0  0.49901659267E+02 -0.72523716235E+02  0.16116618367E+02  0.11744656855E+03  0.76053179174E+02 0.  0.
         -6    2    1    2    0  502  0.17479675693E+02  0.69189019360E+02  0.92455254077E+02  0.21137245944E+03  0.17617514904E+03 0.  0.
        -24    2    5    5    0    0  0.74720671297E+02  0.21698629622E+02  0.33432929160E+02  0.11630620079E+03  0.79720526486E+02 0.  0.
          5    1    3    3  501    0 -0.67381334960E+02  0.33346968745E+01 -0.46780799024E+01  0.67788929301E+02  0.47000000000E+01 0. -1.
        -13    1    4    4    0    0  0.27666103979E+02 -0.85833178271E+02  0.15638513707E+02  0.91527651081E+02  0.00000000000E+00 0.  1.
         14    1    4    4    0    0  0.22235555288E+02  0.13309462037E+02  0.47810465981E+00  0.25918917468E+02  0.00000000000E+00 0. -1.
         -5    1    5    5    0  502 -0.57240995604E+02  0.47490389739E+02  0.59022324916E+02  0.95066258651E+02  0.47000000000E+01 0.  1.
         13    1    6    6    0    0  0.27601098068E+01  0.90526805145E+01 -0.22422786186E+02  0.24338253244E+02  0.00000000000E+00 0. -1.
        -14    1    6    6    0    0  0.71960561490E+02  0.12645949107E+02  0.55855715346E+02  0.91967947545E+02  0.00000000000E+00 0.  1.
</event>
<event>
12    1  0.8421768E-002  0.3343601E+03  0.7818608E-02  0.1069350E+00
         21   -1    0    0  501  502  0.00000000000E+00  0.00000000000E+00  0.40260125013E+03  0.40260125013E+03  0.00000000000E+00 0. -1.
         21   -1    0    0  502  503 -0.00000000000E+00 -0.00000000000E+00 -0.34301618567E+03  0.34301618567E+03  0.00000000000E+00 0.  1.
         -6    2    1    2    0  503  0.24231339647E+03 -0.15121902641E+03  0.19364106767E+03  0.38538464752E+03  0.17158521906E+03 0.  0.
        -24    2    3    3    0    0  0.14024900987E+03 -0.82742250932E+02  0.34195707494E+02  0.18401155927E+03  0.78580167186E+02 0.  0.
          6    2    1    2  501    0 -0.24231339647E+03  0.15121902641E+03 -0.13405600321E+03  0.36023278828E+03  0.17382080915E+03 0.  0.
         24    2    5    5    0    0 -0.13886977996E+03  0.12042439970E+02 -0.65027054598E+02  0.17353037866E+03  0.80339519176E+02 0.  0.
          5    1    5    5  501    0 -0.10344361651E+03  0.13917658644E+03 -0.69028948611E+02  0.18670240962E+03  0.47000000000E+01 0. -1.
        -11    1    6    6    0    0 -0.80603569427E+02 -0.32905965187E+02 -0.39907895205E+02  0.95772532852E+02  0.00000000000E+00 0.  1.
         12    1    6    6    0    0 -0.58266210534E+02  0.44948405156E+02 -0.25119159393E+02  0.77757845808E+02  0.00000000000E+00 0. -1.
         -5    1    3    3    0  503  0.10206438661E+03 -0.68476775480E+02  0.15944536017E+03  0.20137308826E+03  0.47000000000E+01 0.  1.
         13    1    4    4    0    0  0.23466876015E+02 -0.48512163084E+02 -0.94773110033E+01  0.54716941260E+02  0.00000000000E+00 0. -1.
        -14    1    4    4    0    0  0.11678213385E+03 -0.34230087848E+02  0.43673018497E+02  0.12929461801E+03  0.00000000000E+00 0.  1.
</event>
<event>
12    1  0.8421768E-002  0.2020746E+03  0.7818608E-02  0.1151664E+00
         21   -1    0    0  501  502  0.00000000000E+00  0.00000000000E+00  0.24305429126E+03  0.24305429126E+03  0.00000000000E+00 0. -1.
         21   -1    0    0  502  503 -0.00000000000E+00 -0.00000000000E+00 -0.15747798532E+03  0.15747798532E+03  0.00000000000E+00 0. -1.
         -6    2    1    2    0  503  0.40231055834E+01  0.72788799157E+02  0.12648138053E+02  0.18570057931E+03  0.17032420585E+03 0.  0.
        -24    2    3    3    0    0  0.41638593144E+02  0.56287684559E+02 -0.39864347249E+02  0.11886598647E+03  0.87394969449E+02 0.  0.
          6    2    1    2  501    0 -0.40231055834E+01 -0.72788799157E+02  0.72928167891E+02  0.21483169727E+03  0.18846682949E+03 0.  0.
         24    2    5    5    0    0 -0.38622974629E+02  0.61367165047E+01 -0.17306509839E+02  0.89968672216E+02  0.79154616031E+02 0.  0.
          5    1    5    5  501    0  0.34599869045E+02 -0.78925515662E+02  0.90234677730E+02  0.12486302505E+03  0.47000000000E+01 0. -1.
        -11    1    6    6    0    0 -0.18435295570E+02  0.22666782121E+01  0.31747640133E+02  0.36781933158E+02  0.00000000000E+00 0.  1.
         12    1    6    6    0    0 -0.20187679059E+02  0.38700382926E+01 -0.49054149972E+02  0.53186739058E+02  0.00000000000E+00 0. -1.
         -5    1    3    3    0  503 -0.37615487560E+02  0.16501114598E+02  0.52512485302E+02  0.66834592839E+02  0.47000000000E+01 0.  1.
         13    1    4    4    0    0 -0.88958072546E+01  0.50795358120E+02 -0.44105742664E+02  0.67857352801E+02  0.00000000000E+00 0. -1.
        -14    1    4    4    0    0  0.50534400398E+02  0.54923264392E+01  0.42413954150E+01  0.51008633665E+02  0.00000000000E+00 0.  1.
</event>
<event>
12    1  0.8421768E-002  0.1816441E+03  0.7818608E-02  0.1166818E+00
         21   -1    0    0  501  502  0.00000000000E+00  0.00000000000E+00  0.36305604665E+03  0.36305604665E+03  0.00000000000E+00 0. -1.
         21   -1    0    0  502  503 -0.00000000000E+00 -0.00000000000E+00 -0.10976196895E+03  0.10976196895E+03  0.00000000000E+00 0. -1.
         -6    2    1    2    0  503 -0.45787137652E+02 -0.24430948681E+02  0.24728662061E+02  0.18086468996E+03  0.17148526502E+03 0.  0.
        -24    2    3    3    0    0 -0.37820513500E+02 -0.78944834833E+02  0.37388099287E+02  0.12414095388E+03  0.79689574432E+02 0.  0.
          6    2    1    2  501    0  0.45787137652E+02  0.24430948681E+02  0.22856541563E+03  0.29195332564E+03  0.17407257654E+03 0.  0.
         24    2    5    5    0    0  0.87361271343E+02  0.39241783271E+02  0.21204250905E+03  0.24459442093E+03  0.75448630344E+02 0.  0.
          5    1    5    5  501    0 -0.41574133691E+02 -0.14810834590E+02  0.16522906577E+02  0.47358904708E+02  0.47000000000E+01 0. -1.
        -13    1    6    6    0    0  0.31686640696E+02  0.14168774109E+02  0.14128587881E+02  0.37475516725E+02  0.00000000000E+00 0.  1.
         14    1    6    6    0    0  0.55674630648E+02  0.25073009162E+02  0.19791392117E+03  0.20711890421E+03  0.00000000000E+00 0. -1.
         -5    1    3    3    0  503 -0.79666241516E+01  0.54513886152E+02 -0.12659437226E+02  0.56723736078E+02  0.47000000000E+01 0.  1.
         13    1    4    4    0    0  0.60624187203E+01 -0.70530649658E+02  0.93883657836E+01  0.71410551559E+02  0.00000000000E+00 0. -1.
        -14    1    4    4    0    0 -0.43882932221E+02 -0.84141851750E+01  0.27999733503E+02  0.52730402319E+02  0.00000000000E+00 0.  1.
</event>
<event>
12    1  0.8421768E-002  0.1971935E+03  0.7818608E-02  0.1152468E+00
         21   -1    0    0  501  502  0.00000000000E+00  0.00000000000E+00  0.49416759172E+02  0.49416759172E+02  0.00000000000E+00 0.  1.
         21   -1    0    0  502  503 -0.00000000000E+00 -0.00000000000E+00 -0.12342082518E+04  0.12342082518E+04  0.00000000000E+00 0.  1.
         -6    2    1    2    0  503  0.38278569142E+02 -0.88987236520E+02 -0.97997705912E+03  0.99931140981E+03  0.16995375919E+03 0.  0.
        -24    2    3    3    0    0  0.11991067705E+02 -0.46982741945E+02 -0.28718162844E+03  0.30473023452E+03  0.89644098377E+02 0.  0.
          6    2    1    2  501    0 -0.38278569142E+02  0.88987236520E+02 -0.20481443355E+03  0.28431360120E+03  0.17175940882E+03 0.  0.
         24    2    5    5    0    0 -0.86496826548E+02  0.29036644895E+02 -0.12248064995E+03  0.17153055413E+03  0.78079405993E+02 0.  0.
          5    1    5    5  501    0  0.48218257406E+02  0.59950591625E+02 -0.82333783605E+02  0.11278304707E+03  0.47000000000E+01 0. -1.
        -11    1    6    6    0    0 -0.54755518886E+01  0.37759141699E+02 -0.32344435431E+02  0.50018965940E+02  0.00000000000E+00 0.  1.
         12    1    6    6    0    0 -0.81021274660E+02 -0.87224968041E+01 -0.90136214517E+02  0.12151158819E+03  0.00000000000E+00 0. -1.
         -5    1    3    3    0  503  0.26287501437E+02 -0.42004494575E+02 -0.69279543068E+03  0.69458117529E+03  0.47000000000E+01 0.  1.
         11    1    4    4    0    0  0.32562173592E+02  0.72082658387E+01 -0.17818731270E+03  0.18128147355E+03  0.00000000000E+00 0. -1.
        -12    1    4    4    0    0 -0.20571105887E+02 -0.54191007783E+02 -0.10899431574E+03  0.12344876097E+03  0.00000000000E+00 0.  1.
</event>
<event>
12    1  0.8421768E-002  0.1912993E+03  0.7818608E-02  0.1157764E+00
         21   -1    0    0  503  502  0.00000000000E+00  0.00000000000E+00  0.52610080037E+03  0.52610080037E+03  0.00000000000E+00 0. -1.
         21   -1    0    0  501  503 -0.00000000000E+00 -0.00000000000E+00 -0.82307235189E+02  0.82307235189E+02  0.00000000000E+00 0. -1.
          6    2    1    2  501    0 -0.80036079186E+02  0.10883197929E+02  0.99695781569E+02  0.21571899855E+03  0.17341055188E+03 0.  0.
         24    2    3    3    0    0  0.23013929644E+02 -0.15573665133E+02  0.47184081724E+02  0.96980468393E+02  0.80041824556E+02 0.  0.
         -6    2    1    2    0  502  0.80036079186E+02 -0.10883197929E+02  0.34409778361E+03  0.39268903701E+03  0.17110574839E+03 0.  0.
        -24    2    5    5    0    0  0.45539538375E+02  0.92822646622E+01  0.73234629637E+02  0.11885405862E+03  0.81258638184E+02 0.  0.
          5    1    3    3  501    0 -0.10305000883E+03  0.26456863062E+02  0.52511699845E+02  0.11873853016E+03  0.47000000000E+01 0. -1.
        -13    1    4    4    0    0  0.28608448832E+02  0.16249962491E+02  0.54675685920E+02  0.63811717234E+02  0.00000000000E+00 0.  1.
         14    1    4    4    0    0 -0.55945191878E+01 -0.31823627624E+02 -0.74916041953E+01  0.33168751160E+02  0.00000000000E+00 0. -1.
         -5    1    5    5    0  502  0.34496540811E+02 -0.20165462591E+02  0.27086315397E+03  0.27383497839E+03  0.47000000000E+01 0.  1.
         11    1    6    6    0    0  0.14297219094E+02  0.69461762501E+01  0.84180025162E+02  0.85667592908E+02  0.00000000000E+00 0. -1.
        -12    1    6    6    0    0  0.31242319281E+02  0.23360884121E+01 -0.10945395526E+02  0.33186465710E+02  0.00000000000E+00 0.  1.
</event>
<event>
12    1  0.8421768E-002  0.1827493E+03  0.7818608E-02  0.1165212E+00
         21   -1    0    0  503  502  0.00000000000E+00  0.00000000000E+00  0.24377117988E+03  0.24377117988E+03  0.00000000000E+00 0. -1.
         21   -1    0    0  501  503 -0.00000000000E+00 -0.00000000000E+00 -0.14592186441E+03  0.14592186441E+03  0.00000000000E+00 0. -1.
          6    2    1    2  501    0  0.58337682734E+02  0.20434036129E+02  0.35941725772E+00  0.18256603076E+03  0.17178297747E+03 0.  0.
         24    2    3    3    0    0  0.13416047619E+02 -0.24501542680E+02  0.50523687585E+02  0.10147531883E+03  0.83452270171E+02 0.  0.
         -6    2    1    2    0  502 -0.58337682734E+02 -0.20434036129E+02  0.97489898221E+02  0.20712701353E+03  0.17197815099E+03 0.  0.
        -24    2    5    5    0    0  0.20917753490E+02  0.20532063080E+02  0.78319718531E+02  0.11575288565E+03  0.80035206010E+02 0.  0.
          5    1    3    3  501    0  0.44921635115E+02  0.44935578809E+02 -0.50164270327E+02  0.81090711933E+02  0.47000000000E+01 0. -1.
        -11    1    4    4    0    0  0.27560903955E+02  0.21852341973E+02  0.37238544176E+02  0.51223407236E+02  0.00000000000E+00 0.  1.
         12    1    4    4    0    0 -0.14144856336E+02 -0.46353884653E+02  0.13285143408E+02  0.50251911591E+02  0.00000000000E+00 0. -1.
         -5    1    5    5    0  502 -0.79255436224E+02 -0.40966099210E+02  0.19170179690E+02  0.91374127875E+02  0.47000000000E+01 0.  1.
         11    1    6    6    0    0  0.39092804519E+02 -0.49116112828E+01  0.74467184637E+02  0.84248043766E+02  0.00000000000E+00 0. -1.
        -12    1    6    6    0    0 -0.18175051029E+02  0.25443674363E+02  0.38525338932E+01  0.31504841888E+02  0.00000000000E+00 0.  1.
</event>
<event>
12    1  0.8421768E-002  0.1829824E+03  0.7818608E-02  0.1165724E+00
         21   -1    0    0  503  502  0.00000000000E+00  0.00000000000E+00  0.67359799629E+03  0.67359799629E+03  0.00000000000E+00 0.  1.
         21   -1    0    0  501  503 -0.00000000000E+00 -0.00000000000E+00 -0.58344880198E+02  0.58344880198E+02  0.00000000000E+00 0. -1.
          6    2    1    2  501    0 -0.41879188756E+02 -0.32920958467E+02  0.45773028674E+03  0.49294986119E+03  0.17505683160E+03 0.  0.
         24    2    3    3    0    0 -0.78260986464E+02 -0.48800293474E+02  0.21967516983E+03  0.25156196345E+03  0.80746458572E+02 0.  0.
         -6    2    1    2    0  502  0.41879188756E+02  0.32920958467E+02  0.15752282935E+03  0.23899301530E+03  0.17165827576E+03 0.  0.
        -24    2    5    5    0    0 -0.25338922081E+02  0.57213205410E+02  0.58976552622E+02  0.11716589868E+03  0.79587701370E+02 0.  0.
          5    1    3    3  501    0  0.36381797708E+02  0.15879335007E+02  0.23805511691E+03  0.24138789773E+03  0.47000000000E+01 0. -1.
        -11    1    4    4    0    0 -0.22253564991E+02 -0.30299014061E+02  0.17101049439E+03  0.17509380514E+03  0.00000000000E+00 0.  1.
         12    1    4    4    0    0 -0.56007421473E+02 -0.18501279413E+02  0.48664675439E+02  0.76468158311E+02  0.00000000000E+00 0. -1.
         -5    1    5    5    0  502  0.67218110837E+02 -0.24292246943E+02  0.98546276732E+02  0.12182711662E+03  0.47000000000E+01 0.  1.
         13    1    6    6    0    0  0.28562502017E+02  0.12391960793E+02  0.17693415952E+02  0.35811090207E+02  0.00000000000E+00 0. -1.
        -14    1    6    6    0    0 -0.53901424098E+02  0.44821244617E+02  0.41283136670E+02  0.81354808476E+02  0.00000000000E+00 0.  1.
</event>
<event>
12    1  0.8421768E-002  0.2169402E+03  0.7818608E-02  0.1136499E+00
         21   -1    0    0  503  502  0.00000000000E+00  0.00000000000E+00  0.41058503688E+03  0.41058503688E+03  0.00000000000E+00 0. -1.
         21   -1    0    0  501  503 -0.00000000000E+00 -0.00000000000E+00 -0.12146731460E+03  0.12146731460E+03  0.00000000000E+00 0.  1.
          6    2    1    2  501    0  0.58697823078E+01  0.12836286072E+03  0.77008632713E+02  0.22864943801E+03  0.17273898700E+03 0.  0.
         24    2    3    3    0    0  0.15572576830E+02  0.11593813267E+03 -0.81716865817E+01  0.14189521688E+03  0.79895684207E+02 0.  0.
         -6    2    1    2    0  502 -0.58697823078E+01 -0.12836286072E+03  0.21210908957E+03  0.30340291346E+03  0.17479011317E+03 0.  0.
        -24    2    5    5    0    0 -0.13575730355E+02 -0.13857430748E+02  0.25509151522E+02  0.84285360520E+02  0.77954963568E+02 0.  0.
          5    1    3    3  501    0 -0.97027945219E+01  0.12424728052E+02  0.85180319294E+02  0.86754221129E+02  0.47000000000E+01 0. -1.
        -11    1    4    4    0    0  0.30309622183E+02  0.20782632777E+02 -0.24586232663E+02  0.44216217144E+02  0.00000000000E+00 0.  1.
         12    1    4    4    0    0 -0.14737045353E+02  0.95155499895E+02  0.16414546081E+02  0.97678999734E+02  0.00000000000E+00 0. -1.
         -5    1    5    5    0  502  0.77059480467E+01 -0.11450542998E+03  0.18659993805E+03  0.21911755294E+03  0.47000000000E+01 0.  1.
         13    1    6    6    0    0  0.85196317516E+01 -0.42930229527E+02  0.15368338301E+02  0.46387224045E+02  0.00000000000E+00 0. -1.
        -14    1    6    6    0    0 -0.22095362106E+02  0.29072798779E+02  0.10140813220E+02  0.37898136475E+02  0.00000000000E+00 0.  1.
</event>
<event>
12    1  0.8421768E-002  0.2054286E+03  0.7818608E-02  0.1145295E+00
         21   -1    0    0  503  502  0.00000000000E+00  0.00000000000E+00  0.40014049996E+02  0.40014049996E+02  0.00000000000E+00 0. -1.
         21   -1    0    0  501  503 -0.00000000000E+00 -0.00000000000E+00 -0.12521633943E+04  0.12521633943E+04  0.00000000000E+00 0.  1.
          6    2    1    2  501    0 -0.51360060181E+02 -0.10010873302E+03 -0.86325916281E+03  0.88730060342E+03  0.17154114505E+03 0.  0.
         24    2    3    3    0    0  0.10411042107E+02 -0.15832538737E+02 -0.20547300159E+03  0.22125040269E+03  0.79834373718E+02 0.  0.
         -6    2    1    2    0  502  0.51360060181E+02  0.10010873302E+03 -0.34889018144E+03  0.40487684083E+03  0.17187577875E+03 0.  0.
        -24    2    5    5    0    0  0.48353388303E+02  0.12915769083E+03 -0.20814344072E+03  0.26105536451E+03  0.76200079819E+02 0.  0.
          5    1    3    3  501    0 -0.61771102288E+02 -0.84276194285E+02 -0.65778616122E+03  0.66605020073E+03  0.47000000000E+01 0. -1.
        -13    1    4    4    0    0 -0.19459241356E+02  0.10331546221E+01 -0.17274079528E+03  0.17383645140E+03  0.00000000000E+00 0.  1.
         14    1    4    4    0    0  0.29870283463E+02 -0.16865693360E+02 -0.32732206314E+02  0.47413951289E+02  0.00000000000E+00 0. -1.
         -5    1    5    5    0  502  0.30066718780E+01 -0.29048957805E+02 -0.14074674072E+03  0.14382147632E+03  0.47000000000E+01 0.  1.
         13    1    6    6    0    0  0.35439316394E+02  0.74345563338E+02 -0.58095645721E+02  0.10078845165E+03  0.00000000000E+00 0. -1.
        -14    1    6    6    0    0  0.12914071909E+02  0.54812127490E+02 -0.15004779500E+03  0.16026691286E+03  0.00000000000E+00 0.  1.
</event>
<event>
12    1  0.8421768E-002  0.3284465E+03  0.7818608E-02  0.1072551E+00
         21   -1    0    0  503  502  0.00000000000E+00  0.00000000000E+00  0.88574698356E+03  0.88574698356E+03  0.00000000000E+00 0. -1.
         21   -1    0    0  501  503 -0.00000000000E+00 -0.00000000000E+00 -0.12732859261E+03  0.12732859261E+03  0.00000000000E+00 0.  1.
          6    2    1    2  501    0 -0.20744139515E+03  0.17487412985E+03  0.24940995977E+03  0.40729779867E+03  0.17341647863E+03 0.  0.
         24    2    3    3    0    0 -0.86370553554E+02  0.14882012042E+03  0.10473892670E+03  0.21680171499E+03  0.80158842869E+02 0.  0.
         -6    2    1    2    0  502  0.20744139515E+03 -0.17487412985E+03  0.50900843117E+03  0.60577777750E+03  0.18510602095E+03 0.  0.
        -24    2    5    5    0    0  0.12127601433E+02 -0.49192424342E+02  0.16081554562E+03  0.18720431362E+03  0.81343973312E+02 0.  0.
          5    1    3    3  501    0 -0.12107084159E+03  0.26054009430E+02  0.14467103307E+03  0.19049608369E+03  0.47000000000E+01 0. -1.
        -13    1    4    4    0    0 -0.49782893834E+02  0.22841020864E+02  0.51641690379E+02  0.75278901013E+02  0.00000000000E+00 0.  1.
         14    1    4    4    0    0 -0.36587659720E+02  0.12597909956E+03  0.53097236324E+02  0.14152281397E+03  0.00000000000E+00 0. -1.
         -5    1    5    5    0  502  0.19531379371E+03 -0.12568170551E+03  0.34819288555E+03  0.41857346388E+03  0.47000000000E+01 0.  1.
         11    1    6    6    0    0 -0.11035464114E+02 -0.61555057465E+02  0.14120502249E+03  0.15443336732E+03  0.00000000000E+00 0. -1.
        -12    1    6    6    0    0  0.23163065547E+02  0.12362633124E+02  0.19610523134E+02  0.32770946292E+02  0.00000000000E+00 0.  1.
</event>
<event>
12    1  0.8421768E-002  0.1932224E+03  0.7818608E-02  0.1155625E+00
         21   -1    0    0  503  502  0.00000000000E+00  0.00000000000E+00  0.75658402290E+03  0.75658402290E+03  0.00000000000E+00 0. -1.
         21   -1    0    0  501  503 -0.00000000000E+00 -0.00000000000E+00 -0.56523277712E+02  0.56523277712E+02  0.00000000000E+00 0. -1.
          6    2    1    2  501    0 -0.74300844899E+02  0.46895074928E+02  0.20485734895E+03  0.28160507688E+03  0.17209044802E+03 0.  0.
         24    2    3    3    0    0  0.15337360012E+02  0.32681648881E+01  0.44635098461E+02  0.92841800229E+02  0.79883617477E+02 0.  0.
         -6    2    1    2    0  502  0.74300844899E+02 -0.46895074928E+02  0.49520339624E+03  0.53150222373E+03  0.17189661598E+03 0.  0.
        -24    2    5    5    0    0  0.49524202829E+02 -0.10309850741E+02  0.47177291949E+03  0.48126839189E+03  0.80564494537E+02 0.  0.
          5    1    3    3  501    0 -0.89638204911E+02  0.43626910040E+02  0.16022225049E+03  0.18876327665E+03  0.47000000000E+01 0. -1.
        -13    1    4    4    0    0 -0.39343145861E+01 -0.33346233081E+02  0.23174746126E+01  0.33657403057E+02  0.00000000000E+00 0.  1.
         14    1    4    4    0    0  0.19271674598E+02  0.36614397969E+02  0.42317623849E+02  0.59184397172E+02  0.00000000000E+00 0. -1.
         -5    1    5    5    0  502  0.24776642070E+02 -0.36585224187E+02  0.23430476746E+02  0.50233831843E+02  0.47000000000E+01 0.  1.
         13    1    6    6    0    0  0.46503346737E+02  0.29532155389E+02  0.28339786984E+03  0.28870237632E+03  0.00000000000E+00 0. -1.
        -14    1    6    6    0    0  0.30208560920E+01 -0.39842006130E+02  0.18837504964E+03  0.19256601557E+03  0.00000000000E+00 0.  1.
</event>
<event>
12    1  0.8421768E-002  0.1762224E+03  0.7818608E-02  0.1171651E+00
         21   -1    0    0  503  502  0.00000000000E+00  0.00000000000E+00  0.10254421561E+03  0.10254421561E+03  0.00000000000E+00 0. -1.
         21   -1    0    0  501  503 -0.00000000000E+00 -0.00000000000E+00 -0.33858627328E+03  0.33858627328E+03  0.00000000000E+00 0. -1.
          6    2    1    2  501    0  0.11265446007E+02 -0.35425354068E+02 -0.19048950347E+03  0.25911576920E+03  0.17167662896E+03 0.  0.
         24    2    3    3    0    0  0.19287575591E+02  0.22514193661E+02 -0.26336119544E+02  0.84789152735E+02  0.74944711225E+02 0.  0.
         -6    2    1    2    0  502 -0.11265446007E+02  0.35425354068E+02 -0.45552554192E+02  0.18201471969E+03  0.17225695053E+03 0.  0.
        -24    2    5    5    0    0  0.23731701721E+01  0.72067125596E+02 -0.77350860882E+02  0.13139996314E+03  0.77996744200E+02 0.  0.
          5    1    3    3  501    0 -0.80221295836E+01 -0.57939547729E+02 -0.16415338393E+03  0.17432661647E+03  0.47000000000E+01 0. -1.
        -11    1    4    4    0    0  0.32011800442E+02  0.13009680382E+02 -0.47244635326E+02  0.58532578264E+02  0.00000000000E+00 0.  1.
         12    1    4    4    0    0 -0.12724224851E+02  0.95045132795E+01  0.20908515782E+02  0.26256574471E+02  0.00000000000E+00 0. -1.
         -5    1    5    5    0  502 -0.13638616179E+02 -0.36641771528E+02  0.31798306689E+02  0.50614756547E+02  0.47000000000E+01 0.  1.
         13    1    6    6    0    0  0.10475276203E+02  0.20032919393E+01  0.12977217568E+02  0.16797403547E+02  0.00000000000E+00 0. -1.
        -14    1    6    6    0    0 -0.81021060305E+01  0.70063833657E+02 -0.90328078450E+02  0.11460255959E+03  0.00000000000E+00 0.  1.
</event>
<event>
12    1  0.8421768E-002  0.1821638E+03  0.7818608E-02  0.1165836E+00
         21   -1    0    0  503  502  0.00000000000E+00  0.00000000000E+00  0.97144440187E+02  0.97144440187E+02  0.00000000000E+00 0.  1.
         21   -1    0    0  501  503 -0.00000000000E+00 -0.00000000000E+00 -0.46139109380E+03  0.46139109380E+03  0.00000000000E+00 0.  1.
          6    2    1    2  501    0 -0.48732600526E+02 -0.34927195000E+02 -0.32511617583E+03  0.37267166439E+03  0.17201414578E+03 0.  0.
         24    2    3    3    0    0 -0.58594376596E+02 -0.41791304422E+02 -0.10101214074E+03  0.14819654512E+03  0.81110722573E+02 0.  0.
         -6    2    1    2    0  502  0.48732600526E+02  0.34927195000E+02 -0.39130477784E+02  0.18586386960E+03  0.17152086878E+03 0.  0.
        -24    2    5    5    0    0 -0.16484836973E+02 -0.33258084461E+02 -0.18408830255E+02  0.89147670512E+02  0.78933973005E+02 0.  0.
          5    1    3    3  501    0  0.98617760694E+01  0.68641094220E+01 -0.22410403509E+03  0.22447511927E+03  0.47000000000E+01 0. -1.
        -13    1    4    4    0    0 -0.12227980689E+02  0.13013941356E+01 -0.80826324365E+02  0.81756417783E+02  0.00000000000E+00 0.  1.
         14    1    4    4    0    0 -0.46366395907E+02 -0.43092698558E+02 -0.20185816372E+02  0.66440127340E+02  0.00000000000E+00 0. -1.
         -5    1    5    5    0  502  0.65217437499E+02  0.68185279461E+02 -0.20721647529E+02  0.96716199085E+02  0.47000000000E+01 0.  1.
         13    1    6    6    0    0  0.10692633871E+02 -0.48264169544E+02 -0.27797629228E+02  0.56713937190E+02  0.00000000000E+00 0. -1.
        -14    1    6    6    0    0 -0.27177470844E+02  0.15006085083E+02  0.93887989733E+01  0.32433733322E+02  0.00000000000E+00 0.  1.
</event>
<event>
12    1  0.8421768E-002  0.2488940E+03  0.7818608E-02  0.1114242E+00
         21   -1    0    0  501  502  0.00000000000E+00  0.00000000000E+00  0.22986944534E+03  0.22986944534E+03  0.00000000000E+00 0.  1.
         21   -1    0    0  502  503 -0.00000000000E+00 -0.00000000000E+00 -0.50364157551E+03  0.50364157551E+03  0.00000000000E+00 0. -1.
         -6    2    1    2    0  503  0.15454911090E+02  0.17746309305E+03 -0.38802661248E+03  0.46099119729E+03  0.17382815741E+03 0.  0.
        -24    2    3    3    0    0  0.72190546687E+02  0.12890491554E+03 -0.21421764995E+03  0.27175992501E+03  0.78334558220E+02 0.  0.
          6    2    1    2  501    0 -0.15454911090E+02 -0.17746309305E+03  0.11425448231E+03  0.27251982356E+03  0.17170021501E+03 0.  0.
         24    2    5    5    0    0  0.70449868069E+01 -0.19968615720E+03  0.93526074204E+02  0.23441645248E+03  0.79244895219E+02 0.  0.
          5    1    5    5  501    0 -0.22499897897E+02  0.22223064152E+02  0.20728408101E+02  0.38103371086E+02  0.47000000000E+01 0. -1.
        -11    1    6    6    0    0 -0.30187598341E+02 -0.77318371873E+02  0.59300828748E+02  0.10200985253E+03  0.00000000000E+00 0.  1.
         12    1    6    6    0    0  0.37232585148E+02 -0.12236778533E+03  0.34225245457E+02  0.13240659995E+03  0.00000000000E+00 0. -1.
         -5    1    3    3    0  503 -0.56735635597E+02  0.48558177514E+02 -0.17380896254E+03  0.18923127228E+03  0.47000000000E+01 0.  1.
         11    1    4    4    0    0 -0.17067688646E+02  0.17109590379E+02 -0.30564376540E+02  0.38964409298E+02  0.00000000000E+00 0. -1.
        -12    1    4    4    0    0  0.89258235334E+02  0.11179532516E+03 -0.18365327341E+03  0.23279551571E+03  0.00000000000E+00 0.  1.
</event>
<event>
12    1  0.8421768E-002  0.3198748E+03  0.7818608E-02  0.1075732E+00
         21   -1    0    0  503  502  0.00000000000E+00  0.00000000000E+00  0.22542660453E+03  0.22542660453E+03  0.00000000000E+00 0.  1.
         21   -1    0    0  501  503 -0.00000000000E+00 -0.00000000000E+00 -0.68768210828E+03  0.68768210828E+03  0.00000000000E+00 0. -1.
          6    2    1    2  501    0  0.12748039649E+03  0.23729143004E+03 -0.49755550899E+03  0.59150773176E+03  0.17251503687E+03 0.  0.
         24    2    3    3    0    0  0.82234489956E+02  0.11156805173E+03 -0.14934607673E+03  0.21851247894E+03  0.78952589022E+02 0.  0.
         -6    2    1    2    0  502 -0.12748039649E+03 -0.23729143004E+03  0.35300005238E+02  0.32160098105E+03  0.17211224937E+03 0.  0.
        -24    2    5    5    0    0 -0.70607341880E+02 -0.21674485968E+03 -0.16272884286E+02  0.24198591446E+03  0.79552781910E+02 0.  0.
          5    1    3    3  501    0  0.45245906533E+02  0.12572337831E+03 -0.34820943226E+03  0.37299525282E+03  0.47000000000E+01 0. -1.
        -13    1    4    4    0    0  0.80558844521E+02  0.51426301855E+02 -0.11388446568E+03  0.14867435380E+03  0.00000000000E+00 0.  1.
         14    1    4    4    0    0  0.16756454347E+01  0.60141749875E+02 -0.35461611049E+02  0.69838125146E+02  0.00000000000E+00 0. -1.
         -5    1    5    5    0  502 -0.56873054609E+02 -0.20546570359E+02  0.51572889524E+02  0.79615066589E+02  0.47000000000E+01 0.  1.
         11    1    6    6    0    0 -0.54009044665E+02 -0.20420233642E+03  0.62610639850E+01  0.21131675756E+03  0.00000000000E+00 0. -1.
        -12    1    6    6    0    0 -0.16598297215E+02 -0.12542523261E+02 -0.22533948270E+02  0.30669156898E+02  0.00000000000E+00 0.  1.
</event>
<event>
12    1  0.8421768E-002  0.1944663E+03  0.7818608E-02  0.1155281E+00
         21   -1    0    0  501  502  0.00000000000E+00  0.00000000000E+00  0.22297522043E+04  0.22297522043E+04  0.00000000000E+00 0.  1.
         21   -1    0    0  502  503 -0.00000000000E+00 -0.00000000000E+00 -0.18774394467E+02  0.18774394467E+02  0.00000000000E+00 0.  1.
         -6    2    1    2    0  503  0.11308265742E+02  0.90684505527E+02  0.73646770784E+03  0.76170979573E+03  0.17165538677E+03 0.  0.
        -24    2    3    3    0    0  0.39984510828E+02  0.62271559048E+02  0.69512569250E+03  0.70373674344E+03  0.81050401091E+02 0.  0.
          6    2    1    2  501    0 -0.11308265742E+02 -0.90684505527E+02  0.14745101020E+04  0.14868168030E+04  0.16760849767E+03 0.  0.
         24    2    5    5    0    0  0.58833663052E+01 -0.10561644517E+03  0.14340114664E+04  0.14401183607E+04  0.79765653484E+02 0.  0.
          5    1    5    5  501    0 -0.17191632047E+02  0.14931939639E+02  0.40498635518E+02  0.46698442294E+02  0.47000000000E+01 0. -1.
        -11    1    6    6    0    0 -0.23733578680E+02 -0.97944391809E+02  0.11725717028E+04  0.11768945513E+04  0.00000000000E+00 0.  1.
         12    1    6    6    0    0  0.29616944985E+02 -0.76720533576E+01  0.26143976360E+03  0.26322380937E+03  0.00000000000E+00 0. -1.
         -5    1    3    3    0  503 -0.28676245086E+02  0.28412946479E+02  0.41342015335E+02  0.57973052290E+02  0.47000000000E+01 0.  1.
         13    1    4    4    0    0  0.37815878183E+02  0.14435776589E+02  0.12044825984E+03  0.12706775982E+03  0.00000000000E+00 0. -1.
        -14    1    4    4    0    0  0.21686326456E+01  0.47835782459E+02  0.57467743267E+03  0.57666898362E+03  0.00000000000E+00 0.  1.
</event>
<event>
12    1  0.8421768E-002  0.2193673E+03  0.7818608E-02  0.1136637E+00
         21   -1    0    0  503  502  0.00000000000E+00  0.00000000000E+00  0.42436132152E+03  0.42436132152E+03  0.00000000000E+00 0. -1.
         21   -1    0    0  501  503 -0.00000000000E+00 -0.00000000000E+00 -0.11434533085E+03  0.11434533085E+03  0.00000000000E+00 0.  1.
          6    2    1    2  501    0  0.11288290795E+03  0.22326292614E+02  0.92500746274E+02  0.23807228590E+03  0.18676458712E+03 0.  0.
         24    2    3    3    0    0  0.39761503156E+02 -0.59802038790E+02  0.30076982570E+02  0.11153921144E+03  0.79869329726E+02 0.  0.
         -6    2    1    2    0  502 -0.11288290795E+03 -0.22326292614E+02  0.21751524440E+03  0.30063436647E+03  0.17270531696E+03 0.  0.
        -24    2    5    5    0    0 -0.81023197198E+02 -0.11238643098E+02  0.23663629597E+03  0.26157439010E+03  0.75718950097E+02 0.  0.
          5    1    3    3  501    0  0.73121404793E+02  0.82128331404E+02  0.62423763705E+02  0.12653307446E+03  0.47000000000E+01 0. -1.
        -13    1    4    4    0    0  0.55068019143E+02 -0.27995066087E+02 -0.47425108778E+01  0.61957258388E+02  0.00000000000E+00 0.  1.
         14    1    4    4    0    0 -0.15306515987E+02 -0.31806972703E+02  0.34819493447E+02  0.49581953049E+02  0.00000000000E+00 0. -1.
         -5    1    5    5    0  502 -0.31859710751E+02 -0.11087649516E+02 -0.19121051567E+02  0.39059976369E+02  0.47000000000E+01 0.  1.
         13    1    6    6    0    0 -0.40105096532E+02  0.11610206163E+02  0.34753584576E+02  0.54323358658E+02  0.00000000000E+00 0. -1.
        -14    1    6    6    0    0 -0.40918100666E+02 -0.22848849262E+02  0.20188271139E+03  0.20725103144E+03  0.00000000000E+00 0.  1.
</event>
<event>
12    1  0.8421768E-002  0.2006162E+03  0.7818608E-02  0.1149489E+00
         21   -1    0    0  503  502  0.00000000000E+00  0.00000000000E+00  0.30787195415E+03  0.30787195415E+03  0.00000000000E+00 0. -1.
         21   -1    0    0  501  503 -0.00000000000E+00 -0.00000000000E+00 -0.17420892567E+03  0.17420892567E+03  0.00000000000E+00 0.  1.
          6    2    1    2  501    0  0.88431515518E+02  0.42280836133E+02 -0.54576499357E+02  0.20790731552E+03  0.17504015403E+03 0.  0.
         24    2    3    3    0    0  0.56463491610E+02  0.94569126851E+02 -0.53960335669E+02  0.14643789583E+03  0.80005586506E+02 0.  0.
         -6    2    1    2    0  502 -0.88431515518E+02 -0.42280836133E+02  0.18823952784E+03  0.27417356430E+03  0.17357771020E+03 0.  0.
        -24    2    5    5    0    0 -0.77521084665E+02 -0.59184750304E+02  0.20733340683E+03  0.24604091369E+03  0.89647288794E+02 0.  0.
          5    1    3    3  501    0  0.31968023909E+02 -0.52288290718E+02 -0.61616368768E+00  0.61469419686E+02  0.47000000000E+01 0. -1.
        -11    1    4    4    0    0  0.64967478976E+02  0.35060678587E+02 -0.16621361860E+02  0.75672281436E+02  0.00000000000E+00 0.  1.
         12    1    4    4    0    0 -0.85039873669E+01  0.59508448263E+02 -0.37338973809E+02  0.70765614397E+02  0.00000000000E+00 0. -1.
         -5    1    5    5    0  502 -0.10910430853E+02  0.16903914172E+02 -0.19093878981E+02  0.28132650609E+02  0.47000000000E+01 0.  1.
         11    1    6    6    0    0 -0.44631277346E+02  0.18176725687E+02  0.82451126035E+02  0.95501478830E+02  0.00000000000E+00 0. -1.
        -12    1    6    6    0    0 -0.32889807319E+02 -0.77361475992E+02  0.12488228079E+03  0.15053943486E+03  0.00000000000E+00 0.  1.
</event>
<event>
12    1  0.8421768E-002  0.3076022E+03  0.7818608E-02  0.1081716E+00
         21   -1    0    0  501  502  0.00000000000E+00  0.00000000000E+00  0.43098330530E+03  0.43098330530E+03  0.00000000000E+00 0. -1.
         21   -1    0    0  502  503 -0.00000000000E+00 -0.00000000000E+00 -0.45617766254E+03  0.45617766254E+03  0.00000000000E+00 0.  1.
         -6    2    1    2    0  503 -0.15754007493E+03 -0.19838443931E+03 -0.33291188016E+03  0.45206421298E+03  0.17133730397E+03 0.  0.
        -24    2    3    3    0    0 -0.75749468431E+02 -0.74998104549E+02 -0.25611301254E+03  0.28522882409E+03  0.66324273424E+02 0.  0.
          6    2    1    2  501    0  0.15754007493E+03  0.19838443931E+03  0.30771752291E+03  0.43509675486E+03  0.17448166441E+03 0.  0.
         24    2    5    5    0    0  0.79095714602E+02  0.13765422193E+03  0.96764690252E+02  0.20193401217E+03  0.78797989244E+02 0.  0.
          5    1    5    5  501    0  0.78444360329E+02  0.60730217378E+02  0.21095283266E+03  0.23316274269E+03  0.47000000000E+01 0. -1.
        -13    1    6    6    0    0 -0.84012186786E+01  0.12378110103E+02  0.33236174257E+02  0.36447789566E+02  0.00000000000E+00 0.  1.
         14    1    6    6    0    0  0.87496933281E+02  0.12527611183E+03  0.63528515995E+02  0.16548622261E+03  0.00000000000E+00 0. -1.
         -5    1    3    3    0  503 -0.81790606500E+02 -0.12338633476E+03 -0.76798867618E+02  0.16683538889E+03  0.47000000000E+01 0.  1.
         11    1    4    4    0    0 -0.31506166785E+02 -0.33104386176E+02 -0.18958334175E+03  0.19501380053E+03  0.00000000000E+00 0. -1.
        -12    1    4    4    0    0 -0.44243301647E+02 -0.41893718373E+02 -0.66529670794E+02  0.90215023558E+02  0.00000000000E+00 0.  1.
</event>
<event>
12    1  0.8421768E-002  0.1734128E+03  0.7818608E-02  0.1174382E+00
         21   -1    0    0  501  502  0.00000000000E+00  0.00000000000E+00  0.36276959919E+02  0.36276959919E+02  0.00000000000E+00 0. -1.
         21   -1    0    0  502  503 -0.00000000000E+00 -0.00000000000E+00 -0.91155236360E+03  0.91155236360E+03  0.00000000000E+00 0. -1.
         -6    2    1    2    0  503 -0.15667283266E+02  0.16129699403E+02 -0.58126575098E+03  0.60658212737E+03  0.17194875114E+03 0.  0.
        -24    2    3    3    0    0  0.12739831450E+02  0.70637469473E+02 -0.42799307458E+03  0.44137721069E+03  0.80522138767E+02 0.  0.
          6    2    1    2  501    0  0.15667283266E+02 -0.16129699403E+02 -0.29400965270E+03  0.34124719615E+03  0.17176245815E+03 0.  0.
         24    2    5    5    0    0  0.28003157035E+02  0.18229633769E+02 -0.60675479319E+02  0.10502767107E+03  0.78948094018E+02 0.  0.
          5    1    5    5  501    0 -0.12335873769E+02 -0.34359333172E+02 -0.23333417338E+03  0.23621952507E+03  0.47000000000E+01 0. -1.
        -11    1    6    6    0    0  0.37186749211E+02 -0.20362681886E+02 -0.16086331681E+02  0.45346038387E+02  0.00000000000E+00 0.  1.
         12    1    6    6    0    0 -0.91835921757E+01  0.38592315656E+02 -0.44589147637E+02  0.59681632685E+02  0.00000000000E+00 0. -1.
         -5    1    3    3    0  503 -0.28407114716E+02 -0.54507770070E+02 -0.15327267640E+03  0.16520491668E+03  0.47000000000E+01 0.  1.
         11    1    4    4    0    0  0.36822699400E+01 -0.14761325993E+02 -0.24444832597E+02  0.28792459042E+02  0.00000000000E+00 0. -1.
        -12    1    4    4    0    0  0.90575615100E+01  0.85398795466E+02 -0.40354824198E+03  0.41258475165E+03  0.00000000000E+00 0.  1.
</event>
<event>
12    1  0.8421768E-002  0.1856840E+03  0.7818608E-02  0.1162620E+00
         21   -1    0    0  501  502  0.00000000000E+00  0.00000000000E+00  0.67656431378E+03  0.67656431378E+03  0.00000000000E+00 0.  1.
         21   -1    0    0  502  503 -0.00000000000E+00 -0.00000000000E+00 -0.85127766987E+02  0.85127766987E+02  0.00000000000E+00 0.  1.
         -6    2    1    2    0  503  0.68817535540E+02  0.12557659747E+02  0.54005773405E+02  0.19337829255E+03  0.17200288501E+03 0.  0.
        -24    2    3    3    0    0  0.44238196086E+02  0.45202515310E+02  0.92152737666E+02  0.13727917130E+03  0.79706702537E+02 0.  0.
          6    2    1    2  501    0 -0.68817535540E+02 -0.12557659747E+02  0.53743077338E+03  0.56831378822E+03  0.17104145018E+03 0.  0.
         24    2    5    5    0    0 -0.29340453218E+02  0.27922582393E+02  0.47746205261E+03  0.48575818572E+03  0.79689839422E+02 0.  0.
          5    1    5    5  501    0 -0.39477082322E+02 -0.40480242141E+02  0.59968720775E+02  0.82555602498E+02  0.47000000000E+01 0. -1.
        -11    1    6    6    0    0  0.18453457054E+02 -0.61856773781E+01  0.41236405567E+02  0.45598616491E+02  0.00000000000E+00 0.  1.
         12    1    6    6    0    0 -0.47793910272E+02  0.34108259771E+02  0.43622564704E+03  0.44015956923E+03  0.00000000000E+00 0. -1.
         -5    1    3    3    0  503  0.24579339454E+02 -0.32644855563E+02 -0.38146964261E+02  0.56099121250E+02  0.47000000000E+01 0.  1.
         13    1    4    4    0    0  0.29167547168E+02 -0.19643787520E+02  0.32844321836E+02  0.48118329905E+02  0.00000000000E+00 0. -1.
        -14    1    4    4    0    0  0.15070648919E+02  0.64846302830E+02  0.59308415830E+02  0.89160841393E+02  0.00000000000E+00 0.  1.
</event>
<event>
12    1  0.8421768E-002  0.2121925E+03  0.7818608E-02  0.1139850E+00
         21   -1    0    0  501  502  0.00000000000E+00  0.00000000000E+00  0.24971172010E+03  0.24971172010E+03  0.00000000000E+00 0. -1.
         21   -1    0    0  502  503 -0.00000000000E+00 -0.00000000000E+00 -0.18087197418E+03  0.18087197418E+03  0.00000000000E+00 0. -1.
         -6    2    1    2    0  503 -0.10194099643E+03  0.72423082266E+02  0.46814687784E+02  0.21729532765E+03  0.17143096228E+03 0.  0.
        -24    2    3    3    0    0 -0.10573581923E+03  0.81957718154E+02 -0.12731614545E+02  0.15668871017E+03  0.80573735500E+02 0.  0.
          6    2    1    2  501    0  0.10194099643E+03 -0.72423082266E+02  0.22025058141E+02  0.21328836663E+03  0.17137606179E+03 0.  0.
         24    2    5    5    0    0  0.13190545626E+03 -0.66343097494E+02 -0.21205879858E+02  0.16012974486E+03  0.58235640922E+02 0.  0.
          5    1    5    5  501    0 -0.29964459830E+02 -0.60799847719E+01  0.43230937999E+02  0.53158621766E+02  0.47000000000E+01 0. -1.
        -11    1    6    6    0    0  0.46179476507E+02 -0.33827392678E+02 -0.35468959474E+02  0.67341544621E+02  0.00000000000E+00 0.  1.
         12    1    6    6    0    0  0.85725979749E+02 -0.32515704816E+02  0.14263079616E+02  0.92788200240E+02  0.00000000000E+00 0. -1.
         -5    1    3    3    0  503  0.37948228022E+01 -0.95346358877E+01  0.59546302329E+02  0.60606617483E+02  0.47000000000E+01 0.  1.
         11    1    4    4    0    0 -0.63008322809E+02  0.20731938364E+02 -0.39702646677E+02  0.77305641221E+02  0.00000000000E+00 0. -1.
        -12    1    4    4    0    0 -0.42727496419E+02  0.61225779790E+02  0.26971032132E+02  0.79383068947E+02  0.00000000000E+00 0.  1.
</event>
<event>
12    1  0.8421768E-002  0.2064734E+03  0.7818608E-02  0.1146467E+00
         21   -1    0    0  501  502  0.00000000000E+00  0.00000000000E+00  0.27145437276E+02  0.27145437276E+02  0.00000000000E+00 0. -1.
         21   -1    0    0  502  503 -0.00000000000E+00 -0.00000000000E+00 -0.16474710647E+04  0.16474710647E+04  0.00000000000E+00 0.  1.
         -6    2    1    2    0  503  0.56356286704E+02  0.79559324479E+02 -0.10827665610E+04  0.11022770555E+04  0.18200429717E+03 0.  0.
        -24    2    3    3    0    0  0.93706198909E+02  0.87075087719E+02 -0.59584786188E+03  0.61384751888E+03  0.73560718566E+02 0.  0.
          6    2    1    2  501    0 -0.56356286704E+02 -0.79559324479E+02 -0.53755906637E+03  0.57233944647E+03  0.17057835440E+03 0.  0.
         24    2    5    5    0    0  0.37260302514E+02 -0.47268310367E+02 -0.30620539705E+03  0.32063846182E+03  0.73652255261E+02 0.  0.
          5    1    5    5  501    0 -0.93616589218E+02 -0.32291014113E+02 -0.23135366932E+03  0.25170098465E+03  0.47000000000E+01 0. -1.
        -11    1    6    6    0    0  0.26672202031E+02  0.17243401415E+01 -0.21423811832E+03  0.21589893713E+03  0.00000000000E+00 0.  1.
         12    1    6    6    0    0  0.10588100483E+02 -0.48992650508E+02 -0.91967278730E+02  0.10473952469E+03  0.00000000000E+00 0. -1.
         -5    1    3    3    0  503 -0.37349912206E+02 -0.75157632397E+01 -0.48691869914E+03  0.48842953659E+03  0.47000000000E+01 0.  1.
         11    1    4    4    0    0  0.36292262360E+02  0.58059726542E+02 -0.17168949054E+03  0.18483868998E+03  0.00000000000E+00 0. -1.
        -12    1    4    4    0    0  0.57413936549E+02  0.29015361177E+02 -0.42415837135E+03  0.42900882890E+03  0.00000000000E+00 0.  1.
</event>
<event>
12    1  0.8421768E-002  0.2296566E+03  0.7818608E-02  0.1127015E+00
         21   -1    0    0  501  502  0.00000000000E+00  0.00000000000E+00  0.13092126216E+04  0.13092126216E+04  0.00000000000E+00 0.  1.
         21   -1    0    0  502  503 -0.00000000000E+00 -0.00000000000E+00 -0.42631503784E+02  0.42631503784E+02  0.00000000000E+00 0.  1.
         -6    2    1    2    0  503 -0.80664326578E+02  0.12735244687E+03  0.79527611454E+03  0.82756315089E+03  0.17225356612E+03 0.  0.
        -24    2    3    3    0    0 -0.58082204752E+02  0.13347071735E+03  0.42626194730E+03  0.45777817136E+03  0.81692298031E+02 0.  0.
          6    2    1    2  501    0  0.80664326578E+02 -0.12735244687E+03  0.47130500327E+03  0.52428097449E+03  0.17325344095E+03 0.  0.
         24    2    5    5    0    0  0.15758040683E+02 -0.70692095512E+02  0.39270309755E+03  0.40756092074E+03  0.81513760044E+02 0.  0.
          5    1    5    5  501    0  0.64906285894E+02 -0.56660351354E+02  0.78601905717E+02  0.11672005375E+03  0.47000000000E+01 0. -1.
        -11    1    6    6    0    0  0.44737733204E+02 -0.44726790649E+02  0.16804256323E+03  0.17955571177E+03  0.00000000000E+00 0.  1.
         12    1    6    6    0    0 -0.28979692521E+02 -0.25965304864E+02  0.22466053432E+03  0.22800520897E+03  0.00000000000E+00 0. -1.
         -5    1    3    3    0  503 -0.22582121825E+02 -0.61182704857E+01  0.36901416724E+03  0.36978497953E+03  0.47000000000E+01 0.  1.
         13    1    4    4    0    0 -0.45556169912E+02  0.96655064460E+02  0.18699085496E+03  0.21536746723E+03  0.00000000000E+00 0. -1.
        -14    1    4    4    0    0 -0.12526034841E+02  0.36815652893E+02  0.23927109233E+03  0.24241070412E+03  0.00000000000E+00 0.  1.
</event>
<event>
12    1  0.8421768E-002  0.2088780E+03  0.7818608E-02  0.1142519E+00
         21   -1    0    0  501  502  0.00000000000E+00  0.00000000000E+00  0.36511665744E+03  0.36511665744E+03  0.00000000000E+00 0.  1.
         21   -1    0    0  502  503 -0.00000000000E+00 -0.00000000000E+00 -0.13072274575E+03  0.13072274575E+03  0.00000000000E+00 0.  1.
         -6    2    1    2    0  503 -0.99074013446E+02  0.60187362752E+02  0.44052570915E+02  0.21347283641E+03  0.17375800444E+03 0.  0.
        -24    2    3    3    0    0 -0.10582603563E+03  0.28843633403E+02  0.86379254813E+02  0.16016563856E+03  0.78489178291E+02 0.  0.
          6    2    1    2  501    0  0.99074013446E+02 -0.60187362752E+02  0.19034134077E+03  0.28236656677E+03  0.17338648520E+03 0.  0.
         24    2    5    5    0    0  0.50352513635E+02 -0.69104251065E+02  0.19659183161E+03  0.23222223433E+03  0.89263904892E+02 0.  0.
          5    1    5    5  501    0  0.48721499811E+02  0.89168883136E+01 -0.62504908351E+01  0.50144332448E+02  0.47000000000E+01 0. -1.
        -13    1    6    6    0    0  0.28189491365E+02 -0.86257644461E+02  0.11851370818E+03  0.14926663284E+03  0.00000000000E+00 0.  1.
         14    1    6    6    0    0  0.22163022271E+02  0.17153393395E+02  0.78078123423E+02  0.82955601489E+02  0.00000000000E+00 0. -1.
         -5    1    3    3    0  503  0.67520221825E+01  0.31343729349E+02 -0.42326683898E+02  0.53307197852E+02  0.47000000000E+01 0.  1.
         11    1    4    4    0    0 -0.76753890617E+02  0.42326296716E+02  0.92617879577E+02  0.12751763304E+03  0.00000000000E+00 0. -1.
        -12    1    4    4    0    0 -0.29072145012E+02 -0.13482663313E+02 -0.62386247641E+01  0.32648005522E+02  0.00000000000E+00 0.  1.
</event>
<event>
12    1  0.8421768E-002  0.2318790E+03  0.7818608E-02  0.1125649E+00
         21   -1    0    0  501  502  0.00000000000E+00  0.00000000000E+00  0.48608320204E+02  0.48608320204E+02  0.00000000000E+00 0.  1.
         21   -1    0    0  502  503 -0.00000000000E+00 -0.00000000000E+00 -0.11700335633E+04  0.11700335633E+04  0.00000000000E+00 0. -1.
         -6    2    1    2    0  503  0.39548404141E+01  0.15283770947E+03 -0.71050693604E+03  0.74681381161E+03  0.17185970107E+03 0.  0.
        -24    2    3    3    0    0  0.20146328976E+02  0.14268648254E+03 -0.70833553992E+03  0.72701440074E+03  0.77752137502E+02 0.  0.
          6    2    1    2  501    0 -0.39548404141E+01 -0.15283770947E+03 -0.41091830706E+03  0.47182807190E+03  0.17433550458E+03 0.  0.
         24    2    5    5    0    0 -0.63270495407E+02 -0.51708872987E+02 -0.18843335255E+03  0.22029868300E+03  0.79670686230E+02 0.  0.
          5    1    5    5  501    0  0.59315654993E+02 -0.10112883648E+03 -0.22248495451E+03  0.25152938890E+03  0.47000000000E+01 0. -1.
        -11    1    6    6    0    0 -0.77849567774E+02 -0.57832658369E+02 -0.14865147752E+03  0.17748924854E+03  0.00000000000E+00 0.  1.
         12    1    6    6    0    0  0.14579072367E+02  0.61237853815E+01 -0.39781875030E+02  0.42809434467E+02  0.00000000000E+00 0. -1.
         -5    1    3    3    0  503 -0.16191488562E+02  0.10151226928E+02 -0.21713961199E+01  0.19799410878E+02  0.47000000000E+01 0.  1.
         13    1    4    4    0    0  0.33610144115E+01  0.46175616764E+02 -0.92533277971E+02  0.10346927821E+03  0.00000000000E+00 0. -1.
        -14    1    4    4    0    0  0.16785314564E+02  0.96510865779E+02 -0.61580226195E+03  0.62354512253E+03  0.00000000000E+00 0.  1.
</event>
<event>
12    1  0.8421768E-002  0.2078604E+03  0.7818608E-02  0.1143848E+00
         21   -1    0    0  501  502  0.00000000000E+00  0.00000000000E+00  0.89311061804E+02  0.89311061804E+02  0.00000000000E+00 0.  1.
         21   -1    0    0  502  503 -0.00000000000E+00 -0.00000000000E+00 -0.57141458468E+03  0.57141458468E+03  0.00000000000E+00 0.  1.
         -6    2    1    2    0  503  0.10222629207E+03  0.55155511374E+02 -0.37661696730E+03  0.43017004530E+03  0.17237628197E+03 0.  0.
        -24    2    3    3    0    0  0.31294629393E+02  0.13585295409E+02 -0.56764323335E+02  0.99886549679E+02  0.74774463040E+02 0.  0.
          6    2    1    2  501    0 -0.10222629207E+03 -0.55155511374E+02 -0.10548655557E+03  0.23055560118E+03  0.16892639405E+03 0.  0.
         24    2    5    5    0    0 -0.54150544461E+01 -0.66637478029E+02 -0.37324992009E+02  0.11150796351E+03  0.81061671613E+02 0.  0.
          5    1    5    5  501    0 -0.96811237622E+02  0.11481966656E+02 -0.68161563559E+02  0.11904763767E+03  0.47000000000E+01 0. -1.
        -13    1    6    6    0    0 -0.21395540596E+02 -0.80774050524E+02 -0.32323995488E+02  0.89593845099E+02  0.00000000000E+00 0.  1.
         14    1    6    6    0    0  0.15980486150E+02  0.14136572494E+02 -0.50009965213E+01  0.21914118410E+02  0.00000000000E+00 0. -1.
         -5    1    3    3    0  503  0.70931662676E+02  0.41570215965E+02 -0.31985264397E+03  0.33028349562E+03  0.47000000000E+01 0.  1.
         13    1    4    4    0    0  0.41571361383E+02 -0.20645503177E+02 -0.30647272870E+02  0.55620771507E+02  0.00000000000E+00 0. -1.
        -14    1    4    4    0    0 -0.10276731990E+02  0.34230798585E+02 -0.26117050465E+02  0.44265778172E+02  0.00000000000E+00 0.  1.
</event>
<event>
12    1  0.8421768E-002  0.1740459E+03  0.7818608E-02  0.1173777E+00
         21   -1    0    0  503  502  0.00000000000E+00  0.00000000000E+00  0.19887637435E+03  0.19887637435E+03  0.00000000000E+00 0.  1.
         21   -1    0    0  501  503 -0.00000000000E+00 -0.00000000000E+00 -0.22029765980E+03  0.22029765980E+03  0.00000000000E+00 0.  1.
          6    2    1    2  501    0 -0.17157804956E+02  0.18286555835E+02 -0.12739447218E+03  0.21568806702E+03  0.17223008541E+03 0.  0.
         24    2    3    3    0    0 -0.25075075121E+02 -0.31913079431E+02 -0.13752792390E+03  0.16365477584E+03  0.78878081685E+02 0.  0.
         -6    2    1    2    0  502  0.17157804956E+02 -0.18286555835E+02  0.10597318673E+03  0.20348596713E+03  0.17189367097E+03 0.  0.
        -24    2    5    5    0    0  0.27692602507E+02  0.54201679261E+02  0.54321173302E+02  0.11373326980E+03  0.79244965281E+02 0.  0.
          5    1    3    3  501    0  0.79172701643E+01  0.50199635266E+02  0.10133451723E+02  0.52033291184E+02  0.47000000000E+01 0. -1.
        -13    1    4    4    0    0  0.13194549198E+02  0.90208972298E+01 -0.93128538422E+00  0.16010621719E+02  0.00000000000E+00 0.  1.
         14    1    4    4    0    0 -0.38269624318E+02 -0.40933976661E+02 -0.13659663852E+03  0.14764415412E+03  0.00000000000E+00 0. -1.
         -5    1    5    5    0  502 -0.10534797551E+02 -0.72488235095E+02  0.51652013427E+02  0.89752697328E+02  0.47000000000E+01 0.  1.
         13    1    6    6    0    0  0.25777120197E+02 -0.11136966035E+02 -0.10015148099E+01  0.28097953129E+02  0.00000000000E+00 0. -1.
        -14    1    6    6    0    0  0.19154823099E+01  0.65338645296E+02  0.55322688112E+02  0.85635316672E+02  0.00000000000E+00 0.  1.
</event>
<event>
12    1  0.8421768E-002  0.1919622E+03  0.7818608E-02  0.1156792E+00
         21   -1    0    0  503  502  0.00000000000E+00  0.00000000000E+00  0.14359453172E+03  0.14359453172E+03  0.00000000000E+00 0. -1.
         21   -1    0    0  501  503 -0.00000000000E+00 -0.00000000000E+00 -0.66539993705E+03  0.66539993705E+03  0.00000000000E+00 0.  1.
          6    2    1    2  501    0 -0.70377735395E+01  0.84165476565E+02 -0.57804703247E+03  0.60896292586E+03  0.17194218684E+03 0.  0.
         24    2    3    3    0    0  0.19054188931E+02 -0.18679179747E+02 -0.28579869800E+03  0.29801438857E+03  0.80123068749E+02 0.  0.
         -6    2    1    2    0  502  0.70377735395E+01 -0.84165476565E+02  0.56241627144E+02  0.20003154292E+03  0.17238369945E+03 0.  0.
        -24    2    5    5    0    0  0.10900825813E+02 -0.45545175200E+02 -0.36560206972E+02  0.99330394635E+02  0.79603313858E+02 0.  0.
          5    1    3    3  501    0 -0.26091962470E+02  0.10284465631E+03 -0.29224833447E+03  0.31094853728E+03  0.47000000000E+01 0. -1.
        -11    1    4    4    0    0  0.63648353804E+01  0.28440759032E+02 -0.16798282661E+03  0.17049228118E+03  0.00000000000E+00 0.  1.
         12    1    4    4    0    0  0.12689353551E+02 -0.47119938779E+02 -0.11781587139E+03  0.12752210740E+03  0.00000000000E+00 0. -1.
         -5    1    5    5    0  502 -0.38630522740E+01 -0.38620301365E+02  0.92801834116E+02  0.10070114828E+03  0.47000000000E+01 0.  1.
         11    1    6    6    0    0 -0.55632303524E+01 -0.13207100520E+02  0.24452104592E+02  0.28342238004E+02  0.00000000000E+00 0. -1.
        -12    1    6    6    0    0  0.16464056166E+02 -0.32338074679E+02 -0.61012311564E+02  0.70988156630E+02  0.00000000000E+00 0.  1.
</event>
<event>
12    1  0.8421768E-002  0.1774202E+03  0.7818608E-02  0.1170451E+00
         21   -1    0    0  501  502  0.00000000000E+00  0.00000000000E+00  0.60071350098E+02  0.60071350098E+02  0.00000000000E+00 0. -1.
         21   -1    0    0  502  503 -0.00000000000E+00 -0.00000000000E+00 -0.67832737830E+03  0.67832737830E+03  0.00000000000E+00 0. -1.
         -6    2    1    2    0  503  0.21068792166E+02  0.33265049359E+02 -0.48644013816E+03  0.51778561210E+03  0.17299559119E+03 0.  0.
        -24    2    3    3    0    0 -0.37337831297E+02 -0.35423362307E+01 -0.38404467986E+03  0.39420148213E+03  0.80609122292E+02 0.  0.
          6    2    1    2  501    0 -0.21068792166E+02 -0.33265049359E+02 -0.13181589004E+03  0.22061311630E+03  0.17246524491E+03 0.  0.
         24    2    5    5    0    0  0.18613473856E+01  0.45785322913E+02 -0.56751793517E+02  0.10911665338E+03  0.81153666395E+02 0.  0.
          5    1    5    5  501    0 -0.22930139551E+02 -0.79050372272E+02 -0.75064096521E+02  0.11149646292E+03  0.47000000000E+01 0. -1.
        -11    1    6    6    0    0 -0.36587939434E+02  0.38967271120E+02 -0.39302776335E+02  0.66346316840E+02  0.00000000000E+00 0.  1.
         12    1    6    6    0    0  0.38449286820E+02  0.68180517930E+01 -0.17449017182E+02  0.42770336541E+02  0.00000000000E+00 0. -1.
         -5    1    3    3    0  503  0.58406623463E+02  0.36807385589E+02 -0.10239545831E+03  0.12358412997E+03  0.47000000000E+01 0.  1.
         13    1    4    4    0    0 -0.77673940708E+00  0.24774295625E+02 -0.27003190952E+03  0.27116710937E+03  0.00000000000E+00 0. -1.
        -14    1    4    4    0    0 -0.36561091890E+02 -0.28316631856E+02 -0.11401277034E+03  0.12303437276E+03  0.00000000000E+00 0.  1.
</event>
<event>
12    1  0.8421768E-002  0.2248125E+03  0.7818608E-02  0.1130442E+00
         21   -1    0    0  503  502  0.00000000000E+00  0.00000000000E+00  0.18364120976E+03  0.18364120976E+03  0.00000000000E+00 0. -1.
         21   -1    0    0  501  503 -0.00000000000E+00 -0.00000000000E+00 -0.27538800856E+03  0.27538800856E+03  0.00000000000E+00 0.  1.
          6    2    1    2  501    0  0.35130215403E+01  0.14377783805E+03 -0.58408081393E+02  0.23175818144E+03  0.17209283150E+03 0.  0.
         24    2    3    3    0    0 -0.22645131155E+02  0.50140735131E+01 -0.10778853398E+02  0.82660010217E+02  0.78603757609E+02 0.  0.
         -6    2    1    2    0  502 -0.35130215403E+01 -0.14377783805E+03 -0.33338717403E+02  0.22727103689E+03  0.17278960066E+03 0.  0.
        -24    2    5    5    0    0 -0.54966712516E+02 -0.13748553814E+03 -0.62311716572E+01  0.16858556689E+03  0.80365746302E+02 0.  0.
          5    1    3    3  501    0  0.26158152695E+02  0.13876376454E+03 -0.47629227995E+02  0.14909817122E+03  0.47000000000E+01 0. -1.
        -13    1    4    4    0    0  0.13045572155E+02 -0.11465182824E+01 -0.36143583907E+02  0.38442946228E+02  0.00000000000E+00 0.  1.
         14    1    4    4    0    0 -0.35690703310E+02  0.61605917955E+01  0.25364730509E+02  0.44217063989E+02  0.00000000000E+00 0. -1.
         -5    1    5    5    0  502  0.51453690976E+02 -0.62922999097E+01 -0.27107545745E+02  0.58685470004E+02  0.47000000000E+01 0.  1.
         13    1    6    6    0    0  0.77305073059E+01 -0.14976246939E+02  0.22385860575E+02  0.28020982661E+02  0.00000000000E+00 0. -1.
        -14    1    6    6    0    0 -0.62697219822E+02 -0.12250929120E+03 -0.28617032232E+02  0.14056458422E+03  0.00000000000E+00 0.  1.
</event>
<event>
12    1  0.8421768E-002  0.1961776E+03  0.7818608E-02  0.1153181E+00
         21   -1    0    0  501  502  0.00000000000E+00  0.00000000000E+00  0.42525209060E+03  0.42525209060E+03  0.00000000000E+00 0.  1.
         21   -1    0    0  502  503 -0.00000000000E+00 -0.00000000000E+00 -0.90125189157E+02  0.90125189157E+02  0.00000000000E+00 0.  1.
         -6    2    1    2    0  503 -0.87419170251E+02 -0.43267419873E+02  0.16681491966E+03  0.25689212854E+03  0.16926951094E+03 0.  0.
        -24    2    3    3    0    0 -0.46174497388E+02  0.37045020652E+02  0.55971408571E+02  0.11385512251E+03  0.79534725626E+02 0.  0.
          6    2    1    2  501    0  0.87419170251E+02  0.43267419873E+02  0.16831198179E+03  0.25848515122E+03  0.17021007385E+03 0.  0.
         24    2    5    5    0    0  0.45539246553E+02  0.25358723129E+02  0.18834213499E+03  0.20850569078E+03  0.72697836695E+02 0.  0.
          5    1    5    5  501    0  0.41879923698E+02  0.17908696744E+02 -0.20030153208E+02  0.49979460437E+02  0.47000000000E+01 0. -1.
        -11    1    6    6    0    0 -0.17451103274E+01  0.39812416966E+02  0.77924210180E+02  0.87522891217E+02  0.00000000000E+00 0.  1.
         12    1    6    6    0    0  0.47284356880E+02 -0.14453693837E+02  0.11041792481E+03  0.12098279957E+03  0.00000000000E+00 0. -1.
         -5    1    3    3    0  503 -0.41244672863E+02 -0.80312440525E+02  0.11084351109E+03  0.14303700603E+03  0.47000000000E+01 0.  1.
         13    1    4    4    0    0 -0.37928841731E+02  0.26655319240E+02  0.76478698784E+02  0.89432066098E+02  0.00000000000E+00 0. -1.
        -14    1    4    4    0    0 -0.82456556575E+01  0.10389701412E+02 -0.20507290213E+02  0.24423056413E+02  0.00000000000E+00 0.  1.
</event>
<event>
12    1  0.8421768E-002  0.1973804E+03  0.7818608E-02  0.1152543E+00
         21   -1    0    0  503  502  0.00000000000E+00  0.00000000000E+00  0.24716263444E+04  0.24716263444E+04  0.00000000000E+00 0.  1.
         21   -1    0    0  501  503 -0.00000000000E+00 -0.00000000000E+00 -0.18399394760E+02  0.18399394760E+02  0.00000000000E+00 0.  1.
          6    2    1    2  501    0 -0.67613364219E+02 -0.68679248873E+02  0.74377874518E+03  0.76952312046E+03  0.17225157445E+03 0.  0.
         24    2    3    3    0    0  0.29943563176E+02 -0.21573760732E+02  0.37440574584E+03  0.38456236437E+03  0.79664957408E+02 0.  0.
         -6    2    1    2    0  502  0.67613364219E+02  0.68679248873E+02  0.17094482044E+04  0.17205026187E+04  0.16919719550E+03 0.  0.
        -24    2    5    5    0    0 -0.12278455424E+02 -0.97297884684E+01  0.83692491371E+03  0.84081536582E+03  0.79257422048E+02 0.  0.
          5    1    3    3  501    0 -0.97556927395E+02 -0.47105488141E+02  0.36937299933E+03  0.38496075609E+03  0.47000000000E+01 0. -1.
        -13    1    4    4    0    0 -0.24925079959E+02  0.68625390167E+01  0.12080389016E+03  0.12353919997E+03  0.00000000000E+00 0.  1.
         14    1    4    4    0    0  0.54868643135E+02 -0.28436299748E+02  0.25360185569E+03  0.26102316440E+03  0.00000000000E+00 0. -1.
         -5    1    5    5    0  502  0.79891819642E+02  0.78409037341E+02  0.87252329070E+03  0.87968725283E+03  0.47000000000E+01 0.  1.
         13    1    6    6    0    0 -0.12860781289E+02  0.32733721001E+02  0.49797965085E+03  0.49922002047E+03  0.00000000000E+00 0. -1.
        -14    1    6    6    0    0  0.58232586501E+00 -0.42463509469E+02  0.33894526287E+03  0.34159534534E+03  0.00000000000E+00 0.  1.
</event>
<event>
12    1  0.8421768E-002  0.1916467E+03  0.7818608E-02  0.1158339E+00
         21   -1    0    0  501  502  0.00000000000E+00  0.00000000000E+00  0.68717050872E+02  0.68717050872E+02  0.00000000000E+00 0.  1.
         21   -1    0    0  502  503 -0.00000000000E+00 -0.00000000000E+00 -0.10001940484E+04  0.10001940484E+04  0.00000000000E+00 0.  1.
         -6    2    1    2    0  503 -0.66262351215E+02 -0.77835522485E+01 -0.98475063973E+02  0.21546641830E+03  0.17965844348E+03 0.  0.
        -24    2    3    3    0    0 -0.52059788382E+02 -0.73262982950E+02 -0.82451949295E+02  0.14641499659E+03  0.81002105194E+02 0.  0.
          6    2    1    2  501    0  0.66262351215E+02  0.77835522485E+01 -0.83300193357E+03  0.85344468099E+03  0.17327527032E+03 0.  0.
         24    2    5    5    0    0  0.55378219372E+02  0.63002686809E+02 -0.37500193293E+03  0.39197560539E+03  0.77345586785E+02 0.  0.
          5    1    5    5  501    0  0.10884131843E+02 -0.55219134560E+02 -0.45800000064E+03  0.46146907560E+03  0.47000000000E+01 0. -1.
        -11    1    6    6    0    0  0.54945631612E+02  0.35283942404E+02 -0.34500568431E+03  0.35113088903E+03  0.00000000000E+00 0.  1.
         12    1    6    6    0    0  0.43258775975E+00  0.27718744404E+02 -0.29996248626E+02  0.40844716367E+02  0.00000000000E+00 0. -1.
         -5    1    3    3    0  503 -0.14202562832E+02  0.65479430702E+02 -0.16023114678E+02  0.69051421709E+02  0.47000000000E+01 0.  1.
         11    1    4    4    0    0 -0.20547517593E+02 -0.38521293276E+02  0.81302790114E+01  0.44409367837E+02  0.00000000000E+00 0. -1.
        -12    1    4    4    0    0 -0.31512270790E+02 -0.34741689675E+02 -0.90582228307E+02  0.10200562875E+03  0.00000000000E+00 0.  1.
</event>
<event>
12    1  0.8421768E-002  0.2398996E+03  0.7818608E-02  0.1119897E+00
         21   -1    0    0  503  502  0.00000000000E+00  0.00000000000E+00  0.33867102197E+03  0.33867102197E+03  0.00000000000E+00 0.  1.
         21   -1    0    0  501  503 -0.00000000000E+00 -0.00000000000E+00 -0.35323413009E+03  0.35323413009E+03  0.00000000000E+00 0. -1.
          6    2    1    2  501    0  0.73041660320E+01  0.16595984611E+03 -0.25660119848E+03  0.35127764900E+03  0.17307741118E+03 0.  0.
         24    2    3    3    0    0 -0.33043797401E+01  0.96537398626E+01 -0.91767764241E+02  0.12382151886E+03  0.82500499151E+02 0.  0.
         -6    2    1    2    0  502 -0.73041660320E+01 -0.16595984611E+03  0.24203809036E+03  0.34062750306E+03  0.17276758172E+03 0.  0.
        -24    2    5    5    0    0  0.31225974947E+02 -0.15490886475E+03  0.12700827857E+03  0.21872326378E+03  0.82078897447E+02 0.  0.
          5    1    3    3  501    0  0.10608545772E+02  0.15630610625E+03 -0.16483343424E+03  0.22745613014E+03  0.47000000000E+01 0. -1.
        -11    1    4    4    0    0 -0.17179745989E+02  0.24355194800E+02  0.49983487022E-01  0.29804725872E+02  0.00000000000E+00 0.  1.
         12    1    4    4    0    0  0.13875366249E+02 -0.14701454937E+02 -0.91817747728E+02  0.94016792988E+02  0.00000000000E+00 0. -1.
         -5    1    5    5    0  502 -0.38530140979E+02 -0.11050981362E+02  0.11502981179E+03  0.12190423928E+03  0.47000000000E+01 0.  1.
         13    1    6    6    0    0 -0.24901230663E+02 -0.29140760558E+02  0.14847792789E+02  0.41106108611E+02  0.00000000000E+00 0. -1.
        -14    1    6    6    0    0  0.56127205610E+02 -0.12576810419E+03  0.11216048578E+03  0.17761715517E+03  0.00000000000E+00 0.  1.
</event>
<event>
12    1  0.8421768E-002  0.2686432E+03  0.7818608E-02  0.1103416E+00
         21   -1    0    0  501  502  0.00000000000E+00  0.00000000000E+00  0.19717617282E+03  0.19717617282E+03  0.00000000000E+00 0.  1.
         21   -1    0    0  502  503 -0.00000000000E+00 -0.00000000000E+00 -0.35497868352E+03  0.35497868352E+03  0.00000000000E+00 0. -1.
         -6    2    1    2    0  503  0.20591209305E+03  0.75178452880E+01 -0.95205322614E+02  0.27631512200E+03  0.15757437968E+03 0.  0.
        -24    2    3    3    0    0  0.19475311299E+03  0.36945323693E+02 -0.11087041355E+03  0.24084704629E+03  0.80133133849E+02 0.  0.
          6    2    1    2  501    0 -0.20591209305E+03 -0.75178452880E+01 -0.62597188087E+02  0.27583973433E+03  0.17237413674E+03 0.  0.
         24    2    5    5    0    0 -0.19673531668E+03 -0.51522434131E+02 -0.70901097072E+02  0.22988691104E+03  0.80384577217E+02 0.  0.
          5    1    5    5  501    0 -0.91767763757E+01  0.44004588843E+02  0.83039089857E+01  0.45952823290E+02  0.47000000000E+01 0. -1.
        -13    1    6    6    0    0 -0.16892746224E+03 -0.14807015497E+02 -0.39415066090E+02  0.17409561350E+03  0.00000000000E+00 0.  1.
         14    1    6    6    0    0 -0.27807854442E+02 -0.36715418633E+02 -0.31486030982E+02  0.55791297539E+02  0.00000000000E+00 0. -1.
         -5    1    3    3    0  503  0.11158980059E+02 -0.29427478405E+02  0.15665090933E+02  0.35468075718E+02  0.47000000000E+01 0.  1.
         11    1    4    4    0    0  0.16103274462E+03  0.56170094227E+01 -0.59231386591E+02  0.17167251612E+03  0.00000000000E+00 0. -1.
        -12    1    4    4    0    0  0.33720368378E+02  0.31328314270E+02 -0.51639026956E+02  0.69174530165E+02  0.00000000000E+00 0.  1.
</event>
<event>
12    1  0.8421768E-002  0.3739335E+03  0.7818608E-02  0.1053218E+00
         21   -1    0    0  501  502  0.00000000000E+00  0.00000000000E+00  0.35752297622E+03  0.35752297622E+03  0.00000000000E+00 0.  1.
         21   -1    0    0  502  503 -0.00000000000E+00 -0.00000000000E+00 -0.42984460146E+03  0.42984460146E+03  0.00000000000E+00 0. -1.
         -6    2    1    2    0  503 -0.27641061171E+03 -0.18394816058E+03 -0.15466990886E+03  0.40447398464E+03  0.17157118492E+03 0.  0.
        -24    2    3    3    0    0 -0.10634372156E+03 -0.15015021588E+02 -0.63175729192E+02  0.14785280958E+03  0.79591724149E+02 0.  0.
          6    2    1    2  501    0  0.27641061171E+03  0.18394816058E+03  0.82348283618E+02  0.38289359305E+03  0.17200730141E+03 0.  0.
         24    2    5    5    0    0  0.14102744025E+03  0.26346587171E+02  0.52431795476E+02  0.17293182197E+03  0.81076755681E+02 0.  0.
          5    1    5    5  501    0  0.13538317146E+03  0.15760157341E+03  0.29916488142E+02  0.20996177108E+03  0.47000000000E+01 0. -1.
        -13    1    6    6    0    0  0.10323478343E+03  0.42369558424E+02  0.66061373611E+02  0.12967923918E+03  0.00000000000E+00 0.  1.
         14    1    6    6    0    0  0.37792656821E+02 -0.16022971253E+02 -0.13629578135E+02  0.43252582784E+02  0.00000000000E+00 0. -1.
         -5    1    3    3    0  503 -0.17006689015E+03 -0.16893313899E+03 -0.91494179665E+02  0.25662117506E+03  0.47000000000E+01 0.  1.
         11    1    4    4    0    0 -0.47786618752E+02 -0.43240231912E+02 -0.13019904959E+02  0.65747977252E+02  0.00000000000E+00 0. -1.
        -12    1    4    4    0    0 -0.58557102809E+02  0.28225210324E+02 -0.50155824234E+02  0.82104832329E+02  0.00000000000E+00 0.  1.
</event>
<event>
12    1  0.8421768E-002  0.2321805E+03  0.7818608E-02  0.1125214E+00
         21   -1    0    0  503  502  0.00000000000E+00  0.00000000000E+00  0.22166308177E+03  0.22166308177E+03  0.00000000000E+00 0. -1.
         21   -1    0    0  501  503 -0.00000000000E+00 -0.00000000000E+00 -0.88866388346E+03  0.88866388346E+03  0.00000000000E+00 0. -1.
          6    2    1    2  501    0 -0.26116528516E+02  0.15423290650E+03 -0.80697318660E+03  0.83971036199E+03  0.17157478142E+03 0.  0.
         24    2    3    3    0    0  0.51994165866E+02  0.75925002663E+02 -0.42123670875E+03  0.43840233973E+03  0.79298470153E+02 0.  0.
         -6    2    1    2    0  502  0.26116528516E+02 -0.15423290650E+03  0.13997238491E+03  0.27061660324E+03  0.17079582812E+03 0.  0.
        -24    2    5    5    0    0  0.31186548466E+02 -0.18292426228E+03  0.12131200620E+03  0.23569957684E+03  0.80023753591E+02 0.  0.
          5    1    3    3  501    0 -0.78110694382E+02  0.78307903833E+02 -0.38573647786E+03  0.40130802226E+03  0.47000000000E+01 0. -1.
        -11    1    4    4    0    0  0.70691866771E+02  0.57582736781E+02 -0.27173346089E+03  0.28662202527E+03  0.00000000000E+00 0.  1.
         12    1    4    4    0    0 -0.18697700905E+02  0.18342265883E+02 -0.14950324786E+03  0.15178031446E+03  0.00000000000E+00 0. -1.
         -5    1    5    5    0  502 -0.50700199501E+01  0.28691355781E+02  0.18660378713E+02  0.34917026399E+02  0.47000000000E+01 0.  1.
         13    1    6    6    0    0  0.44780137917E+02 -0.48216355294E+02  0.29499589393E+02  0.72113129485E+02  0.00000000000E+00 0. -1.
        -14    1    6    6    0    0 -0.13593589451E+02 -0.13470790698E+03  0.91812416805E+02  0.16358644735E+03  0.00000000000E+00 0.  1.
</event>
<event>
12    1  0.8421768E-002  0.2295755E+03  0.7818608E-02  0.1126960E+00
         21   -1    0    0  503  502  0.00000000000E+00  0.00000000000E+00  0.61442452638E+03  0.61442452638E+03  0.00000000000E+00 0.  1.
         21   -1    0    0  501  503 -0.00000000000E+00 -0.00000000000E+00 -0.50760913771E+03  0.50760913771E+03  0.00000000000E+00 0. -1.
          6    2    1    2  501    0 -0.10946281879E+03 -0.10605155566E+03 -0.45803898832E+03  0.51235204329E+03  0.17168535257E+03 0.  0.
         24    2    3    3    0    0 -0.10787184736E+03 -0.14046265242E+03 -0.38333253686E+03  0.42995180870E+03  0.80923617152E+02 0.  0.
         -6    2    1    2    0  502  0.10946281879E+03  0.10605155566E+03  0.56485437699E+03  0.60968162079E+03  0.17152891990E+03 0.  0.
        -24    2    5    5    0    0  0.63874854746E+02  0.33428282029E+02  0.46787680638E+03  0.48014729507E+03  0.80220146479E+02 0.  0.
          5    1    3    3  501    0 -0.15909714355E+01  0.34411096763E+02 -0.74706451467E+02  0.82400234595E+02  0.47000000000E+01 0. -1.
        -13    1    4    4    0    0 -0.21580392675E+02 -0.84788142229E+02 -0.13107775060E+03  0.15759479405E+03  0.00000000000E+00 0.  1.
         14    1    4    4    0    0 -0.86291454683E+02 -0.55674510190E+02 -0.25225478626E+03  0.27235701465E+03  0.00000000000E+00 0. -1.
         -5    1    5    5    0  502  0.45587964047E+02  0.72623273627E+02  0.96977570611E+02  0.12953432572E+03  0.47000000000E+01 0.  1.
         11    1    6    6    0    0 -0.25467888062E+01 -0.17515388891E+02  0.34664651507E+02  0.38921883887E+02  0.00000000000E+00 0. -1.
        -12    1    6    6    0    0  0.66421643552E+02  0.50943670919E+02  0.43321215488E+03  0.44122541118E+03  0.00000000000E+00 0.  1.
</event>
<event>
12    1  0.8421768E-002  0.2309059E+03  0.7818608E-02  0.1126018E+00
         21   -1    0    0  503  502  0.00000000000E+00  0.00000000000E+00  0.19990804320E+03  0.19990804320E+03  0.00000000000E+00 0.  1.
         21   -1    0    0  501  503 -0.00000000000E+00 -0.00000000000E+00 -0.33019443291E+03  0.33019443291E+03  0.00000000000E+00 0.  1.
          6    2    1    2  501    0  0.18335344965E+02  0.15269118723E+03 -0.18143727242E+03  0.29359889453E+03  0.17213379539E+03 0.  0.
         24    2    3    3    0    0  0.30887199134E+01  0.17819468687E+03 -0.17557288555E+03  0.26294976562E+03  0.80955879836E+02 0.  0.
         -6    2    1    2    0  502 -0.18335344965E+02 -0.15269118723E+03  0.51150882709E+02  0.23650358158E+03  0.17224037787E+03 0.  0.
        -24    2    5    5    0    0 -0.23394137478E+01 -0.15361090392E+03 -0.75405638491E+01  0.17548316210E+03  0.84473057363E+02 0.  0.
          5    1    3    3  501    0  0.15246625052E+02 -0.25503499644E+02 -0.58643868673E+01  0.30649128909E+02  0.47000000000E+01 0. -1.
        -13    1    4    4    0    0  0.18398498450E+02  0.49343262397E+02 -0.99393474963E+02  0.11248255489E+03  0.00000000000E+00 0.  1.
         14    1    4    4    0    0 -0.15309778537E+02  0.12885142447E+03 -0.76179410585E+02  0.15046721073E+03  0.00000000000E+00 0. -1.
         -5    1    5    5    0  502 -0.15995931217E+02  0.91971668731E+00  0.58691446558E+02  0.61020419479E+02  0.47000000000E+01 0.  1.
         13    1    6    6    0    0 -0.67761701834E+01  0.93629820443E+01 -0.45509802817E+01  0.12421486893E+02  0.00000000000E+00 0. -1.
        -14    1    6    6    0    0  0.44367564356E+01 -0.16297388596E+03 -0.29895835673E+01  0.16306167521E+03  0.00000000000E+00 0.  1.
</event>
<event>
12    1  0.8421768E-002  0.2865568E+03  0.7818608E-02  0.1092373E+00
         21   -1    0    0  501  502  0.00000000000E+00  0.00000000000E+00  0.82295341783E+03  0.82295341783E+03  0.00000000000E+00 0. -1.
         21   -1    0    0  502  503 -0.00000000000E+00 -0.00000000000E+00 -0.17652201900E+03  0.17652201900E+03  0.00000000000E+00 0. -1.
         -6    2    1    2    0  503 -0.20822354143E+03  0.94749339106E+02 -0.69689854284E+01  0.28664149586E+03  0.17256969583E+03 0.  0.
        -24    2    3    3    0    0 -0.74377420025E+02  0.89097572314E+02 -0.41274747260E+02  0.14827350108E+03  0.82529075838E+02 0.  0.
          6    2    1    2  501    0  0.20822354143E+03 -0.94749339106E+02  0.65340038426E+03  0.71283394098E+03  0.16989904296E+03 0.  0.
         24    2    5    5    0    0  0.86548872753E+02 -0.98504007125E+02  0.44804027942E+03  0.47405855450E+03  0.82448009788E+02 0.  0.
          5    1    5    5  501    0  0.12167466868E+03  0.37546680193E+01  0.20536010484E+03  0.23877538648E+03  0.47000000000E+01 0. -1.
        -13    1    6    6    0    0  0.40320833415E+02 -0.26060618975E+02  0.29198813671E+03  0.29590876541E+03  0.00000000000E+00 0.  1.
         14    1    6    6    0    0  0.46228039339E+02 -0.72443388150E+02  0.15605214271E+03  0.17814978909E+03  0.00000000000E+00 0. -1.
         -5    1    3    3    0  503 -0.13384612141E+03  0.56517667914E+01  0.34305761831E+02  0.13836799478E+03  0.47000000000E+01 0.  1.
         11    1    4    4    0    0 -0.69432794732E+02  0.29427690327E+02  0.24466837069E+00  0.75411947361E+02  0.00000000000E+00 0. -1.
        -12    1    4    4    0    0 -0.49446252932E+01  0.59669881987E+02 -0.41519415630E+02  0.72861553716E+02  0.00000000000E+00 0.  1.
</event>
<event>
12    1  0.8421768E-002  0.2025811E+03  0.7818608E-02  0.1147726E+00
         21   -1    0    0  501  502  0.00000000000E+00  0.00000000000E+00  0.19726328024E+03  0.19726328024E+03  0.00000000000E+00 0. -1.
         21   -1    0    0  502  503 -0.00000000000E+00 -0.00000000000E+00 -0.11443944767E+04  0.11443944767E+04  0.00000000000E+00 0. -1.
         -6    2    1    2    0  503  0.11901614379E+02 -0.10505035696E+03 -0.10804470823E+04  0.10991453924E+04  0.17198101675E+03 0.  0.
        -24    2    3    3    0    0  0.34761734220E+02 -0.90682292975E+02 -0.43411215531E+03  0.45222966825E+03  0.81404256846E+02 0.  0.
          6    2    1    2  501    0 -0.11901614379E+02  0.10505035696E+03  0.13331588585E+03  0.24251236450E+03  0.17280594779E+03 0.  0.
         24    2    5    5    0    0  0.28950594934E+02  0.10577963019E+03  0.14755047635E+03  0.19899054915E+03  0.76148726000E+02 0.  0.
          5    1    5    5  501    0 -0.40852209313E+02 -0.72927322196E+00 -0.14234590493E+02  0.43521815353E+02  0.47000000000E+01 0. -1.
        -11    1    6    6    0    0  0.10016400189E+02  0.26788288538E+02 -0.21413547739E+01  0.28679715407E+02  0.00000000000E+00 0.  1.
         12    1    6    6    0    0  0.18934194744E+02  0.78991341648E+02  0.14969183112E+03  0.17031083374E+03  0.00000000000E+00 0. -1.
         -5    1    3    3    0  503 -0.22860119841E+02 -0.14368063990E+02 -0.64633492696E+03  0.64691572415E+03  0.47000000000E+01 0.  1.
         13    1    4    4    0    0  0.30933490986E+02  0.46769658858E+01 -0.10756619437E+03  0.11202339509E+03  0.00000000000E+00 0. -1.
        -14    1    4    4    0    0  0.38282432345E+01 -0.95359258860E+02 -0.32654596094E+03  0.34020627317E+03  0.00000000000E+00 0.  1.
</event>
<event>
12    1  0.8421768E-002  0.1919654E+03  0.7818608E-02  0.1157123E+00
         21   -1    0    0  501  502  0.00000000000E+00  0.00000000000E+00  0.61331682229E+02  0.61331682229E+02  0.00000000000E+00 0. -1.
         21   -1    0    0  502  503 -0.00000000000E+00 -0.00000000000E+00 -0.16032317899E+04  0.16032317899E+04  0.00000000000E+00 0.  1.
         -6    2    1    2    0  503  0.81109712276E+02  0.24774383830E+01 -0.14295638634E+04  0.14421446482E+04  0.17188200475E+03 0.  0.
        -24    2    3    3    0    0  0.93166573176E+02 -0.15526157057E+02 -0.59356037617E+03  0.60584720227E+03  0.76261657665E+02 0.  0.
          6    2    1    2  501    0 -0.81109712276E+02 -0.24774383830E+01 -0.11233624421E+03  0.22241882391E+03  0.17397062493E+03 0.  0.
         24    2    5    5    0    0 -0.10017253512E+03 -0.20555639145E+02 -0.26349906592E+02  0.13238575879E+03  0.79841095059E+02 0.  0.
          5    1    5    5  501    0  0.19062822842E+02  0.18078200762E+02 -0.85986337621E+02  0.90033065120E+02  0.47000000000E+01 0. -1.
        -11    1    6    6    0    0 -0.36101351122E+02 -0.19970318116E+02 -0.49336536451E+02  0.64313412190E+02  0.00000000000E+00 0.  1.
         12    1    6    6    0    0 -0.64071183996E+02 -0.58532102890E+00  0.22986629859E+02  0.68072346600E+02  0.00000000000E+00 0. -1.
         -5    1    3    3    0  503 -0.12056860899E+02  0.18003595440E+02 -0.83600348727E+03  0.83629744594E+03  0.47000000000E+01 0.  1.
         11    1    4    4    0    0  0.25030360020E+02 -0.38590341744E+02 -0.16498619086E+03  0.17127806798E+03  0.00000000000E+00 0. -1.
        -12    1    4    4    0    0  0.68136213156E+02  0.23064184687E+02 -0.42857418531E+03  0.43456913429E+03  0.00000000000E+00 0.  1.
</event>
<event>
12    1  0.8421768E-002  0.1819176E+03  0.7818608E-02  0.1166068E+00
         21   -1    0    0  503  502  0.00000000000E+00  0.00000000000E+00  0.18583697725E+03  0.18583697725E+03  0.00000000000E+00 0.  1.
         21   -1    0    0  501  503 -0.00000000000E+00 -0.00000000000E+00 -0.19082560836E+03  0.19082560836E+03  0.00000000000E+00 0.  1.
          6    2    1    2  501    0  0.25937158857E+02  0.54088302119E+02  0.47014103253E+02  0.18789444287E+03  0.17174316616E+03 0.  0.
         24    2    3    3    0    0 -0.12163854177E+01  0.43183262314E+02  0.94668768644E+02  0.13177588985E+03  0.80848226025E+02 0.  0.
         -6    2    1    2    0  502 -0.25937158857E+02 -0.54088302119E+02 -0.52002734369E+02  0.18876814274E+03  0.17126250814E+03 0.  0.
        -24    2    5    5    0    0 -0.29174868603E+02  0.26830254414E+02  0.67597344972E+01  0.88601215547E+02  0.78952174613E+02 0.  0.
          5    1    3    3  501    0  0.27153544275E+02  0.10905039805E+02 -0.47654665391E+02  0.56118553023E+02  0.47000000000E+01 0. -1.
        -11    1    4    4    0    0 -0.41016896342E+02  0.22026002447E+02  0.49921142303E+02  0.68261636504E+02  0.00000000000E+00 0.  1.
         12    1    4    4    0    0  0.39800510924E+02  0.21157259867E+02  0.44747626341E+02  0.63514253346E+02  0.00000000000E+00 0. -1.
         -5    1    5    5    0  502  0.32377097451E+01 -0.80918556533E+02 -0.58762468866E+02  0.10016692719E+03  0.47000000000E+01 0.  1.
         11    1    6    6    0    0  0.16998476439E+02  0.37300221930E+02  0.25988026768E+01  0.41073209427E+02  0.00000000000E+00 0. -1.
        -12    1    6    6    0    0 -0.46173345042E+02 -0.10469967516E+02  0.41609318204E+01  0.47528006120E+02  0.00000000000E+00 0.  1.
</event>
<event>
12    1  0.8421768E-002  0.2431787E+03  0.7818608E-02  0.1117754E+00
         21   -1    0    0  501  502  0.00000000000E+00  0.00000000000E+00  0.16069146196E+03  0.16069146196E+03  0.00000000000E+00 0. -1.
         21   -1    0    0  502  503 -0.00000000000E+00 -0.00000000000E+00 -0.39034137399E+03  0.39034137399E+03  0.00000000000E+00 0. -1.
         -6    2    1    2    0  503  0.51765054818E-01 -0.17133262437E+03 -0.18147266821E+03  0.30312775108E+03  0.17204427719E+03 0.  0.
        -24    2    3    3    0    0 -0.42605773374E+02 -0.12820689548E+03 -0.18452033286E+03  0.24221082127E+03  0.79787647716E+02 0.  0.
          6    2    1    2  501    0 -0.51765054818E-01  0.17133262437E+03 -0.48177243825E+02  0.24790508487E+03  0.17257176313E+03 0.  0.
         24    2    5    5    0    0 -0.40187972453E+02  0.78964507513E+02  0.25996749447E+02  0.12273857404E+03  0.80860744486E+02 0.  0.
          5    1    5    5  501    0  0.40136207398E+02  0.92368116854E+02 -0.74173993271E+02  0.12516651083E+03  0.47000000000E+01 0. -1.
        -13    1    6    6    0    0 -0.17271386269E+02 -0.15207925899E+02  0.40966378009E+01  0.23374435503E+02  0.00000000000E+00 0.  1.
         14    1    6    6    0    0 -0.22916586184E+02  0.94172433412E+02  0.21900111646E+02  0.99364138537E+02  0.00000000000E+00 0. -1.
         -5    1    3    3    0  503  0.42657538429E+02 -0.43125728889E+02  0.30476646540E+01  0.60916929805E+02  0.47000000000E+01 0.  1.
         13    1    4    4    0    0 -0.43939906346E+02 -0.37050238077E+02 -0.35620343301E+02  0.67618373007E+02  0.00000000000E+00 0. -1.
        -14    1    4    4    0    0  0.13341329711E+01 -0.91156657401E+02 -0.14889998956E+03  0.17459244826E+03  0.00000000000E+00 0.  1.
</event>
<event>
12    1  0.8421768E-002  0.1825961E+03  0.7818608E-02  0.1166803E+00
         21   -1    0    0  503  502  0.00000000000E+00  0.00000000000E+00  0.83818411289E+02  0.83818411289E+02  0.00000000000E+00 0. -1.
         21   -1    0    0  501  503 -0.00000000000E+00 -0.00000000000E+00 -0.40003199279E+03  0.40003199279E+03  0.00000000000E+00 0.  1.
          6    2    1    2  501    0 -0.47381337842E+02 -0.59147220820E+01 -0.11302306752E+03  0.21474528731E+03  0.17624230342E+03 0.  0.
         24    2    3    3    0    0  0.36950059668E+02  0.13530691438E+02 -0.85795368076E+02  0.12389735761E+03  0.80257856435E+02 0.  0.
         -6    2    1    2    0  502  0.47381337842E+02  0.59147220820E+01 -0.20319051399E+03  0.26910511678E+03  0.16985642110E+03 0.  0.
        -24    2    5    5    0    0 -0.33745120567E+02  0.10013371987E+02 -0.64699829158E+02  0.10848114294E+03  0.79643516376E+02 0.  0.
          5    1    3    3  501    0 -0.84331397510E+02 -0.19445413520E+02 -0.27227699440E+02  0.90847929695E+02  0.47000000000E+01 0. -1.
        -13    1    4    4    0    0 -0.23297896718E+02  0.16267021046E+00 -0.42646369836E+02  0.48595589443E+02  0.00000000000E+00 0.  1.
         14    1    4    4    0    0  0.60247956386E+02  0.13368021228E+02 -0.43148998239E+02  0.75301768168E+02  0.00000000000E+00 0. -1.
         -5    1    5    5    0  502  0.81126458409E+02 -0.40986499046E+01 -0.13849068483E+03  0.16062397383E+03  0.47000000000E+01 0.  1.
         13    1    6    6    0    0 -0.17759513519E-01 -0.16105590959E+02  0.12427468699E+02  0.20342869852E+02  0.00000000000E+00 0. -1.
        -14    1    6    6    0    0 -0.33727361054E+02  0.26118962945E+02 -0.77127297857E+02  0.88138273092E+02  0.00000000000E+00 0.  1.
</event>
<event>
12    1  0.8421768E-002  0.2445445E+03  0.7818608E-02  0.1116806E+00
         21   -1    0    0  501  502  0.00000000000E+00  0.00000000000E+00  0.32346975446E+02  0.32346975446E+02  0.00000000000E+00 0.  1.
         21   -1    0    0  502  503 -0.00000000000E+00 -0.00000000000E+00 -0.19684392583E+04  0.19684392583E+04  0.00000000000E+00 0.  1.
         -6    2    1    2    0  503 -0.12361532850E+03 -0.12234283266E+03 -0.12148621785E+04  0.12392254089E+04  0.17187490558E+03 0.  0.
        -24    2    3    3    0    0 -0.65672824221E+02 -0.56598825346E+02 -0.10050555846E+04  0.10118039826E+04  0.78065512070E+02 0.  0.
          6    2    1    2  501    0  0.12361532850E+03  0.12234283266E+03 -0.72123010436E+03  0.76156082485E+03  0.17191133868E+03 0.  0.
         24    2    5    5    0    0  0.14166300459E+03  0.12160846494E+03 -0.50117327155E+03  0.54071391504E+03  0.79623264091E+02 0.  0.
          5    1    5    5  501    0 -0.18047676082E+02  0.73436772059E+00 -0.22005683281E+03  0.22084690982E+03  0.47000000000E+01 0. -1.
        -11    1    6    6    0    0  0.93815607668E+01  0.48146039547E+02 -0.88646321485E+02  0.10131251216E+03  0.00000000000E+00 0.  1.
         12    1    6    6    0    0  0.13228144382E+03  0.73462425393E+02 -0.41252695006E+03  0.43940140288E+03  0.00000000000E+00 0. -1.
         -5    1    3    3    0  503 -0.57942504283E+02 -0.65744007314E+02 -0.20980659386E+03  0.22742142627E+03  0.47000000000E+01 0.  1.
         11    1    4    4    0    0 -0.25387422570E+02 -0.38545206910E+02 -0.18895506440E+03  0.19451033536E+03  0.00000000000E+00 0. -1.
        -12    1    4    4    0    0 -0.40285401651E+02 -0.18053618436E+02 -0.81610052020E+03  0.81729364723E+03  0.00000000000E+00 0.  1.
</event>
<event>
12    1  0.8421768E-002  0.1924001E+03  0.7818608E-02  0.1157221E+00
         21   -1    0    0  503  502  0.00000000000E+00  0.00000000000E+00  0.43102093314E+03  0.43102093314E+03  0.00000000000E+00 0.  1.
         21   -1    0    0  501  503 -0.00000000000E+00 -0.00000000000E+00 -0.52152992570E+03  0.52152992570E+03  0.00000000000E+00 0.  1.
          6    2    1    2  501    0 -0.67605813251E+02  0.35224210629E+02 -0.48151986341E+03  0.51853561068E+03  0.17665364326E+03 0.  0.
         24    2    3    3    0    0 -0.16395181103E+02  0.16276888519E+02 -0.44898539549E+03  0.45480091476E+03  0.68718612037E+02 0.  0.
         -6    2    1    2    0  502  0.67605813251E+02 -0.35224210629E+02  0.39101087085E+03  0.43401524816E+03  0.17224530041E+03 0.  0.
        -24    2    5    5    0    0  0.61372494168E+02 -0.56204930327E+02  0.39241299066E+03  0.41158533943E+03  0.92135547748E+02 0.  0.
          5    1    3    3  501    0 -0.51210632149E+02  0.18947322110E+02 -0.32534467922E+02  0.63734695914E+02  0.47000000000E+01 0. -1.
        -11    1    4    4    0    0 -0.43160413072E+02  0.73016275124E+01 -0.29819390102E+03  0.30138967737E+03  0.00000000000E+00 0.  1.
         12    1    4    4    0    0  0.26765231970E+02  0.89752610066E+01 -0.15079149447E+03  0.15341123739E+03  0.00000000000E+00 0. -1.
         -5    1    5    5    0  502  0.62333190834E+01  0.20980719698E+02 -0.14021198094E+01  0.22429908734E+02  0.47000000000E+01 0.  1.
         11    1    6    6    0    0  0.32144558306E+02  0.88814661881E+01  0.40264583967E+02  0.52281830423E+02  0.00000000000E+00 0. -1.
        -12    1    6    6    0    0  0.29227935862E+02 -0.65086396515E+02  0.35214840669E+03  0.35930350900E+03  0.00000000000E+00 0.  1.
</event>
<event>
12    1  0.8421768E-002  0.2323452E+03  0.7818608E-02  0.1125184E+00
         21   -1    0    0  503  502  0.00000000000E+00  0.00000000000E+00  0.44954383926E+02  0.44954383926E+02  0.00000000000E+00 0. -1.
         21   -1    0    0  501  503 -0.00000000000E+00 -0.00000000000E+00 -0.14601419459E+04  0.14601419459E+04  0.00000000000E+00 0. -1.
          6    2    1    2  501    0 -0.79635451969E+02  0.13466952290E+03 -0.10267024987E+04  0.10524320895E+04  0.17034552103E+03 0.  0.
         24    2    3    3    0    0 -0.36894958679E+02  0.12745346867E+03 -0.96304848244E+03  0.97527805530E+03  0.78097893436E+02 0.  0.
         -6    2    1    2    0  502  0.79635451969E+02 -0.13466952290E+03 -0.38848506334E+03  0.45266424040E+03  0.17177480751E+03 0.  0.
        -24    2    5    5    0    0  0.10336947477E+03 -0.14565663668E+03 -0.28448785710E+03  0.34532585299E+03  0.80096815056E+02 0.  0.
          5    1    3    3  501    0 -0.42740493290E+02  0.72160542307E+01 -0.63654016237E+02  0.77154034168E+02  0.47000000000E+01 0. -1.
        -11    1    4    4    0    0  0.20836928886E+02  0.27532574391E+02 -0.14084611569E+03  0.14501671822E+03  0.00000000000E+00 0.  1.
         12    1    4    4    0    0 -0.57731887565E+02  0.99920894282E+02 -0.82220236675E+03  0.83026133708E+03  0.00000000000E+00 0. -1.
         -5    1    5    5    0  502 -0.23734022806E+02  0.10987113772E+02 -0.10399720624E+03  0.10733838741E+03  0.47000000000E+01 0.  1.
         13    1    6    6    0    0  0.10281847887E+03 -0.10411396029E+03 -0.25627028908E+03  0.29510306231E+03  0.00000000000E+00 0. -1.
        -14    1    6    6    0    0  0.55099590808E+00 -0.41542676390E+02 -0.28217568023E+02  0.50222790676E+02  0.00000000000E+00 0.  1.
</event>
<event>
12    1  0.8421768E-002  0.2331775E+03  0.7818608E-02  0.1124965E+00
         21   -1    0    0  503  502  0.00000000000E+00  0.00000000000E+00  0.14108569090E+03  0.14108569090E+03  0.00000000000E+00 0.  1.
         21   -1    0    0  501  503 -0.00000000000E+00 -0.00000000000E+00 -0.42673395311E+03  0.42673395311E+03  0.00000000000E+00 0.  1.
          6    2    1    2  501    0  0.58589284286E+01 -0.15755142510E+03 -0.23566383111E+03  0.32934488950E+03  0.16755248836E+03 0.  0.
         24    2    3    3    0    0 -0.53237537385E+02 -0.13232855567E+03 -0.18716837773E+03  0.24870690582E+03  0.80486280488E+02 0.  0.
         -6    2    1    2    0  502 -0.58589284286E+01  0.15755142510E+03 -0.49984431099E+02  0.23847475451E+03  0.17179926250E+03 0.  0.
        -24    2    5    5    0    0  0.98579404805E+01  0.14170973368E+03  0.21317691848E+02  0.16361447204E+03  0.78335329610E+02 0.  0.
          5    1    3    3  501    0  0.59096465814E+02 -0.25222869427E+02 -0.48495453380E+02  0.80637983682E+02  0.47000000000E+01 0. -1.
        -11    1    4    4    0    0  0.18845431640E+02 -0.53711669496E+02 -0.70974099125E+02  0.90980308201E+02  0.00000000000E+00 0.  1.
         12    1    4    4    0    0 -0.72082969026E+02 -0.78616886175E+02 -0.11619427861E+03  0.15772659762E+03  0.00000000000E+00 0. -1.
         -5    1    5    5    0  502 -0.15716868909E+02  0.15841691421E+02 -0.71302122946E+02  0.74860282474E+02  0.47000000000E+01 0.  1.
         11    1    6    6    0    0  0.42166935971E+02  0.74533696332E+02  0.24290932587E+02  0.89013323632E+02  0.00000000000E+00 0. -1.
        -12    1    6    6    0    0 -0.32308995490E+02  0.67176037345E+02 -0.29732407395E+01  0.74601148406E+02  0.00000000000E+00 0.  1.
</event>
<event>
12    1  0.8421768E-002  0.2247314E+03  0.7818608E-02  0.1130707E+00
         21   -1    0    0  501  502  0.00000000000E+00  0.00000000000E+00  0.35434237137E+03  0.35434237137E+03  0.00000000000E+00 0. -1.
         21   -1    0    0  502  503 -0.00000000000E+00 -0.00000000000E+00 -0.15230885130E+03  0.15230885130E+03  0.00000000000E+00 0. -1.
         -6    2    1    2    0  503  0.13984014297E+03 -0.22863138304E+02  0.33806086923E+02  0.22725991048E+03  0.17443115180E+03 0.  0.
        -24    2    3    3    0    0  0.12453274369E+03 -0.33213338072E+02 -0.37024830790E+02  0.15390766435E+03  0.75532780788E+02 0.  0.
          6    2    1    2  501    0 -0.13984014297E+03  0.22863138304E+02  0.16822743315E+03  0.27939131220E+03  0.17228188352E+03 0.  0.
         24    2    5    5    0    0 -0.88246787614E+02  0.50224652808E+02  0.30931308183E+02  0.13011692483E+03  0.75257272260E+02 0.  0.
          5    1    5    5  501    0 -0.51593355359E+02 -0.27361514504E+02  0.13729612497E+03  0.14927438737E+03  0.47000000000E+01 0. -1.
        -11    1    6    6    0    0  0.51744102319E+01  0.24654914268E+02  0.20916004791E+02  0.32743221822E+02  0.00000000000E+00 0.  1.
         12    1    6    6    0    0 -0.93421197846E+02  0.25569738539E+02  0.10015303392E+02  0.97373703010E+02  0.00000000000E+00 0. -1.
         -5    1    3    3    0  503  0.15307399285E+02  0.10350199768E+02  0.70830917713E+02  0.73352246129E+02  0.47000000000E+01 0.  1.
         13    1    4    4    0    0  0.52309002356E+02  0.61886061534E+01 -0.47553831741E+02  0.70964057712E+02  0.00000000000E+00 0. -1.
        -14    1    4    4    0    0  0.72223741332E+02 -0.39401944226E+02  0.10529000952E+02  0.82943606636E+02  0.00000000000E+00 0.  1.
</event>
<event>
12    1  0.8421768E-002  0.2107625E+03  0.7818608E-02  0.1141261E+00
         21   -1    0    0  503  502  0.00000000000E+00  0.00000000000E+00  0.56985825931E+02  0.56985825931E+02  0.00000000000E+00 0. -1.
         21   -1    0    0  501  503 -0.00000000000E+00 -0.00000000000E+00 -0.13465632389E+04  0.13465632389E+04  0.00000000000E+00 0. -1.
          6    2    1    2  501    0 -0.59051573311E+02  0.10645656849E+03 -0.11010893018E+04  0.11207972356E+04  0.17020194895E+03 0.  0.
         24    2    3    3    0    0 -0.28747619509E+02 -0.75826398448E+01 -0.32978311071E+03  0.34050331590E+03  0.79383159262E+02 0.  0.
         -6    2    1    2    0  502  0.59051573311E+02 -0.10645656849E+03 -0.18848811120E+03  0.28275182930E+03  0.17204865481E+03 0.  0.
        -24    2    5    5    0    0  0.69589908943E+02 -0.45242789780E+02 -0.40967944863E+02  0.12261915712E+03  0.80420269413E+02 0.  0.
          5    1    3    3  501    0 -0.30303953803E+02  0.11403920834E+03 -0.77130619109E+03  0.78029391966E+03  0.47000000000E+01 0. -1.
        -13    1    4    4    0    0  0.10830122315E+02  0.15979770351E+00 -0.29970959378E+01  0.11238312539E+02  0.00000000000E+00 0.  1.
         14    1    4    4    0    0 -0.39577741824E+02 -0.77424375483E+01 -0.32678601477E+03  0.32926500336E+03  0.00000000000E+00 0. -1.
         -5    1    5    5    0  502 -0.10538335632E+02 -0.61213778715E+02 -0.14752016634E+03  0.16013267218E+03  0.47000000000E+01 0.  1.
         13    1    6    6    0    0  0.45014539580E+02 -0.42339156649E+02 -0.63890830322E+02  0.88887294697E+02  0.00000000000E+00 0. -1.
        -14    1    6    6    0    0  0.24575369363E+02 -0.29036331309E+01  0.22922885459E+02  0.33731862422E+02  0.00000000000E+00 0.  1.
</event>
<event>
12    1  0.8421768E-002  0.2179844E+03  0.7818608E-02  0.1135469E+00
         21   -1    0    0  501  502  0.00000000000E+00  0.00000000000E+00  0.16017119712E+03  0.16017119712E+03  0.00000000000E+00 0.  1.
         21   -1    0    0  502  503 -0.00000000000E+00 -0.00000000000E+00 -0.33806040199E+03  0.33806040199E+03  0.00000000000E+00 0.  1.
         -6    2    1    2    0  503 -0.74948475605E+02  0.10926030427E+03 -0.17660767641E+03  0.28024342511E+03  0.17260074699E+03 0.  0.
        -24    2    3    3    0    0 -0.36229403160E+02  0.11512856297E+02 -0.18731570497E+02  0.90504960436E+02  0.79969748135E+02 0.  0.
          6    2    1    2  501    0  0.74948475605E+02 -0.10926030427E+03 -0.12815284569E+01  0.21798817401E+03  0.17309567761E+03 0.  0.
         24    2    5    5    0    0  0.54202720652E+02 -0.28221426352E+02  0.56191212237E+02  0.11638654014E+03  0.81571996179E+02 0.  0.
          5    1    5    5  501    0  0.20745754954E+02 -0.81038877919E+02 -0.57472740693E+02  0.10160163387E+03  0.47000000000E+01 0. -1.
        -11    1    6    6    0    0  0.16468477410E+02 -0.22549813488E+02  0.70347853147E+02  0.75687021866E+02  0.00000000000E+00 0.  1.
         12    1    6    6    0    0  0.37734243242E+02 -0.56716128643E+01 -0.14156640910E+02  0.40699518269E+02  0.00000000000E+00 0. -1.
         -5    1    3    3    0  503 -0.38719072445E+02  0.97747447973E+02 -0.15787610591E+03  0.18973846467E+03  0.47000000000E+01 0.  1.
         13    1    4    4    0    0 -0.11227849136E+01 -0.30785771567E+02 -0.17693102551E+02  0.35525628141E+02  0.00000000000E+00 0. -1.
        -14    1    4    4    0    0 -0.35106618247E+02  0.42298627865E+02 -0.10384679465E+01  0.54979332295E+02  0.00000000000E+00 0.  1.
</event>
<event>
12    1  0.8421768E-002  0.2496941E+03  0.7818608E-02  0.1113504E+00
         21   -1    0    0  503  502  0.00000000000E+00  0.00000000000E+00  0.18036477365E+03  0.18036477365E+03  0.00000000000E+00 0. -1.
         21   -1    0    0  501  503 -0.00000000000E+00 -0.00000000000E+00 -0.38717330311E+03  0.38717330311E+03  0.00000000000E+00 0.  1.
          6    2    1    2  501    0  0.43771920390E+02 -0.17542002894E+03 -0.19637272898E+03  0.31766236513E+03  0.17221777483E+03 0.  0.
         24    2    3    3    0    0 -0.65102157979E+01 -0.16050218613E+03 -0.94575820202E+02  0.20305199959E+03  0.80512074305E+02 0.  0.
         -6    2    1    2    0  502 -0.43771920390E+02  0.17542002894E+03 -0.10435800481E+02  0.24987571163E+03  0.17216503060E+03 0.  0.
        -24    2    5    5    0    0 -0.78428783154E+02  0.60982542548E+02  0.13574945787E+02  0.12782800634E+03  0.79282882952E+02 0.  0.
          5    1    3    3  501    0  0.50282136188E+02 -0.14917842814E+02 -0.10179690878E+03  0.11461036554E+03  0.47000000000E+01 0. -1.
        -13    1    4    4    0    0 -0.47732423173E+01 -0.33683392113E+02 -0.64165947162E+02  0.72626603402E+02  0.00000000000E+00 0.  1.
         14    1    4    4    0    0 -0.17369734806E+01 -0.12681879402E+03 -0.30409873039E+02  0.13042539619E+03  0.00000000000E+00 0. -1.
         -5    1    5    5    0  502  0.34656862764E+02  0.11443748640E+03 -0.24010746268E+02  0.12204770529E+03  0.47000000000E+01 0.  1.
         11    1    6    6    0    0 -0.74776493336E+02  0.13823450701E+02  0.23310668833E+02  0.79536149180E+02  0.00000000000E+00 0. -1.
        -12    1    6    6    0    0 -0.36522898175E+01  0.47159091847E+02 -0.97357230463E+01  0.48291857160E+02  0.00000000000E+00 0.  1.
</event>
<event>
12    1  0.8421768E-002  0.2502715E+03  0.7818608E-02  0.1113204E+00
         21   -1    0    0  503  502  0.00000000000E+00  0.00000000000E+00  0.11856708185E+03  0.11856708185E+03  0.00000000000E+00 0.  1.
         21   -1    0    0  501  503 -0.00000000000E+00 -0.00000000000E+00 -0.97994481613E+03  0.97994481613E+03  0.00000000000E+00 0. -1.
          6    2    1    2  501    0  0.11225830616E+03  0.14164897572E+03 -0.80376502182E+03  0.84169477939E+03  0.17246892972E+03 0.  0.
         24    2    3    3    0    0  0.81887850511E+02  0.37090254411E+02 -0.25474367868E+03  0.28196143573E+03  0.80787389960E+02 0.  0.
         -6    2    1    2    0  502 -0.11225830616E+03 -0.14164897572E+03 -0.57612712457E+02  0.25681711860E+03  0.17311686268E+03 0.  0.
        -24    2    5    5    0    0 -0.10801970454E+03 -0.15522586690E+03 -0.87449610594E+02  0.22343107050E+03  0.80688800635E+02 0.  0.
          5    1    3    3  501    0  0.30370455646E+02  0.10455872131E+03 -0.54902134314E+03  0.55973334366E+03  0.47000000000E+01 0. -1.
        -13    1    4    4    0    0  0.15979210253E+02 -0.23799647212E+02 -0.39878897012E+02  0.49112979899E+02  0.00000000000E+00 0.  1.
         14    1    4    4    0    0  0.65908640258E+02  0.60889901623E+02 -0.21486478167E+03  0.23284845583E+03  0.00000000000E+00 0. -1.
         -5    1    5    5    0  502 -0.42386016204E+01  0.13576891173E+02  0.29836898137E+02  0.33386048105E+02  0.47000000000E+01 0.  1.
         11    1    6    6    0    0 -0.59121014364E+02 -0.48190722027E+02 -0.71741537949E+02  0.10471145256E+03  0.00000000000E+00 0. -1.
        -12    1    6    6    0    0 -0.48898690172E+02 -0.10703514487E+03 -0.15708072645E+02  0.11871961794E+03  0.00000000000E+00 0.  1.
</event>
<event>
12    1  0.8421768E-002  0.1892721E+03  0.7818608E-02  0.1159146E+00
         21   -1    0    0  501  502  0.00000000000E+00  0.00000000000E+00  0.19818612594E+03  0.19818612594E+03  0.00000000000E+00 0.  1.
         21   -1    0    0  502  503 -0.00000000000E+00 -0.00000000000E+00 -0.26372248912E+03  0.26372248912E+03  0.00000000000E+00 0.  1.
         -6    2    1    2    0  503 -0.22768667707E+02  0.73590599297E+02 -0.16240005689E+03  0.24939467144E+03  0.17288705888E+03 0.  0.
        -24    2    3    3    0    0  0.17716999262E+02  0.86484661154E+02 -0.16908284707E+03  0.20612694968E+03  0.78139756421E+02 0.  0.
          6    2    1    2  501    0  0.22768667707E+02 -0.73590599297E+02  0.96863693708E+02  0.21251394362E+03  0.17275882768E+03 0.  0.
         24    2    5    5    0    0 -0.18988927047E+01 -0.90506908580E+02  0.10415824368E+02  0.12091714144E+03  0.79481818062E+02 0.  0.
          5    1    5    5  501    0  0.24667560412E+02  0.16916309283E+02  0.86447869340E+02  0.91596802181E+02  0.47000000000E+01 0. -1.
        -11    1    6    6    0    0 -0.19281293891E+02 -0.61528842392E+02  0.40106463744E+02  0.75934808713E+02  0.00000000000E+00 0.  1.
         12    1    6    6    0    0  0.17382401187E+02 -0.28978066188E+02 -0.29690639376E+02  0.44982332727E+02  0.00000000000E+00 0. -1.
         -5    1    3    3    0  503 -0.40485666969E+02 -0.12894061856E+02  0.66827901821E+01  0.43267721753E+02  0.47000000000E+01 0.  1.
         13    1    4    4    0    0 -0.17857680102E+02  0.11927811300E+02 -0.87226092796E+02  0.89830733525E+02  0.00000000000E+00 0. -1.
        -14    1    4    4    0    0  0.35574679365E+02  0.74556849854E+02 -0.81856754276E+02  0.11629621616E+03  0.00000000000E+00 0.  1.
</event>
<event>
12    1  0.8421768E-002  0.1844786E+03  0.7818608E-02  0.1164828E+00
         21   -1    0    0  501  502  0.00000000000E+00  0.00000000000E+00  0.10552417537E+04  0.10552417537E+04  0.00000000000E+00 0. -1.
         21   -1    0    0  502  503 -0.00000000000E+00 -0.00000000000E+00 -0.37134925729E+02  0.37134925729E+02  0.00000000000E+00 0. -1.
         -6    2    1    2    0  503 -0.17099770717E+02 -0.63449555638E+02  0.28636456854E+03  0.33773830338E+03  0.16656604452E+03 0.  0.
        -24    2    3    3    0    0  0.44946251671E+02 -0.27836379996E+02  0.10331126595E+03  0.14114580922E+03  0.80336120121E+02 0.  0.
          6    2    1    2  501    0  0.17099770717E+02  0.63449555638E+02  0.73174225946E+03  0.75463837607E+03  0.17237777148E+03 0.  0.
         24    2    5    5    0    0  0.16763361418E+02 -0.11469860109E+02  0.22381395119E+03  0.24119286936E+03  0.87571385196E+02 0.  0.
          5    1    5    5  501    0  0.33640929942E+00  0.74919415747E+02  0.50792830827E+03  0.51344550671E+03  0.47000000000E+01 0. -1.
        -11    1    6    6    0    0  0.11745096986E+02  0.36562528230E+02  0.68337675113E+02  0.78388797756E+02  0.00000000000E+00 0.  1.
         12    1    6    6    0    0  0.50182644315E+01 -0.48032388339E+02  0.15547627608E+03  0.16280407160E+03  0.00000000000E+00 0. -1.
         -5    1    3    3    0  503 -0.62046022388E+02 -0.35613175643E+02  0.18305330259E+03  0.19659249417E+03  0.47000000000E+01 0.  1.
         11    1    4    4    0    0 -0.48222471042E+00 -0.71382380037E+01 -0.12852329777E+02  0.14709499080E+02  0.00000000000E+00 0. -1.
        -12    1    4    4    0    0  0.45428476381E+02 -0.20698141992E+02  0.11616359573E+03  0.12643631014E+03  0.00000000000E+00 0.  1.
</event>
<event>
12    1  0.8421768E-002  0.1767895E+03  0.7818608E-02  0.1171170E+00
         21   -1    0    0  503  502  0.00000000000E+00  0.00000000000E+00  0.33454251864E+03  0.33454251864E+03  0.00000000000E+00 0.  1.
         21   -1    0    0  501  503 -0.00000000000E+00 -0.00000000000E+00 -0.17677325472E+03  0.17677325472E+03  0.00000000000E+00 0.  1.
          6    2    1    2  501    0  0.42113436436E+02 -0.11642149281E+02 -0.97058481894E+02  0.20168009775E+03  0.17130508385E+03 0.  0.
         24    2    3    3    0    0  0.55201834759E+02  0.24284150915E+02 -0.12059421323E+03  0.15653559792E+03  0.79520227646E+02 0.  0.
         -6    2    1    2    0  502 -0.42113436436E+02  0.11642149281E+02  0.25482774581E+03  0.30963567560E+03  0.17037602648E+03 0.  0.
        -24    2    5    5    0    0 -0.33615765879E+02 -0.28103675830E+02  0.57029647748E+02  0.10765023400E+03  0.80102158821E+02 0.  0.
          5    1    3    3  501    0 -0.13088398323E+02 -0.35926300196E+02  0.23535731332E+02  0.45144499839E+02  0.47000000000E+01 0. -1.
        -13    1    4    4    0    0 -0.16620555600E+02  0.17013295410E+02 -0.50949047692E+02  0.56227222498E+02  0.00000000000E+00 0.  1.
         14    1    4    4    0    0  0.71822390359E+02  0.72708555057E+01 -0.69645165533E+02  0.10030837542E+03  0.00000000000E+00 0. -1.
         -5    1    5    5    0  502 -0.84976705579E+01  0.39745825111E+02  0.19779809807E+03  0.20198544160E+03  0.47000000000E+01 0.  1.
         11    1    6    6    0    0 -0.48700755867E+02  0.10157354800E+02  0.26020764810E+02  0.56142815033E+02  0.00000000000E+00 0. -1.
        -12    1    6    6    0    0  0.15084989988E+02 -0.38261030630E+02  0.31008882938E+02  0.51507418970E+02  0.00000000000E+00 0.  1.
</event>
<event>
12    1  0.8421768E-002  0.1913568E+03  0.7818608E-02  0.1159276E+00
         21   -1    0    0  503  502  0.00000000000E+00  0.00000000000E+00  0.16980721539E+03  0.16980721539E+03  0.00000000000E+00 0.  1.
         21   -1    0    0  501  503 -0.00000000000E+00 -0.00000000000E+00 -0.21009402822E+03  0.21009402822E+03  0.00000000000E+00 0.  1.
          6    2    1    2  501    0  0.49500353047E+02 -0.59235008469E+02  0.75966932341E+01  0.18264444358E+03  0.16535480593E+03 0.  0.
         24    2    3    3    0    0  0.95137962168E+01 -0.67155643816E+02 -0.46061960765E+02  0.11509444476E+03  0.80775207653E+02 0.  0.
         -6    2    1    2    0  502 -0.49500353047E+02  0.59235008469E+02 -0.47883506058E+02  0.19725680003E+03  0.17509524215E+03 0.  0.
        -24    2    5    5    0    0  0.17746221202E+02 -0.19587594630E+01  0.22751214807E+02  0.82026019534E+02  0.76758615150E+02 0.  0.
          5    1    3    3  501    0  0.39986556830E+02  0.79206353471E+01  0.53658653999E+02  0.67549998819E+02  0.47000000000E+01 0. -1.
        -11    1    4    4    0    0 -0.47944852758E-01  0.13496420418E+02  0.96624896864E+01  0.16598776152E+02  0.00000000000E+00 0.  1.
         12    1    4    4    0    0  0.95617410695E+01 -0.80652064234E+02 -0.55724450451E+02  0.98495668613E+02  0.00000000000E+00 0. -1.
         -5    1    5    5    0  502 -0.67246574249E+02  0.61193767932E+02 -0.70634720865E+02  0.11523078050E+03  0.47000000000E+01 0.  1.
         11    1    6    6    0    0  0.37063837251E+02  0.46978613122E+01 -0.14064861550E+02  0.39920148586E+02  0.00000000000E+00 0. -1.
        -12    1    6    6    0    0 -0.19317616049E+02 -0.66566207752E+01  0.36816076357E+02  0.42105870948E+02  0.00000000000E+00 0.  1.
</event>
<event>
12    1  0.8421768E-002  0.1941301E+03  0.7818608E-02  0.1154796E+00
         21   -1    0    0  503  502  0.00000000000E+00  0.00000000000E+00  0.86305726449E+03  0.86305726449E+03  0.00000000000E+00 0. -1.
         21   -1    0    0  501  503 -0.00000000000E+00 -0.00000000000E+00 -0.70198442582E+02  0.70198442582E+02  0.00000000000E+00 0. -1.
          6    2    1    2  501    0 -0.86844138679E+02  0.24445854057E+02  0.10948858166E+03  0.22284639612E+03  0.17185244411E+03 0.  0.
         24    2    3    3    0    0 -0.10472330483E+03  0.20378402926E+02  0.13672489404E+03  0.18967840774E+03  0.76824161781E+02 0.  0.
         -6    2    1    2    0  502  0.86844138679E+02 -0.24445854057E+02  0.68337024025E+03  0.71040931095E+03  0.17189240714E+03 0.  0.
        -24    2    5    5    0    0  0.81950937187E+02 -0.74169243697E+02  0.59252028978E+03  0.60662028264E+03  0.68489712336E+02 0.  0.
          5    1    3    3  501    0  0.17879166149E+02  0.40674511309E+01 -0.27236312379E+02  0.33167988376E+02  0.47000000000E+01 0. -1.
        -11    1    4    4    0    0  0.60742600102E+01 -0.96195738192E+00 -0.54174269702E+01  0.81957618104E+01  0.00000000000E+00 0.  1.
         12    1    4    4    0    0 -0.11079756484E+03  0.21340360308E+02  0.14214232101E+03  0.18148264593E+03  0.00000000000E+00 0. -1.
         -5    1    5    5    0  502  0.48932014915E+01  0.49723389640E+02  0.90849950470E+02  0.10378902831E+03  0.47000000000E+01 0.  1.
         13    1    6    6    0    0  0.16662408169E+02 -0.38651860319E+02  0.99605682470E+02  0.10813368639E+03  0.00000000000E+00 0. -1.
        -14    1    6    6    0    0  0.65288529019E+02 -0.35517383378E+02  0.49291460730E+03  0.49848659625E+03  0.00000000000E+00 0.  1.
</event>
<event>
12    1  0.8421768E-002  0.2674224E+03  0.7818608E-02  0.1102861E+00
         21   -1    0    0  503  502  0.00000000000E+00  0.00000000000E+00  0.23739183210E+03  0.23739183210E+03  0.00000000000E+00 0.  1.
         21   -1    0    0  501  503 -0.00000000000E+00 -0.00000000000E+00 -0.33213513580E+03  0.33213513580E+03  0.00000000000E+00 0.  1.
          6    2    1    2  501    0 -0.19731278430E+03  0.51747854537E+02 -0.13530807617E+03  0.29970490755E+03  0.17292940997E+03 0.  0.
         24    2    3    3    0    0 -0.30957852568E+02 -0.13002055573E+02 -0.48167171799E+02  0.10100377170E+03  0.82184203923E+02 0.  0.
         -6    2    1    2    0  502  0.19731278430E+03 -0.51747854537E+02  0.40564772466E+02  0.26982206036E+03  0.17189609709E+03 0.  0.
        -24    2    5    5    0    0  0.15749427276E+03  0.21706486676E+02  0.82338730759E-01  0.17685985543E+03  0.77484089762E+02 0.  0.
          5    1    3    3  501    0 -0.16635493173E+03  0.64749910110E+02 -0.87140904370E+02  0.19870113584E+03  0.47000000000E+01 0. -1.
        -13    1    4    4    0    0 -0.50583527660E+02  0.15144729739E+02 -0.19488208904E+02  0.56283624578E+02  0.00000000000E+00 0.  1.
         14    1    4    4    0    0  0.19625675092E+02 -0.28146785312E+02 -0.28678962895E+02  0.44720147125E+02  0.00000000000E+00 0. -1.
         -5    1    5    5    0  502  0.39818511539E+02 -0.73454341212E+02  0.40482433735E+02  0.92962204929E+02  0.47000000000E+01 0.  1.
         11    1    6    6    0    0 -0.65181338539E+01 -0.78522578058E+01 -0.22579381433E-01  0.10205122802E+02  0.00000000000E+00 0. -1.
        -12    1    6    6    0    0  0.16401240662E+03  0.29558744482E+02  0.10491811219E+00  0.16665473263E+03  0.00000000000E+00 0.  1.
</event>
<event>
12    1  0.8421768E-002  0.2426757E+03  0.7818608E-02  0.1120273E+00
         21   -1    0    0  503  502  0.00000000000E+00  0.00000000000E+00  0.54276604301E+03  0.54276604301E+03  0.00000000000E+00 0.  1.
         21   -1    0    0  501  503 -0.00000000000E+00 -0.00000000000E+00 -0.12204647846E+03  0.12204647846E+03  0.00000000000E+00 0. -1.
          6    2    1    2  501    0 -0.13434464389E+03 -0.99420632665E+02  0.72863403065E+02  0.24067175485E+03  0.15710147209E+03 0.  0.
         24    2    3    3    0    0 -0.15716687674E+03 -0.10424121889E+03  0.56408354015E+02  0.21174164937E+03  0.78006184468E+02 0.  0.
         -6    2    1    2    0  502  0.13434464389E+03  0.99420632665E+02  0.34785616149E+03  0.42414076663E+03  0.17595037734E+03 0.  0.
        -24    2    5    5    0    0  0.10120679216E+03  0.16169494597E+02  0.28870660422E+03  0.31667156484E+03  0.80156779660E+02 0.  0.
          5    1    3    3  501    0  0.22822232850E+02  0.48205862208E+01  0.16455049050E+02  0.28930105479E+02  0.47000000000E+01 0. -1.
        -11    1    4    4    0    0 -0.13721950840E+03 -0.79045774587E+02  0.74342070355E+02  0.17494047957E+03  0.00000000000E+00 0.  1.
         12    1    4    4    0    0 -0.19947368339E+02 -0.25195444299E+02 -0.17933716340E+02  0.36801169802E+02  0.00000000000E+00 0. -1.
         -5    1    5    5    0  502  0.33137851735E+02  0.83251138068E+02  0.59149557275E+02  0.10746920179E+03  0.47000000000E+01 0.  1.
         13    1    6    6    0    0  0.67900388231E+02  0.27276698387E+02  0.95553567670E+02  0.12035350137E+03  0.00000000000E+00 0. -1.
        -14    1    6    6    0    0  0.33306403926E+02 -0.11107203790E+02  0.19315303655E+03  0.19631806347E+03  0.00000000000E+00 0.  1.
</event>
<event>
12    1  0.8421768E-002  0.1938007E+03  0.7818608E-02  0.1155841E+00
         21   -1    0    0  503  502  0.00000000000E+00  0.00000000000E+00  0.17900183400E+03  0.17900183400E+03  0.00000000000E+00 0.  1.
         21   -1    0    0  501  503 -0.00000000000E+00 -0.00000000000E+00 -0.21755293344E+03  0.21755293344E+03  0.00000000000E+00 0.  1.
          6    2    1    2  501    0 -0.60772448176E+02  0.67815398173E+02 -0.64573712095E+02  0.20101478950E+03  0.16716746877E+03 0.  0.
         24    2    3    3    0    0 -0.72584517549E+02  0.53622673191E+02 -0.10258271922E+03  0.15849734545E+03  0.80338601962E+02 0.  0.
         -6    2    1    2    0  502  0.60772448176E+02 -0.67815398173E+02  0.26022612649E+02  0.19553997794E+03  0.17107450984E+03 0.  0.
        -24    2    5    5    0    0  0.19107766173E+02 -0.82609404158E+02 -0.33747707397E+02  0.12104575335E+03  0.79521986049E+02 0.  0.
          5    1    3    3  501    0  0.11812069373E+02  0.14192724981E+02  0.38009007126E+02  0.42517444043E+02  0.47000000000E+01 0. -1.
        -13    1    4    4    0    0 -0.74289400674E+02  0.12048412191E+02 -0.45797624488E+02  0.88099385342E+02  0.00000000000E+00 0.  1.
         14    1    4    4    0    0  0.17048831245E+01  0.41574261000E+02 -0.56785094733E+02  0.70397960113E+02  0.00000000000E+00 0. -1.
         -5    1    5    5    0  502  0.41664682004E+02  0.14794005985E+02  0.59770320046E+02  0.74494224595E+02  0.47000000000E+01 0.  1.
         11    1    6    6    0    0 -0.28538677798E+02 -0.34637302699E+02 -0.28641401742E+02  0.53240292659E+02  0.00000000000E+00 0. -1.
        -12    1    6    6    0    0  0.47646443971E+02 -0.47972101459E+02 -0.51063056546E+01  0.67805460687E+02  0.00000000000E+00 0.  1.
</event>
<event>
12    1  0.8421768E-002  0.2081250E+03  0.7818608E-02  0.1143310E+00
         21   -1    0    0  501  502  0.00000000000E+00  0.00000000000E+00  0.15755346716E+03  0.15755346716E+03  0.00000000000E+00 0.  1.
         21   -1    0    0  502  503 -0.00000000000E+00 -0.00000000000E+00 -0.28592526541E+03  0.28592526541E+03  0.00000000000E+00 0.  1.
         -6    2    1    2    0  503  0.68604316403E+01  0.11497150677E+03 -0.11062171223E+03  0.23459821737E+03  0.17185356407E+03 0.  0.
        -24    2    3    3    0    0 -0.45963469855E+02  0.34235740745E+02 -0.99480778063E+02  0.13736222147E+03  0.75413713459E+02 0.  0.
          6    2    1    2  501    0 -0.68604316403E+01 -0.11497150677E+03 -0.17750086018E+02  0.20888051520E+03  0.17335077498E+03 0.  0.
         24    2    5    5    0    0 -0.24325749521E+02 -0.61960459927E+02  0.53534423062E+02  0.11822302984E+03  0.81730714233E+02 0.  0.
          5    1    5    5  501    0  0.17465317880E+02 -0.53011046839E+02 -0.71284509080E+02  0.90657485353E+02  0.47000000000E+01 0. -1.
        -13    1    6    6    0    0 -0.16662123906E+02 -0.55437241123E+02 -0.56748209519E+01  0.58164574005E+02  0.00000000000E+00 0.  1.
         14    1    6    6    0    0 -0.76636256144E+01 -0.65232188042E+01  0.59209244014E+02  0.60058455839E+02  0.00000000000E+00 0. -1.
         -5    1    3    3    0  503  0.52823901495E+02  0.80735766021E+02 -0.11140934166E+02  0.97235995898E+02  0.47000000000E+01 0.  1.
         13    1    4    4    0    0 -0.72648154875E+01  0.94987241805E+01 -0.89584082085E+02  0.90378709153E+02  0.00000000000E+00 0. -1.
        -14    1    4    4    0    0 -0.38698654367E+02  0.24737016565E+02 -0.98966959779E+01  0.46983512317E+02  0.00000000000E+00 0.  1.
</event>
<event>
12    1  0.8421768E-002  0.2234024E+03  0.7818608E-02  0.1131481E+00
         21   -1    0    0  503  502  0.00000000000E+00  0.00000000000E+00  0.60345911940E+03  0.60345911940E+03  0.00000000000E+00 0. -1.
         21   -1    0    0  501  503 -0.00000000000E+00 -0.00000000000E+00 -0.16084570051E+03  0.16084570051E+03  0.00000000000E+00 0. -1.
          6    2    1    2  501    0  0.85918590785E+02  0.10936292895E+03 -0.45583087839E+02  0.22742077985E+03  0.17406935037E+03 0.  0.
         24    2    3    3    0    0  0.18476519306E+02  0.11944243370E+03 -0.26402730410E+01  0.14669776724E+03  0.83098659064E+02 0.  0.
         -6    2    1    2    0  502 -0.85918590785E+02 -0.10936292895E+03  0.48819650673E+03  0.53688404007E+03  0.17483245931E+03 0.  0.
        -24    2    5    5    0    0 -0.84120958225E+02 -0.46386602284E+02  0.43887596545E+03  0.45673508503E+03  0.82260393616E+02 0.  0.
          5    1    3    3  501    0  0.67442071480E+02 -0.10079504752E+02 -0.42942814798E+02  0.80723012607E+02  0.47000000000E+01 0. -1.
        -11    1    4    4    0    0 -0.16633315633E+02  0.53033851915E+02  0.31827680333E+02  0.64048870976E+02  0.00000000000E+00 0.  1.
         12    1    4    4    0    0  0.35109834939E+02  0.66408581783E+02 -0.34467953374E+02  0.82648896265E+02  0.00000000000E+00 0. -1.
         -5    1    5    5    0  502 -0.17976325601E+01 -0.62976326662E+02  0.49320541274E+02  0.80148955041E+02  0.47000000000E+01 0.  1.
         13    1    6    6    0    0 -0.32906292946E+02 -0.26158419422E+02  0.56542366075E+02  0.70456555290E+02  0.00000000000E+00 0. -1.
        -14    1    6    6    0    0 -0.51214665279E+02 -0.20228182863E+02  0.38233359938E+03  0.38627852974E+03  0.00000000000E+00 0.  1.
</event>
<event>
12    1  0.8421768E-002  0.2323965E+03  0.7818608E-02  0.1126119E+00
         21   -1    0    0  501  502  0.00000000000E+00  0.00000000000E+00  0.56295879394E+03  0.56295879394E+03  0.00000000000E+00 0. -1.
         21   -1    0    0  502  503 -0.00000000000E+00 -0.00000000000E+00 -0.93273226636E+02  0.93273226636E+02  0.00000000000E+00 0.  1.
         -6    2    1    2    0  503 -0.80198018701E+02  0.12834485470E+03  0.23316390886E+03  0.32920137649E+03  0.17636330105E+03 0.  0.
        -24    2    3    3    0    0 -0.47428739612E+02  0.40922962127E+02  0.32853936314E+02  0.10815254014E+03  0.81813303540E+02 0.  0.
          6    2    1    2  501    0  0.80198018701E+02 -0.12834485470E+03  0.23652165844E+03  0.32703064408E+03  0.16763777416E+03 0.  0.
         24    2    5    5    0    0  0.90493785424E+02 -0.79726107753E+02  0.82450008657E+02  0.16507401830E+03  0.76850830393E+02 0.  0.
          5    1    5    5  501    0 -0.10295766723E+02 -0.48618746949E+02  0.15407164979E+03  0.16195662578E+03  0.47000000000E+01 0. -1.
        -13    1    6    6    0    0  0.54149402613E+02 -0.26353219854E+02  0.80421046525E+02  0.10046986973E+03  0.00000000000E+00 0.  1.
         14    1    6    6    0    0  0.36344382811E+02 -0.53372887899E+02  0.20289621319E+01  0.64604148566E+02  0.00000000000E+00 0. -1.
         -5    1    3    3    0  503 -0.32769279089E+02  0.87421892575E+02  0.20030997254E+03  0.22104883636E+03  0.47000000000E+01 0.  1.
         11    1    4    4    0    0  0.17271526397E+02  0.20798846951E+02  0.29929129346E+02  0.40331754760E+02  0.00000000000E+00 0. -1.
        -12    1    4    4    0    0 -0.64700266009E+02  0.20124115176E+02  0.29248069686E+01  0.67820785376E+02  0.00000000000E+00 0.  1.
</event>
<event>
12    1  0.8421768E-002  0.1903089E+03  0.7818608E-02  0.1158663E+00
         21   -1    0    0  501  502  0.00000000000E+00  0.00000000000E+00  0.19396136644E+03  0.19396136644E+03  0.00000000000E+00 0. -1.
         21   -1    0    0  502  503 -0.00000000000E+00 -0.00000000000E+00 -0.18767796678E+03  0.18767796678E+03  0.00000000000E+00 0. -1.
         -6    2    1    2    0  503 -0.75094197383E+02  0.14606590030E+02 -0.21068584905E+02  0.19147153562E+03  0.17425548121E+03 0.  0.
        -24    2    3    3    0    0 -0.24493226952E+02  0.36430638625E+02 -0.71850976276E+02  0.11638699275E+03  0.80350853708E+02 0.  0.
          6    2    1    2  501    0  0.75094197383E+02 -0.14606590030E+02  0.27351984563E+02  0.19016779760E+03  0.17193943477E+03 0.  0.
         24    2    5    5    0    0  0.13546013692E+02  0.13824835164E+02 -0.42166037923E+02  0.92949639289E+02  0.80542163713E+02 0.  0.
          5    1    5    5  501    0  0.61548183690E+02 -0.28431425195E+02  0.69518022486E+02  0.97218158307E+02  0.47000000000E+01 0. -1.
        -11    1    6    6    0    0 -0.95224182581E+01  0.40410778227E+02 -0.50935170844E+01  0.41828834107E+02  0.00000000000E+00 0.  1.
         12    1    6    6    0    0  0.23068431950E+02 -0.26585943063E+02 -0.37072520838E+02  0.51120805183E+02  0.00000000000E+00 0. -1.
         -5    1    3    3    0  503 -0.50600970431E+02 -0.21824048594E+02  0.50782391371E+02  0.75084542876E+02  0.47000000000E+01 0.  1.
         11    1    4    4    0    0 -0.33698483367E+02 -0.14834668299E+02 -0.43830189384E+02  0.57242821963E+02  0.00000000000E+00 0. -1.
        -12    1    4    4    0    0  0.92052564154E+01  0.51265306924E+02 -0.28020786892E+02  0.59144170784E+02  0.00000000000E+00 0.  1.
</event>
<event>
12    1  0.8421768E-002  0.2030940E+03  0.7818608E-02  0.1147942E+00
         21   -1    0    0  501  502  0.00000000000E+00  0.00000000000E+00  0.67153711802E+03  0.67153711802E+03  0.00000000000E+00 0. -1.
         21   -1    0    0  502  503 -0.00000000000E+00 -0.00000000000E+00 -0.61192442849E+02  0.61192442849E+02  0.00000000000E+00 0.  1.
         -6    2    1    2    0  503 -0.68855869265E+02  0.55941163370E+02  0.26344114929E+03  0.33263857775E+03  0.18269274691E+03 0.  0.
        -24    2    3    3    0    0  0.13741542514E+02 -0.64736685374E+01  0.15985138924E+03  0.18610915387E+03  0.94092572167E+02 0.  0.
          6    2    1    2  501    0  0.68855869265E+02 -0.55941163370E+02  0.34690352588E+03  0.40009098312E+03  0.17849424085E+03 0.  0.
         24    2    5    5    0    0  0.10099651642E+03 -0.46321901150E+02  0.16391888965E+03  0.21399687117E+03  0.81112536840E+02 0.  0.
          5    1    5    5  501    0 -0.32140647155E+02 -0.96192622196E+01  0.18298463623E+03  0.18609411195E+03  0.47000000000E+01 0. -1.
        -11    1    6    6    0    0  0.67706818625E+02 -0.71885901504E+01  0.14326907615E+03  0.15862508407E+03  0.00000000000E+00 0.  1.
         12    1    6    6    0    0  0.33289697795E+02 -0.39133311000E+02  0.20649813503E+02  0.55371787101E+02  0.00000000000E+00 0. -1.
         -5    1    3    3    0  503 -0.82597411779E+02  0.62414831907E+02  0.10358976005E+03  0.14652942387E+03  0.47000000000E+01 0.  1.
         11    1    4    4    0    0 -0.39001877115E+02  0.65742225988E+01  0.83554743968E+02  0.92443291054E+02  0.00000000000E+00 0. -1.
        -12    1    4    4    0    0  0.52743419629E+02 -0.13047891136E+02  0.76296645276E+02  0.93665862819E+02  0.00000000000E+00 0.  1.
</event>
<event>
12    1  0.8421768E-002  0.1811709E+03  0.7818608E-02  0.1167666E+00
         21   -1    0    0  501  502  0.00000000000E+00  0.00000000000E+00  0.32164604226E+02  0.32164604226E+02  0.00000000000E+00 0. -1.
         21   -1    0    0  502  503 -0.00000000000E+00 -0.00000000000E+00 -0.10149286940E+04  0.10149286940E+04  0.00000000000E+00 0. -1.
         -6    2    1    2    0  503 -0.14547220271E+02  0.50023879810E+02 -0.55426074220E+03  0.58186430311E+03  0.16925450280E+03 0.  0.
        -24    2    3    3    0    0 -0.64810740774E+02  0.65195429519E+02 -0.33119788593E+03  0.35265757271E+03  0.78895169642E+02 0.  0.
          6    2    1    2  501    0  0.14547220271E+02 -0.50023879810E+02 -0.42850334756E+03  0.46522899510E+03  0.17351913107E+03 0.  0.
         24    2    5    5    0    0  0.94721400073E+01 -0.98941123087E+02 -0.27059516597E+03  0.29977284700E+03  0.82237149047E+02 0.  0.
          5    1    5    5  501    0  0.50750802635E+01  0.48917243276E+02 -0.15790818159E+03  0.16545614810E+03  0.47000000000E+01 0. -1.
        -13    1    6    6    0    0  0.84749730115E+01 -0.17888464794E+02 -0.28157735065E+01  0.19993772047E+02  0.00000000000E+00 0.  1.
         14    1    6    6    0    0  0.99716699576E+00 -0.81052658293E+02 -0.26777939246E+03  0.27977907496E+03  0.00000000000E+00 0. -1.
         -5    1    3    3    0  503  0.50263520503E+02 -0.15171549708E+02 -0.22306285627E+03  0.22920673040E+03  0.47000000000E+01 0.  1.
         13    1    4    4    0    0  0.18188601123E+02  0.10721522324E+02 -0.44447564932E+02  0.49207339698E+02  0.00000000000E+00 0. -1.
        -14    1    4    4    0    0 -0.82999341897E+02  0.54473907195E+02 -0.28675032100E+03  0.30345023301E+03  0.00000000000E+00 0.  1.
</event>
<event>
12    1  0.8421768E-002  0.1964631E+03  0.7818608E-02  0.1152802E+00
         21   -1    0    0  503  502  0.00000000000E+00  0.00000000000E+00  0.10294225943E+04  0.10294225943E+04  0.00000000000E+00 0.  1.
         21   -1    0    0  501  503 -0.00000000000E+00 -0.00000000000E+00 -0.38552427598E+02  0.38552427598E+02  0.00000000000E+00 0. -1.
          6    2    1    2  501    0 -0.71281487783E+02 -0.61597575956E+02  0.40562370165E+03  0.45069762186E+03  0.17240199286E+03 0.  0.
         24    2    3    3    0    0 -0.10839356868E+03 -0.32671383084E+02  0.22875419447E+03  0.26761582660E+03  0.80455976531E+02 0.  0.
         -6    2    1    2    0  502  0.71281487783E+02  0.61597575956E+02  0.58524646507E+03  0.61727740006E+03  0.17217041524E+03 0.  0.
        -24    2    5    5    0    0 -0.19894339863E+02  0.49966536930E+02  0.38497100657E+03  0.39686718729E+03  0.80052788061E+02 0.  0.
          5    1    3    3  501    0  0.37112080892E+02 -0.28926192871E+02  0.17686950718E+03  0.18308179525E+03  0.47000000000E+01 0. -1.
        -13    1    4    4    0    0 -0.35697749929E+02 -0.47647929546E+02  0.66907497460E+02  0.89561530560E+02  0.00000000000E+00 0.  1.
         14    1    4    4    0    0 -0.72695818746E+02  0.14976546462E+02  0.16184669701E+03  0.17805429604E+03  0.00000000000E+00 0. -1.
         -5    1    5    5    0  502  0.91175827647E+02  0.11631039026E+02  0.20027545850E+03  0.22041021277E+03  0.47000000000E+01 0.  1.
         11    1    6    6    0    0 -0.19995438812E+02  0.29645550697E+02  0.51047655280E+02  0.62326072867E+02  0.00000000000E+00 0. -1.
        -12    1    6    6    0    0  0.10109894893E+00  0.20320986233E+02  0.33392335129E+03  0.33454111442E+03  0.00000000000E+00 0.  1.
</event>
<event>
12    1  0.8421768E-002  0.2181000E+03  0.7818608E-02  0.1135357E+00
         21   -1    0    0  503  502  0.00000000000E+00  0.00000000000E+00  0.79902403871E+02  0.79902403871E+02  0.00000000000E+00 0.  1.
         21   -1    0    0  501  503 -0.00000000000E+00 -0.00000000000E+00 -0.70539702044E+03  0.70539702044E+03  0.00000000000E+00 0.  1.
          6    2    1    2  501    0 -0.12695200377E+03 -0.42588510243E+02 -0.15729512566E+03  0.26890397771E+03  0.17215400142E+03 0.  0.
         24    2    3    3    0    0 -0.83917811081E+02  0.27477931040E+02 -0.39414155459E+02  0.12510112284E+03  0.79369890849E+02 0.  0.
         -6    2    1    2    0  502  0.12695200377E+03  0.42588510243E+02 -0.46819949091E+03  0.51639544661E+03  0.17182229634E+03 0.  0.
        -24    2    5    5    0    0  0.11485631187E+03 -0.30924043077E+02 -0.31598877239E+03  0.34686493581E+03  0.79486543511E+02 0.  0.
          5    1    3    3  501    0 -0.43034192685E+02 -0.70066441283E+02 -0.11788097020E+03  0.14380285487E+03  0.47000000000E+01 0. -1.
        -11    1    4    4    0    0  0.84216590897E+01  0.10311619000E+01  0.13117594055E+02  0.15622384917E+02  0.00000000000E+00 0.  1.
         12    1    4    4    0    0 -0.92339470171E+02  0.26446769140E+02 -0.52531749514E+02  0.10947873792E+03  0.00000000000E+00 0. -1.
         -5    1    5    5    0  502  0.12095691894E+02  0.73512553320E+02 -0.15221071852E+03  0.16953051080E+03  0.47000000000E+01 0.  1.
         11    1    6    6    0    0  0.99452270946E+02 -0.48055444036E+02 -0.29744358846E+03  0.31728972283E+03  0.00000000000E+00 0. -1.
        -12    1    6    6    0    0  0.15404040927E+02  0.17131400959E+02 -0.18545183931E+02  0.29575212978E+02  0.00000000000E+00 0.  1.
</event>
<event>
12    1  0.8421768E-002  0.1850522E+03  0.7818608E-02  0.1163040E+00
         21   -1    0    0  501  502  0.00000000000E+00  0.00000000000E+00  0.97300577346E+03  0.97300577346E+03  0.00000000000E+00 0. -1.
         21   -1    0    0  502  503 -0.00000000000E+00 -0.00000000000E+00 -0.33521249032E+03  0.33521249032E+03  0.00000000000E+00 0. -1.
         -6    2    1    2    0  503  0.14502318268E+02  0.66050922932E+02 -0.29996982200E+03  0.35237101556E+03  0.17207671789E+03 0.  0.
        -24    2    3    3    0    0  0.64207882852E+02  0.83948179339E+02 -0.23403982868E+03  0.26775536123E+03  0.75817827894E+02 0.  0.
          6    2    1    2  501    0 -0.14502318268E+02 -0.66050922932E+02  0.93776310514E+03  0.95584724823E+03  0.17225353101E+03 0.  0.
         24    2    5    5    0    0  0.31674980004E+02  0.13351395655E+02  0.30764830327E+03  0.31905542620E+03  0.77248445690E+02 0.  0.
          5    1    5    5  501    0 -0.46177298272E+02 -0.79402318587E+02  0.63011480187E+03  0.63679182203E+03  0.47000000000E+01 0. -1.
        -13    1    6    6    0    0 -0.19833101722E+02  0.33411593150E+01  0.17887273365E+03  0.17999991698E+03  0.00000000000E+00 0.  1.
         14    1    6    6    0    0  0.51508081726E+02  0.10010236340E+02  0.12877556962E+03  0.13905550922E+03  0.00000000000E+00 0. -1.
         -5    1    3    3    0  503 -0.49705564584E+02 -0.17897256407E+02 -0.65929993318E+02  0.84615654323E+02  0.47000000000E+01 0.  1.
         11    1    4    4    0    0  0.58319318410E+02  0.32450676492E+02 -0.18391553462E+03  0.19565048729E+03  0.00000000000E+00 0. -1.
        -12    1    4    4    0    0  0.58885644421E+01  0.51497502847E+02 -0.50124294060E+02  0.72104873939E+02  0.00000000000E+00 0.  1.
</event>
<event>
12    1  0.8421768E-002  0.1918140E+03  0.7818608E-02  0.1157111E+00
         21   -1    0    0  503  502  0.00000000000E+00  0.00000000000E+00  0.28186338290E+03  0.28186338290E+03  0.00000000000E+00 0.  1.
         21   -1    0    0  501  503 -0.00000000000E+00 -0.00000000000E+00 -0.12986212011E+03  0.12986212011E+03  0.00000000000E+00 0.  1.
          6    2    1    2  501    0  0.77323742968E+02 -0.28377050319E+02  0.68893732515E+02  0.20381109176E+03  0.17322931777E+03 0.  0.
         24    2    3    3    0    0  0.79678857684E+02 -0.51679477067E+02 -0.70767112246E+01  0.12417348771E+03  0.79683665175E+02 0.  0.
         -6    2    1    2    0  502 -0.77323742968E+02  0.28377050319E+02  0.83107530283E+02  0.20791441125E+03  0.17186425633E+03 0.  0.
        -24    2    5    5    0    0 -0.62197058642E+00 -0.24823655583E+02  0.79031107508E+02  0.11436130217E+03  0.78841554761E+02 0.  0.
          5    1    3    3  501    0 -0.23551147155E+01  0.23302426748E+02  0.75970443740E+02  0.79637604055E+02  0.47000000000E+01 0. -1.
        -11    1    4    4    0    0  0.81565114201E+02 -0.16240636148E+02 -0.21444288000E+02  0.85886457635E+02  0.00000000000E+00 0.  1.
         12    1    4    4    0    0 -0.18862565176E+01 -0.35438840919E+02  0.14367576776E+02  0.38287030072E+02  0.00000000000E+00 0. -1.
         -5    1    5    5    0  502 -0.76701772382E+02  0.53200705902E+02  0.40764227757E+01  0.93553109075E+02  0.47000000000E+01 0.  1.
         13    1    6    6    0    0 -0.15279350182E+00 -0.52307107402E+02  0.65204112149E+02  0.83592063449E+02  0.00000000000E+00 0. -1.
        -14    1    6    6    0    0 -0.46917708460E+00  0.27483451819E+02  0.13826995359E+02  0.30769238724E+02  0.00000000000E+00 0.  1.
</event>
<event>
12    1  0.8421768E-002  0.1932441E+03  0.7818608E-02  0.1155980E+00
         21   -1    0    0  501  502  0.00000000000E+00  0.00000000000E+00  0.12726337756E+03  0.12726337756E+03  0.00000000000E+00 0. -1.
         21   -1    0    0  502  503 -0.00000000000E+00 -0.00000000000E+00 -0.36225681550E+03  0.36225681550E+03  0.00000000000E+00 0. -1.
         -6    2    1    2    0  503  0.86655013966E+02  0.14433115408E+02 -0.22679761269E+03  0.29796045513E+03  0.17212167045E+03 0.  0.
        -24    2    3    3    0    0  0.20878053151E+02 -0.54987822000E+02 -0.10176799857E+03  0.14047912440E+03  0.76929221930E+02 0.  0.
          6    2    1    2  501    0 -0.86655013966E+02 -0.14433115408E+02 -0.81958252441E+01  0.19155973793E+03  0.17003104239E+03 0.  0.
         24    2    5    5    0    0 -0.12240446175E+03 -0.33873480900E+02 -0.92969051547E+01  0.15058104584E+03  0.80361395934E+02 0.  0.
          5    1    5    5  501    0  0.35749447789E+02  0.19440365492E+02  0.11010799106E+01  0.40978692081E+02  0.47000000000E+01 0. -1.
        -11    1    6    6    0    0  0.49795602187E+01  0.41329304300E+01  0.14183741164E+02  0.15590242055E+02  0.00000000000E+00 0.  1.
         12    1    6    6    0    0 -0.12738402197E+03 -0.38006411330E+02 -0.23480646319E+02  0.13499080379E+03  0.00000000000E+00 0. -1.
         -5    1    3    3    0  503  0.65776960815E+02  0.69420937408E+02 -0.12502961411E+03  0.15748133074E+03  0.47000000000E+01 0.  1.
         13    1    4    4    0    0  0.45904250289E+02 -0.37079179504E+02 -0.39463473115E+02  0.70988953067E+02  0.00000000000E+00 0. -1.
        -14    1    4    4    0    0 -0.25026197138E+02 -0.17908642496E+02 -0.62304525458E+02  0.69490171332E+02  0.00000000000E+00 0.  1.
</event>
<event>
12    1  0.8421768E-002  0.2354376E+03  0.7818608E-02  0.1123104E+00
         21   -1    0    0  503  502  0.00000000000E+00  0.00000000000E+00  0.78922256463E+02  0.78922256463E+02  0.00000000000E+00 0.  1.
         21   -1    0    0  501  503 -0.00000000000E+00 -0.00000000000E+00 -0.77628028678E+03  0.77628028678E+03  0.00000000000E+00 0. -1.
          6    2    1    2  501    0  0.15331626009E+03 -0.51109748864E+02 -0.48331329025E+03  0.53701076567E+03  0.16932437470E+03 0.  0.
         24    2    3    3    0    0  0.11571937150E+03 -0.37150774598E+02 -0.18613978845E+03  0.23710651567E+03  0.82464088752E+02 0.  0.
         -6    2    1    2    0  502 -0.15331626009E+03  0.51109748864E+02 -0.21404474006E+03  0.31819177758E+03  0.17120973842E+03 0.  0.
        -24    2    5    5    0    0 -0.86303000544E+02  0.87092780928E+01 -0.35730403792E+02  0.12298248119E+03  0.79523389615E+02 0.  0.
          5    1    3    3  501    0  0.37596888595E+02 -0.13958974266E+02 -0.29717350180E+03  0.29990425000E+03  0.47000000000E+01 0. -1.
        -11    1    4    4    0    0  0.58058069681E+01 -0.31840448278E+02 -0.20723523057E+02  0.38431574896E+02  0.00000000000E+00 0.  1.
         12    1    4    4    0    0  0.10991356453E+03 -0.53103263202E+01 -0.16541626539E+03  0.19867494077E+03  0.00000000000E+00 0. -1.
         -5    1    5    5    0  502 -0.67013259548E+02  0.42400470771E+02 -0.17831433627E+03  0.19520929639E+03  0.47000000000E+01 0.  1.
         13    1    6    6    0    0 -0.47649089905E+02 -0.29526611458E+02 -0.39355452460E+02  0.68491665123E+02  0.00000000000E+00 0. -1.
        -14    1    6    6    0    0 -0.38653910639E+02  0.38235889551E+02  0.36250486674E+01  0.54490816064E+02  0.00000000000E+00 0.  1.
</event>
<event>
12    1  0.8421768E-002  0.2296361E+03  0.7818608E-02  0.1127222E+00
         21   -1    0    0  501  502  0.00000000000E+00  0.00000000000E+00  0.45168150793E+02  0.45168150793E+02  0.00000000000E+00 0. -1.
         21   -1    0    0  502  503 -0.00000000000E+00 -0.00000000000E+00 -0.12485872532E+04  0.12485872532E+04  0.00000000000E+00 0.  1.
         -6    2    1    2    0  503  0.89771537400E+02  0.12095902401E+03 -0.42537315392E+03  0.48252903114E+03  0.17088572614E+03 0.  0.
        -24    2    3    3    0    0  0.84802071484E+02  0.16602608917E+02 -0.23611307039E+03  0.26629668809E+03  0.87735432561E+02 0.  0.
          6    2    1    2  501    0 -0.89771537400E+02 -0.12095902401E+03 -0.77804594853E+03  0.81122637290E+03  0.17332834636E+03 0.  0.
         24    2    5    5    0    0 -0.73873979813E+02 -0.41823313781E+01 -0.43771709262E+03  0.45103843800E+03  0.79778208795E+02 0.  0.
          5    1    5    5  501    0 -0.15897557587E+02 -0.11677669263E+03 -0.34032885591E+03  0.36018793490E+03  0.47000000000E+01 0. -1.
        -13    1    6    6    0    0 -0.59618483000E+02 -0.20350977024E+02 -0.41487807389E+03  0.41963358061E+03  0.00000000000E+00 0.  1.
         14    1    6    6    0    0 -0.14255496813E+02  0.16168645646E+02 -0.22839018722E+02  0.31404857389E+02  0.00000000000E+00 0. -1.
         -5    1    3    3    0  503  0.49694659157E+01  0.10435641509E+03 -0.18926008353E+03  0.21623234305E+03  0.47000000000E+01 0.  1.
         11    1    4    4    0    0  0.33164859048E+02  0.51104235342E+02 -0.11107283865E+03  0.12668356733E+03  0.00000000000E+00 0. -1.
        -12    1    4    4    0    0  0.51637212436E+02 -0.34501626426E+02 -0.12504023175E+03  0.13961312076E+03  0.00000000000E+00 0.  1.
</event>
<event>
12    1  0.8421768E-002  0.3257849E+03  0.7818608E-02  0.1073290E+00
         21   -1    0    0  503  502  0.00000000000E+00  0.00000000000E+00  0.12711314576E+04  0.12711314576E+04  0.00000000000E+00 0.  1.
         21   -1    0    0  501  503 -0.00000000000E+00 -0.00000000000E+00 -0.60973279966E+03  0.60973279966E+03  0.00000000000E+00 0.  1.
          6    2    1    2  501    0 -0.23542134013E+03  0.13968396640E+03 -0.54331599953E+03  0.63350459219E+03  0.17663797756E+03 0.  0.
         24    2    3    3    0    0 -0.47228176956E+02  0.46603002104E+02 -0.96992876560E+02  0.14024284354E+03  0.76538203249E+02 0.  0.
         -6    2    1    2    0  502  0.23542134013E+03 -0.13968396640E+03  0.12047146575E+04  0.12473596651E+04  0.17214502683E+03 0.  0.
        -24    2    5    5    0    0  0.94821155689E+02 -0.85109085870E+02  0.36734521844E+03  0.39650333356E+03  0.77703127023E+02 0.  0.
          5    1    3    3  501    0 -0.18819316317E+03  0.93080964296E+02 -0.44632312297E+03  0.49326174865E+03  0.47000000000E+01 0. -1.
        -13    1    4    4    0    0 -0.15386290937E+02  0.34500897389E+02 -0.99157823925E+02  0.10610996143E+03  0.00000000000E+00 0.  1.
         14    1    4    4    0    0 -0.31841886019E+02  0.12102104715E+02  0.21649473651E+01  0.34132882107E+02  0.00000000000E+00 0. -1.
         -5    1    5    5    0  502  0.14060018444E+03 -0.54574880530E+02  0.83736943907E+03  0.85085633154E+03  0.47000000000E+01 0.  1.
         13    1    6    6    0    0  0.80247865202E+01 -0.19897540271E+02  0.16929696682E+03  0.17065102485E+03  0.00000000000E+00 0. -1.
        -14    1    6    6    0    0  0.86796369169E+02 -0.65211545599E+02  0.19804825162E+03  0.22585230871E+03  0.00000000000E+00 0.  1.
</event>
<event>
12    1  0.8421768E-002  0.2059472E+03  0.7818608E-02  0.1145015E+00
         21   -1    0    0  503  502  0.00000000000E+00  0.00000000000E+00  0.30990683690E+03  0.30990683690E+03  0.00000000000E+00 0.  1.
         21   -1    0    0  501  503 -0.00000000000E+00 -0.00000000000E+00 -0.23136146380E+03  0.23136146380E+03  0.00000000000E+00 0.  1.
          6    2    1    2  501    0 -0.76333577242E+02 -0.82179325320E+02 -0.13422794036E+03  0.24582792959E+03  0.17272514139E+03 0.  0.
         24    2    3    3    0    0 -0.82812495166E+02  0.31340288870E+01 -0.54671139165E+02  0.12890180163E+03  0.82213195490E+02 0.  0.
         -6    2    1    2    0  502  0.76333577242E+02  0.82179325320E+02  0.21277331346E+03  0.29544037111E+03  0.17155836743E+03 0.  0.
        -24    2    5    5    0    0  0.22236360622E+02  0.55618468876E+02  0.21247552095E+03  0.23499066787E+03  0.80541276207E+02 0.  0.
          5    1    3    3  501    0  0.64789179241E+01 -0.85313354207E+02 -0.79556801195E+02  0.11692612796E+03  0.47000000000E+01 0. -1.
        -13    1    4    4    0    0 -0.84953652175E+02 -0.17374332204E+02 -0.20677824430E+02  0.89143495896E+02  0.00000000000E+00 0.  1.
         14    1    4    4    0    0  0.21411570096E+01  0.20508361091E+02 -0.33993314736E+02  0.39758305732E+02  0.00000000000E+00 0. -1.
         -5    1    5    5    0  502  0.54097216620E+02  0.26560856443E+02  0.29779251545E+00  0.60449703237E+02  0.47000000000E+01 0.  1.
         13    1    6    6    0    0 -0.21028341172E+02  0.44495500432E+02  0.69222462749E+02  0.84934033462E+02  0.00000000000E+00 0. -1.
        -14    1    6    6    0    0  0.43264701794E+02  0.11122968444E+02  0.14325305820E+03  0.15005663441E+03  0.00000000000E+00 0.  1.
</event>
<event>
12    1  0.8421768E-002  0.1775852E+03  0.7818608E-02  0.1170312E+00
         21   -1    0    0  503  502  0.00000000000E+00  0.00000000000E+00  0.28894413124E+02  0.28894413124E+02  0.00000000000E+00 0.  1.
         21   -1    0    0  501  503 -0.00000000000E+00 -0.00000000000E+00 -0.26993995820E+04  0.26993995820E+04  0.00000000000E+00 0.  1.
          6    2    1    2  501    0  0.35866883085E+02 -0.17897602986E+02 -0.23902641139E+04  0.23968519021E+04  0.17300216482E+03 0.  0.
         24    2    3    3    0    0 -0.24707654525E+02 -0.12002460534E+02 -0.20113987575E+04  0.20131005822E+04  0.78067053785E+02 0.  0.
         -6    2    1    2    0  502 -0.35866883085E+02  0.17897602986E+02 -0.28024105499E+03  0.33144209301E+03  0.17237184986E+03 0.  0.
        -24    2    5    5    0    0 -0.55747083976E+01 -0.13506344652E+02 -0.27550057539E+03  0.28730156830E+03  0.80175590981E+02 0.  0.
          5    1    3    3  501    0  0.60574537609E+02 -0.58951424520E+01 -0.37886535635E+03  0.38375131994E+03  0.47000000000E+01 0. -1.
        -13    1    4    4    0    0  0.55385031467E+01  0.23500906160E+02 -0.27002017228E+03  0.27109751206E+03  0.00000000000E+00 0.  1.
         14    1    4    4    0    0 -0.30246157671E+02 -0.35503366694E+02 -0.17413785853E+04  0.17420030701E+04  0.00000000000E+00 0. -1.
         -5    1    5    5    0  502 -0.30292174687E+02  0.31403947637E+02 -0.47404795958E+01  0.44140524705E+02  0.47000000000E+01 0.  1.
         13    1    6    6    0    0 -0.85123930877E+00 -0.38205956878E+02 -0.65752337731E+02  0.76051230539E+02  0.00000000000E+00 0. -1.
        -14    1    6    6    0    0 -0.47234690889E+01  0.24699612226E+02 -0.20974823766E+03  0.21125033776E+03  0.00000000000E+00 0.  1.
</event>
<event>
12    1  0.8421768E-002  0.2612913E+03  0.7818608E-02  0.1106390E+00
         21   -1    0    0  503  502  0.00000000000E+00  0.00000000000E+00  0.46149524666E+03  0.46149524666E+03  0.00000000000E+00 0.  1.
         21   -1    0    0  501  503 -0.00000000000E+00 -0.00000000000E+00 -0.19061105577E+03  0.19061105577E+03  0.00000000000E+00 0. -1.
          6    2    1    2  501    0 -0.49377198738E+02  0.19055927016E+03 -0.18943072425E+02  0.26197711113E+03  0.17182032349E+03 0.  0.
         24    2    3    3    0    0 -0.81048714512E+02  0.73455712371E+02  0.13630666149E+02  0.13628118199E+03  0.80138191271E+02 0.  0.
         -6    2    1    2    0  502  0.49377198738E+02 -0.19055927016E+03  0.28982726332E+03  0.39012919130E+03  0.17161002344E+03 0.  0.
        -24    2    5    5    0    0  0.71028826491E+02 -0.12417273015E+03  0.27318998455E+03  0.31819272821E+03  0.78421193043E+02 0.  0.
          5    1    3    3  501    0  0.31671515774E+02  0.11710355778E+03 -0.32573738574E+02  0.12569592914E+03  0.47000000000E+01 0. -1.
        -13    1    4    4    0    0 -0.27542448826E+02 -0.48193187080E+01  0.28936711446E+02  0.40238608195E+02  0.00000000000E+00 0.  1.
         14    1    4    4    0    0 -0.53506265686E+02  0.78275031079E+02 -0.15306045297E+02  0.96042573792E+02  0.00000000000E+00 0. -1.
         -5    1    5    5    0  502 -0.21651627753E+02 -0.66386540003E+02  0.16637278766E+02  0.71936463095E+02  0.47000000000E+01 0.  1.
         11    1    6    6    0    0  0.45799806288E+02 -0.60506781158E+02  0.21609331016E+03  0.22903059079E+03  0.00000000000E+00 0. -1.
        -12    1    6    6    0    0  0.25229020203E+02 -0.63665948995E+02  0.57096674387E+02  0.89162137412E+02  0.00000000000E+00 0.  1.
</event>
<event>
12    1  0.8421768E-002  0.1953839E+03  0.7818608E-02  0.1154083E+00
         21   -1    0    0  503  502  0.00000000000E+00  0.00000000000E+00  0.49180255675E+03  0.49180255675E+03  0.00000000000E+00 0. -1.
         21   -1    0    0  501  503 -0.00000000000E+00 -0.00000000000E+00 -0.12845956478E+03  0.12845956478E+03  0.00000000000E+00 0. -1.
          6    2    1    2  501    0 -0.83524992515E+02  0.27682138877E+02 -0.15274794603E+02  0.19420308417E+03  0.17244939364E+03 0.  0.
         24    2    3    3    0    0 -0.83818414296E+02  0.43704585141E+02  0.38211460108E+02  0.13817028732E+03  0.93248567154E+02 0.  0.
         -6    2    1    2    0  502  0.83524992515E+02 -0.27682138877E+02  0.37861778657E+03  0.42605903735E+03  0.17444812929E+03 0.  0.
        -24    2    5    5    0    0  0.55928478753E+02 -0.84544513280E+02  0.23112114507E+03  0.26552166959E+03  0.82516688376E+02 0.  0.
          5    1    3    3  501    0  0.29342178088E+00 -0.16022446264E+02 -0.53486254711E+02  0.56032796857E+02  0.47000000000E+01 0. -1.
        -11    1    4    4    0    0  0.10027922540E+02  0.28298546971E+02 -0.98710039339E+01  0.31603855932E+02  0.00000000000E+00 0.  1.
         12    1    4    4    0    0 -0.93846336836E+02  0.15406038170E+02  0.48082464042E+02  0.10656643138E+03  0.00000000000E+00 0. -1.
         -5    1    5    5    0  502  0.27596513763E+02  0.56862374403E+02  0.14749664150E+03  0.16053736777E+03  0.47000000000E+01 0.  1.
         11    1    6    6    0    0  0.30279029486E+02  0.10655180335E+02  0.58517203995E+02  0.66742907173E+02  0.00000000000E+00 0. -1.
        -12    1    6    6    0    0  0.25649449266E+02 -0.95199693615E+02  0.17260394108E+03  0.19877876242E+03  0.00000000000E+00 0.  1.
</event>
<event>
12    1  0.8421768E-002  0.2025877E+03  0.7818608E-02  0.1148704E+00
         21   -1    0    0  501  502  0.00000000000E+00  0.00000000000E+00  0.54980915074E+02  0.54980915074E+02  0.00000000000E+00 0. -1.
         21   -1    0    0  502  503 -0.00000000000E+00 -0.00000000000E+00 -0.72853289658E+03  0.72853289658E+03  0.00000000000E+00 0.  1.
         -6    2    1    2    0  503  0.95774057586E+02  0.30557417790E+02 -0.32226948193E+03  0.38065652070E+03  0.17588445604E+03 0.  0.
        -24    2    3    3    0    0  0.30729480568E+02  0.18985057520E+02 -0.46084157643E+02  0.96640429827E+02  0.76882310752E+02 0.  0.
          6    2    1    2  501    0 -0.95774057586E+02 -0.30557417790E+02 -0.35128249958E+03  0.40285729096E+03  0.16967078853E+03 0.  0.
         24    2    5    5    0    0 -0.50049695714E+01 -0.17649303046E+02 -0.26258996374E+03  0.27520893539E+03  0.80311402956E+02 0.  0.
          5    1    5    5  501    0 -0.90769088014E+02 -0.12908114745E+02 -0.88692535840E+02  0.12764835557E+03  0.47000000000E+01 0. -1.
        -11    1    6    6    0    0 -0.19964812832E+02 -0.39491040747E+02 -0.86719735337E+02  0.97357324057E+02  0.00000000000E+00 0.  1.
         12    1    6    6    0    0  0.14959843260E+02  0.21841737701E+02 -0.17587022840E+03  0.17785161133E+03  0.00000000000E+00 0. -1.
         -5    1    3    3    0  503  0.65044577018E+02  0.11572360270E+02 -0.27618532429E+03  0.28401609087E+03  0.47000000000E+01 0.  1.
         11    1    4    4    0    0  0.24901193865E+02  0.43468953725E+02 -0.76176896779E+01  0.50671970456E+02  0.00000000000E+00 0. -1.
        -12    1    4    4    0    0  0.58282867029E+01 -0.24483896205E+02 -0.38466467965E+02  0.45968459371E+02  0.00000000000E+00 0.  1.
</event>
<event>
12    1  0.8421768E-002  0.1849324E+03  0.7818608E-02  0.1163406E+00
         21   -1    0    0  503  502  0.00000000000E+00  0.00000000000E+00  0.22618422015E+03  0.22618422015E+03  0.00000000000E+00 0. -1.
         21   -1    0    0  501  503 -0.00000000000E+00 -0.00000000000E+00 -0.17725978715E+03  0.17725978715E+03  0.00000000000E+00 0. -1.
          6    2    1    2  501    0 -0.35053362947E+02 -0.55492525465E+02 -0.54305554484E+02  0.19274098065E+03  0.17289254968E+03 0.  0.
         24    2    3    3    0    0 -0.90136278431E+02 -0.40785304780E+02 -0.40923945729E+02  0.13399076897E+03  0.80565296877E+02 0.  0.
         -6    2    1    2    0  502  0.35053362947E+02  0.55492525465E+02  0.10322998749E+03  0.21070302666E+03  0.17155517040E+03 0.  0.
        -24    2    5    5    0    0 -0.29919579117E+02  0.24288939201E+02  0.10564518101E+03  0.13843221543E+03  0.80730664648E+02 0.  0.
          5    1    3    3  501    0  0.55082915484E+02 -0.14707220685E+02 -0.13381608755E+02  0.58750211671E+02  0.47000000000E+01 0. -1.
        -11    1    4    4    0    0  0.98548556616E+00  0.10167676542E+02  0.12962600823E+02  0.16503994915E+02  0.00000000000E+00 0.  1.
         12    1    4    4    0    0 -0.91121763997E+02 -0.50952981322E+02 -0.53886546552E+02  0.11748677406E+03  0.00000000000E+00 0. -1.
         -5    1    5    5    0  502  0.64972942064E+02  0.31203586264E+02 -0.24151935283E+01  0.72270811231E+02  0.47000000000E+01 0.  1.
         11    1    6    6    0    0 -0.25650206855E+02  0.50141500145E+02  0.44071294253E+02  0.71514908415E+02  0.00000000000E+00 0. -1.
        -12    1    6    6    0    0 -0.42693722621E+01 -0.25852560944E+02  0.61573886761E+02  0.66917307012E+02  0.00000000000E+00 0.  1.
</event>
<event>
12    1  0.8421768E-002  0.1912931E+03  0.7818608E-02  0.1157517E+00
         21   -1    0    0  503  502  0.00000000000E+00  0.00000000000E+00  0.78049895231E+03  0.78049895231E+03  0.00000000000E+00 0. -1.
         21   -1    0    0  501  503 -0.00000000000E+00 -0.00000000000E+00 -0.50566873595E+02  0.50566873595E+02  0.00000000000E+00 0. -1.
          6    2    1    2  501    0 -0.84024163748E+02 -0.57943765074E+01  0.25012849382E+03  0.31489253810E+03  0.17175392932E+03 0.  0.
         24    2    3    3    0    0 -0.78945126766E+02  0.35869557937E+02  0.24527035283E+03  0.27237934504E+03  0.80709376169E+02 0.  0.
         -6    2    1    2    0  502  0.84024163748E+02  0.57943765074E+01  0.47980358489E+03  0.51617328780E+03  0.17067439196E+03 0.  0.
        -24    2    5    5    0    0  0.94581922567E+02 -0.50094262032E+02  0.33079248048E+03  0.35660698363E+03  0.79307631826E+02 0.  0.
          5    1    3    3  501    0 -0.50790369819E+01 -0.41663934445E+02  0.48581409895E+01  0.42513193058E+02  0.47000000000E+01 0. -1.
        -13    1    4    4    0    0 -0.32280056456E+01 -0.19829961626E+02  0.77598200375E+02  0.80156896772E+02  0.00000000000E+00 0.  1.
         14    1    4    4    0    0 -0.75717121121E+02  0.55699519564E+02  0.16767215246E+03  0.19222244827E+03  0.00000000000E+00 0. -1.
         -5    1    5    5    0  502 -0.10557758819E+02  0.55888638539E+02  0.14901110441E+03  0.15956630417E+03  0.47000000000E+01 0.  1.
         13    1    6    6    0    0  0.57586636296E+02  0.11296665950E+02  0.18611642684E+03  0.19514907041E+03  0.00000000000E+00 0. -1.
        -14    1    6    6    0    0  0.36995286271E+02 -0.61390927982E+02  0.14467605364E+03  0.16145791322E+03  0.00000000000E+00 0.  1.
</event>
<event>
12    1  0.8421768E-002  0.1787818E+03  0.7818608E-02  0.1170103E+00
         21   -1    0    0  501  502  0.00000000000E+00  0.00000000000E+00  0.32011167609E+03  0.32011167609E+03  0.00000000000E+00 0. -1.
         21   -1    0    0  502  503 -0.00000000000E+00 -0.00000000000E+00 -0.11959022035E+03  0.11959022035E+03  0.00000000000E+00 0. -1.
         -6    2    1    2    0  503 -0.48281008894E+02  0.13237224579E+00  0.64951982093E+01  0.17889974356E+03  0.17213906385E+03 0.  0.
        -24    2    3    3    0    0 -0.93605896996E+02  0.25788962634E+02 -0.24807616782E+01  0.12584068243E+03  0.80016177304E+02 0.  0.
          6    2    1    2  501    0  0.48281008894E+02 -0.13237224579E+00  0.19402625752E+03  0.26080215288E+03  0.16745298145E+03 0.  0.
         24    2    5    5    0    0 -0.36506944495E+02 -0.11588927674E+02  0.82505660373E+02  0.12016366849E+03  0.78517915099E+02 0.  0.
          5    1    5    5  501    0  0.84787953389E+02  0.11456555428E+02  0.11152059715E+03  0.14063848439E+03  0.47000000000E+01 0. -1.
        -11    1    6    6    0    0 -0.11527862231E+01  0.31081528217E+02  0.21875444909E+02  0.38025325802E+02  0.00000000000E+00 0.  1.
         12    1    6    6    0    0 -0.35354158272E+02 -0.42670455891E+02  0.60630215464E+02  0.82138342693E+02  0.00000000000E+00 0. -1.
         -5    1    3    3    0  503  0.45324888102E+02 -0.25656590388E+02  0.89759598875E+01  0.53059061127E+02  0.47000000000E+01 0.  1.
         11    1    4    4    0    0 -0.54214627806E+02  0.48579390388E+02  0.19412312669E+02  0.75339371657E+02  0.00000000000E+00 0. -1.
        -12    1    4    4    0    0 -0.39391269190E+02 -0.22790427754E+02 -0.21893074347E+02  0.50501310775E+02  0.00000000000E+00 0.  1.
</event>
<event>
12    1  0.8421768E-002  0.2098400E+03  0.7818608E-02  0.1141892E+00
         21   -1    0    0  501  502  0.00000000000E+00  0.00000000000E+00  0.55712456131E+02  0.55712456131E+02  0.00000000000E+00 0. -1.
         21   -1    0    0  502  503 -0.00000000000E+00 -0.00000000000E+00 -0.14511527722E+04  0.14511527722E+04  0.00000000000E+00 0. -1.
         -6    2    1    2    0  503  0.79553325071E+02 -0.89740249705E+02 -0.12066814142E+04  0.12246193516E+04  0.17096922809E+03 0.  0.
        -24    2    3    3    0    0  0.98018033281E+02 -0.11705831389E+03 -0.94004411548E+03  0.95590991530E+03  0.82283919572E+02 0.  0.
          6    2    1    2  501    0 -0.79553325071E+02  0.89740249705E+02 -0.18875890182E+03  0.28224587670E+03  0.17219398349E+03 0.  0.
         24    2    5    5    0    0  0.18912007993E+02  0.45418379086E+02 -0.12610165967E+03  0.15731441539E+03  0.80160485984E+02 0.  0.
          5    1    5    5  501    0 -0.98465333063E+02  0.44321870619E+02 -0.62657242155E+02  0.12493146131E+03  0.47000000000E+01 0. -1.
        -13    1    6    6    0    0 -0.12352888829E+02  0.31658488995E+02 -0.11718205995E+03  0.12201020023E+03  0.00000000000E+00 0.  1.
         14    1    6    6    0    0  0.31264896821E+02  0.13759890091E+02 -0.89195997218E+01  0.35304215156E+02  0.00000000000E+00 0. -1.
         -5    1    3    3    0  503 -0.18464708210E+02  0.27318064188E+02 -0.26663729875E+03  0.26870943632E+03  0.47000000000E+01 0.  1.
         11    1    4    4    0    0  0.38044166824E+02 -0.21044900735E+02 -0.48697640249E+03  0.48891334923E+03  0.00000000000E+00 0. -1.
        -12    1    4    4    0    0  0.59973866457E+02 -0.96013413158E+02 -0.45306771299E+03  0.46699656607E+03  0.00000000000E+00 0.  1.
</event>
<event>
12    1  0.8421768E-002  0.1871346E+03  0.7818608E-02  0.1161715E+00
         21   -1    0    0  503  502  0.00000000000E+00  0.00000000000E+00  0.31772883920E+03  0.31772883920E+03  0.00000000000E+00 0. -1.
         21   -1    0    0  501  503 -0.00000000000E+00 -0.00000000000E+00 -0.18509829161E+03  0.18509829161E+03  0.00000000000E+00 0. -1.
          6    2    1    2  501    0 -0.50023346979E+02 -0.40828747022E+02 -0.95612538734E+02  0.20767586987E+03  0.17267943576E+03 0.  0.
         24    2    3    3    0    0  0.42832170937E+02 -0.17732107734E+02 -0.36927163133E+02  0.95329684958E+02  0.74666665556E+02 0.  0.
         -6    2    1    2    0  502  0.50023346979E+02  0.40828747022E+02  0.22824308632E+03  0.29515126095E+03  0.17564179047E+03 0.  0.
        -24    2    5    5    0    0  0.87414786001E+02 -0.17146606878E+02  0.13652636196E+03  0.18028913098E+03  0.77002417507E+02 0.  0.
          5    1    3    3  501    0 -0.92855517915E+02 -0.23096639288E+02 -0.58685375601E+02  0.11234618491E+03  0.47000000000E+01 0. -1.
        -11    1    4    4    0    0  0.17416362472E+02 -0.28277918267E+02  0.15093295558E+02  0.36479828866E+02  0.00000000000E+00 0.  1.
         12    1    4    4    0    0  0.25415808465E+02  0.10545810533E+02 -0.52020458691E+02  0.58849856093E+02  0.00000000000E+00 0. -1.
         -5    1    5    5    0  502 -0.37391439022E+02  0.57975353900E+02  0.91716724365E+02  0.11486212997E+03  0.47000000000E+01 0.  1.
         13    1    6    6    0    0  0.86515817174E+02  0.11144686106E+02  0.11684001040E+03  0.14581076325E+03  0.00000000000E+00 0. -1.
        -14    1    6    6    0    0  0.89896882646E+00 -0.28291292984E+02  0.19686351555E+02  0.34478367729E+02  0.00000000000E+00 0.  1.
</event>
<event>
12    1  0.8421768E-002  0.1751555E+03  0.7818608E-02  0.1172589E+00
         21   -1    0    0  501  502  0.00000000000E+00  0.00000000000E+00  0.59416737020E+03  0.59416737020E+03  0.00000000000E+00 0. -1.
         21   -1    0    0  502  503 -0.00000000000E+00 -0.00000000000E+00 -0.51955566419E+02  0.51955566419E+02  0.00000000000E+00 0. -1.
         -6    2    1    2    0  503 -0.19584521920E+01 -0.34744993561E+02  0.24506083345E+03  0.30119085994E+03  0.17161023252E+03 0.  0.
        -24    2    3    3    0    0  0.32360458036E+02  0.97305927453E+01  0.56521455642E+02  0.10440404036E+03  0.81016325611E+02 0.  0.
          6    2    1    2  501    0  0.19584521920E+01  0.34744993561E+02  0.29715097033E+03  0.34493207668E+03  0.17166359032E+03 0.  0.
         24    2    5    5    0    0 -0.29666928793E+02 -0.19063466711E+02  0.25462587490E+03  0.26926181263E+03  0.80150141295E+02 0.  0.
          5    1    5    5  501    0  0.31625380985E+02  0.53808460272E+02  0.42525095436E+02  0.75670264048E+02  0.47000000000E+01 0. -1.
        -11    1    6    6    0    0 -0.17805579400E+02 -0.50506304417E+02  0.14357076607E+03  0.15323345037E+03  0.00000000000E+00 0.  1.
         12    1    6    6    0    0 -0.11861349393E+02  0.31442837706E+02  0.11105510883E+03  0.11602836226E+03  0.00000000000E+00 0. -1.
         -5    1    3    3    0  503 -0.34318910228E+02 -0.44475586306E+02  0.18853937781E+03  0.19678681958E+03  0.47000000000E+01 0.  1.
         13    1    4    4    0    0  0.97858033983E+01 -0.33754890271E+02  0.38677402304E+02  0.52259889154E+02  0.00000000000E+00 0. -1.
        -14    1    4    4    0    0  0.22574654637E+02  0.43485483016E+02  0.17844053338E+02  0.52144151203E+02  0.00000000000E+00 0.  1.
</event>
<event>
12    1  0.8421768E-002  0.1966846E+03  0.7818608E-02  0.1152643E+00
         21   -1    0    0  501  502  0.00000000000E+00  0.00000000000E+00  0.86278572691E+03  0.86278572691E+03  0.00000000000E+00 0.  1.
         21   -1    0    0  502  503 -0.00000000000E+00 -0.00000000000E+00 -0.18517265021E+03  0.18517265021E+03  0.00000000000E+00 0.  1.
         -6    2    1    2    0  503  0.46046744272E+02  0.84440054999E+02 -0.11755041171E+03  0.22883091569E+03  0.17115800635E+03 0.  0.
        -24    2    3    3    0    0  0.24823452472E+02 -0.29027853023E+01 -0.10901529666E+03  0.13841997578E+03  0.81554428661E+02 0.  0.
          6    2    1    2  501    0 -0.46046744272E+02 -0.84440054999E+02  0.79516348841E+03  0.81912746142E+03  0.17156456284E+03 0.  0.
         24    2    5    5    0    0 -0.46158430848E+02 -0.99980448618E+02  0.79049250516E+03  0.80223295367E+03  0.81071699134E+02 0.  0.
          5    1    5    5  501    0  0.11168657658E+00  0.15540393620E+02  0.46709832472E+01  0.16894507754E+02  0.47000000000E+01 0. -1.
        -13    1    6    6    0    0 -0.44874889018E+02 -0.35887648003E+02  0.56163227157E+03  0.56456397991E+03  0.00000000000E+00 0.  1.
         14    1    6    6    0    0 -0.12835418300E+01 -0.64092800615E+02  0.22886023358E+03  0.23766897376E+03  0.00000000000E+00 0. -1.
         -5    1    3    3    0  503  0.21223291800E+02  0.87342840301E+02 -0.85351150454E+01  0.90410939911E+02  0.47000000000E+01 0.  1.
         11    1    4    4    0    0 -0.22654672220E+02 -0.24293415245E+02 -0.43273660439E+02  0.54552854055E+02  0.00000000000E+00 0. -1.
        -12    1    4    4    0    0  0.47478124692E+02  0.21390629943E+02 -0.65741636221E+02  0.83867121726E+02  0.00000000000E+00 0.  1.
</event>
<event>
12    1  0.8421768E-002  0.2334809E+03  0.7818608E-02  0.1124944E+00
         21   -1    0    0  501  502  0.00000000000E+00  0.00000000000E+00  0.17199026788E+03  0.17199026788E+03  0.00000000000E+00 0. -1.
         21   -1    0    0  502  503 -0.00000000000E+00 -0.00000000000E+00 -0.33103469788E+03  0.33103469788E+03  0.00000000000E+00 0. -1.
         -6    2    1    2    0  503  0.15108083651E+03 -0.98209814317E+01 -0.14027139563E+03  0.26879057994E+03  0.17219303295E+03 0.  0.
        -24    2    3    3    0    0  0.12292503326E+03 -0.20171272233E+02 -0.25722101140E+02  0.15028526932E+03  0.80041187296E+02 0.  0.
          6    2    1    2  501    0 -0.15108083651E+03  0.98209814317E+01 -0.18773034372E+02  0.23423438583E+03  0.17773983754E+03 0.  0.
         24    2    5    5    0    0 -0.37492559581E+02  0.62141874833E+02 -0.57761110411E+01  0.10841394807E+03  0.80330044480E+02 0.  0.
          5    1    5    5  501    0 -0.11358827693E+03 -0.52320893401E+02 -0.12996923331E+02  0.12582043776E+03  0.47000000000E+01 0. -1.
        -11    1    6    6    0    0  0.14245033722E+02 -0.67178024172E+01  0.12809647779E+02  0.20301155910E+02  0.00000000000E+00 0.  1.
         12    1    6    6    0    0 -0.51737593303E+02  0.68859677250E+02 -0.18585758820E+02  0.88112792162E+02  0.00000000000E+00 0. -1.
         -5    1    3    3    0  503  0.28155803248E+02  0.10350290802E+02 -0.11454929449E+03  0.11850531061E+03  0.47000000000E+01 0.  1.
         11    1    4    4    0    0  0.10429141570E+03 -0.12732477776E+02  0.13794043567E+02  0.10596740545E+03  0.00000000000E+00 0. -1.
        -12    1    4    4    0    0  0.18633617560E+02 -0.74387944576E+01 -0.39516144707E+02  0.44317863879E+02  0.00000000000E+00 0.  1.
</event>
<event>
12    1  0.8421768E-002  0.2652243E+03  0.7818608E-02  0.1104092E+00
         21   -1    0    0  503  502  0.00000000000E+00  0.00000000000E+00  0.19751453905E+04  0.19751453905E+04  0.00000000000E+00 0.  1.
         21   -1    0    0  501  503 -0.00000000000E+00 -0.00000000000E+00 -0.16743291185E+03  0.16743291185E+03  0.00000000000E+00 0. -1.
          6    2    1    2  501    0 -0.99981440699E+02 -0.17599151474E+03 -0.46969160286E+02  0.26902875403E+03  0.17088319618E+03 0.  0.
         24    2    3    3    0    0  0.27009397784E+01 -0.33123344036E+02 -0.94556803643E+00  0.87107764306E+02  0.80513461654E+02 0.  0.
         -6    2    1    2    0  502  0.99981440699E+02  0.17599151474E+03  0.18546816389E+04  0.18735495483E+04  0.17139027533E+03 0.  0.
        -24    2    5    5    0    0  0.52310259712E+02  0.12349664367E+03  0.72800715435E+03  0.74463602763E+03  0.80626376538E+02 0.  0.
          5    1    3    3  501    0 -0.10268238048E+03 -0.14286817070E+03 -0.46023592250E+02  0.18192098973E+03  0.47000000000E+01 0. -1.
        -11    1    4    4    0    0 -0.10206921555E+02  0.94298579350E+01  0.29911937316E+02  0.32982229493E+02  0.00000000000E+00 0.  1.
         12    1    4    4    0    0  0.12907861333E+02 -0.42553201971E+02 -0.30857505352E+02  0.54125534813E+02  0.00000000000E+00 0. -1.
         -5    1    5    5    0  502  0.47671180987E+02  0.52494871063E+02  0.11266744846E+04  0.11289135207E+04  0.47000000000E+01 0.  1.
         11    1    6    6    0    0  0.73410138032E+02  0.99627467469E+02  0.60842068347E+03  0.62087873914E+03  0.00000000000E+00 0. -1.
        -12    1    6    6    0    0 -0.21099878320E+02  0.23869176206E+02  0.11958647088E+03  0.12375728849E+03  0.00000000000E+00 0.  1.
</event>
<event>
12    1  0.8421768E-002  0.2583670E+03  0.7818608E-02  0.1108187E+00
         21   -1    0    0  501  502  0.00000000000E+00  0.00000000000E+00  0.13687868084E+03  0.13687868084E+03  0.00000000000E+00 0. -1.
         21   -1    0    0  502  503 -0.00000000000E+00 -0.00000000000E+00 -0.51563986331E+03  0.51563986331E+03  0.00000000000E+00 0.  1.
         -6    2    1    2    0  503  0.18417368736E+03  0.55560515478E+02 -0.26619521400E+03  0.37069479116E+03  0.17189478828E+03 0.  0.
        -24    2    3    3    0    0  0.49697091999E+02  0.41859134901E+02 -0.18876556599E+03  0.21484511063E+03  0.79397698519E+02 0.  0.
          6    2    1    2  501    0 -0.18417368736E+03 -0.55560515478E+02 -0.11256596847E+03  0.28182375299E+03  0.17247206293E+03 0.  0.
         24    2    5    5    0    0 -0.15650193587E+03 -0.44213397853E+02 -0.14899716487E+03  0.23445493434E+03  0.79506481596E+02 0.  0.
          5    1    5    5  501    0 -0.27671751491E+02 -0.11347117625E+02  0.36431196397E+02  0.47368818646E+02  0.47000000000E+01 0. -1.
        -13    1    6    6    0    0 -0.11474916703E+03  0.69751706474E+01 -0.93897766908E+02  0.14843454776E+03  0.00000000000E+00 0.  1.
         14    1    6    6    0    0 -0.41752768845E+02 -0.51188568500E+02 -0.55099397959E+02  0.86020386577E+02  0.00000000000E+00 0. -1.
         -5    1    3    3    0  503  0.13447659537E+03  0.13701380577E+02 -0.77429648015E+02  0.15584968053E+03  0.47000000000E+01 0.  1.
         11    1    4    4    0    0 -0.21634940588E+02  0.13816690757E+02 -0.40738066916E+02  0.48151445397E+02  0.00000000000E+00 0. -1.
        -12    1    4    4    0    0  0.71332032588E+02  0.28042444143E+02 -0.14802749907E+03  0.16669366523E+03  0.00000000000E+00 0.  1.
</event>
<event>
12    1  0.8421768E-002  0.1735473E+03  0.7818608E-02  0.1174480E+00
         21   -1    0    0  503  502  0.00000000000E+00  0.00000000000E+00  0.16127282195E+03  0.16127282195E+03  0.00000000000E+00 0. -1.
         21   -1    0    0  501  503 -0.00000000000E+00 -0.00000000000E+00 -0.19615243278E+03  0.19615243278E+03  0.00000000000E+00 0. -1.
          6    2    1    2  501    0 -0.55296683797E+01  0.60723122156E+01  0.24128470525E+02  0.17412057854E+03  0.17224500739E+03 0.  0.
         24    2    3    3    0    0 -0.87321651735E+01  0.20862196927E+02 -0.51435876775E+02  0.96912695140E+02  0.78961630495E+02 0.  0.
         -6    2    1    2    0  502  0.55296683797E+01 -0.60723122156E+01 -0.59008081354E+02  0.18330467620E+03  0.17335282070E+03 0.  0.
        -24    2    5    5    0    0  0.23385857962E+02 -0.50152556573E+02 -0.85814559274E+01  0.11382916972E+03  0.99102276507E+02 0.  0.
          5    1    3    3  501    0  0.32024967938E+01 -0.14789884712E+02  0.75564347301E+02  0.77207883396E+02  0.47000000000E+01 0. -1.
        -13    1    4    4    0    0 -0.25826916557E+02 -0.17461843793E+02 -0.85111729036E+00  0.31187657946E+02  0.00000000000E+00 0.  1.
         14    1    4    4    0    0  0.17094751384E+02  0.38324040720E+02 -0.50584759485E+02  0.65725037194E+02  0.00000000000E+00 0. -1.
         -5    1    5    5    0  502 -0.17856189583E+02  0.44080244357E+02 -0.50426625427E+02  0.69475506482E+02  0.47000000000E+01 0.  1.
         13    1    6    6    0    0 -0.26650225263E+02 -0.53150138020E+02  0.10150759201E+02  0.60317572816E+02  0.00000000000E+00 0. -1.
        -14    1    6    6    0    0  0.50036083226E+02  0.29975814467E+01 -0.18732215129E+02  0.53511596899E+02  0.00000000000E+00 0.  1.
</event>
<event>
12    1  0.8421768E-002  0.1857879E+03  0.7818608E-02  0.1162392E+00
         21   -1    0    0  501  502  0.00000000000E+00  0.00000000000E+00  0.52229162689E+02  0.52229162689E+02  0.00000000000E+00 0.  1.
         21   -1    0    0  502  503 -0.00000000000E+00 -0.00000000000E+00 -0.73951501771E+03  0.73951501771E+03  0.00000000000E+00 0.  1.
         -6    2    1    2    0  503  0.23732411874E+02  0.65861628107E+02 -0.47395755679E+03  0.50907063311E+03  0.17209347004E+03 0.  0.
        -24    2    3    3    0    0  0.42714386252E+02  0.97778724805E+02 -0.27213215725E+03  0.30380349421E+03  0.82797670675E+02 0.  0.
          6    2    1    2  501    0 -0.23732411874E+02 -0.65861628107E+02 -0.21332829824E+03  0.28267354729E+03  0.17173930849E+03 0.  0.
         24    2    5    5    0    0 -0.44397585031E+02  0.20836775425E+02 -0.12573573812E+03  0.15762072188E+03  0.81421737625E+02 0.  0.
          5    1    5    5  501    0  0.20665173157E+02 -0.86698403532E+02 -0.87592560116E+02  0.12505282541E+03  0.47000000000E+01 0. -1.
        -13    1    6    6    0    0 -0.23609032929E+02 -0.11293326720E+02 -0.11490642347E+03  0.11784910614E+03  0.00000000000E+00 0.  1.
         14    1    6    6    0    0 -0.20788552102E+02  0.32130102144E+02 -0.10829314651E+02  0.39771615734E+02  0.00000000000E+00 0. -1.
         -5    1    3    3    0  503 -0.18981974377E+02 -0.31917096697E+02 -0.20182539953E+03  0.20526713890E+03  0.47000000000E+01 0.  1.
         11    1    4    4    0    0 -0.23879451002E+01  0.23241302618E+02 -0.65023256391E+01  0.24251611656E+02  0.00000000000E+00 0. -1.
        -12    1    4    4    0    0  0.45102331352E+02  0.74537422187E+02 -0.26562983161E+03  0.27955188256E+03  0.00000000000E+00 0.  1.
</event>
<event>
12    1  0.8421768E-002  0.1724009E+03  0.7818608E-02  0.1175521E+00
         21   -1    0    0  501  502  0.00000000000E+00  0.00000000000E+00  0.39839282704E+02  0.39839282704E+02  0.00000000000E+00 0.  1.
         21   -1    0    0  502  503 -0.00000000000E+00 -0.00000000000E+00 -0.81608210226E+03  0.81608210226E+03  0.00000000000E+00 0.  1.
         -6    2    1    2    0  503  0.18370308640E+02  0.25304576457E+01 -0.51517083637E+03  0.54306254772E+03  0.17079832740E+03 0.  0.
        -24    2    3    3    0    0  0.44099768188E+02  0.58416831278E+02 -0.35624533251E+03  0.37257883113E+03  0.80913118483E+02 0.  0.
          6    2    1    2  501    0 -0.18370308640E+02 -0.25304576457E+01 -0.26107198319E+03  0.31285883724E+03  0.17140070063E+03 0.  0.
         24    2    5    5    0    0  0.19839438498E+01 -0.23263673986E+02 -0.43897183014E+02  0.93698745788E+02  0.79418875119E+02 0.  0.
          5    1    5    5  501    0 -0.20354252490E+02  0.20733216341E+02 -0.21717480018E+03  0.21916009146E+03  0.47000000000E+01 0. -1.
        -13    1    6    6    0    0 -0.12358910609E+02  0.24583031444E+02 -0.32279954348E+02  0.42415369374E+02  0.00000000000E+00 0.  1.
         14    1    6    6    0    0  0.14342854458E+02 -0.47846705430E+02 -0.11617228666E+02  0.51283376414E+02  0.00000000000E+00 0. -1.
         -5    1    3    3    0  503 -0.25729459548E+02 -0.55886373632E+02 -0.15892550386E+03  0.17048371660E+03  0.47000000000E+01 0.  1.
         11    1    4    4    0    0 -0.23910474357E+02  0.13667987320E+02 -0.98894451484E+02  0.10265786475E+03  0.00000000000E+00 0. -1.
        -12    1    4    4    0    0  0.68010242545E+02  0.44748843958E+02 -0.25735088102E+03  0.26992096638E+03  0.00000000000E+00 0.  1.
</event>
<event>
12    1  0.8421768E-002  0.2650184E+03  0.7818608E-02  0.1104207E+00
         21   -1    0    0  503  502  0.00000000000E+00  0.00000000000E+00  0.16907069299E+04  0.16907069299E+04  0.00000000000E+00 0. -1.
         21   -1    0    0  501  503 -0.00000000000E+00 -0.00000000000E+00 -0.60873489581E+02  0.60873489581E+02  0.00000000000E+00 0.  1.
          6    2    1    2  501    0  0.78450512545E+02  0.18610612420E+03  0.32110189546E+03  0.41634263479E+03  0.17159484226E+03 0.  0.
         24    2    3    3    0    0  0.10382977356E+03  0.19673752328E+03  0.29769794908E+03  0.37991505949E+03  0.78899357374E+02 0.  0.
         -6    2    1    2    0  502 -0.78450512545E+02 -0.18610612420E+03  0.13087315448E+04  0.13352377847E+04  0.17114821875E+03 0.  0.
        -24    2    5    5    0    0 -0.11587747755E+03 -0.10655212631E+03  0.85400530844E+03  0.87206648120E+03  0.79962087073E+02 0.  0.
          5    1    3    3  501    0 -0.25379261014E+02 -0.10631399085E+02  0.23403946378E+02  0.36427575299E+02  0.47000000000E+01 0. -1.
        -13    1    4    4    0    0  0.90150365512E+02  0.12647886958E+03  0.24854711646E+03  0.29308644109E+03  0.00000000000E+00 0.  1.
         14    1    4    4    0    0  0.13679408047E+02  0.70258653705E+02  0.49150832617E+02  0.86828618392E+02  0.00000000000E+00 0. -1.
         -5    1    5    5    0  502  0.37426965008E+02 -0.79553997882E+02  0.45472623640E+03  0.46317130348E+03  0.47000000000E+01 0.  1.
         13    1    6    6    0    0 -0.10581040225E+03 -0.10518405031E+03  0.61474828519E+03  0.63259385059E+03  0.00000000000E+00 0. -1.
        -14    1    6    6    0    0 -0.10067075301E+02 -0.13680760046E+01  0.23925702325E+03  0.23947263061E+03  0.00000000000E+00 0.  1.
</event>
<event>
12    1  0.8421768E-002  0.2565038E+03  0.7818608E-02  0.1109645E+00
         21   -1    0    0  501  502  0.00000000000E+00  0.00000000000E+00  0.18135384872E+04  0.18135384872E+04  0.00000000000E+00 0.  1.
         21   -1    0    0  502  503 -0.00000000000E+00 -0.00000000000E+00 -0.36090785463E+02  0.36090785463E+02  0.00000000000E+00 0. -1.
         -6    2    1    2    0  503 -0.16242604981E+03  0.93411108675E+02  0.83097121826E+03  0.86965932694E+03  0.17517511946E+03 0.  0.
        -24    2    3    3    0    0 -0.11718141357E+03  0.55988786132E+02  0.30718448307E+03  0.34257096500E+03  0.78270885792E+02 0.  0.
          6    2    1    2  501    0  0.16242604981E+03 -0.93411108675E+02  0.94647648343E+03  0.97996994568E+03  0.17150948620E+03 0.  0.
         24    2    5    5    0    0  0.15835657932E+03 -0.12301553894E+03  0.88659141857E+03  0.91287826307E+03  0.84218469879E+02 0.  0.
          5    1    5    5  501    0  0.40694704955E+01  0.29604430267E+02  0.59885064863E+02  0.67091682608E+02  0.47000000000E+01 0. -1.
        -11    1    6    6    0    0  0.42861741732E+02 -0.10930404619E+02  0.34666078437E+03  0.34947146102E+03  0.00000000000E+00 0.  1.
         12    1    6    6    0    0  0.11549483758E+03 -0.11208513432E+03  0.53993063421E+03  0.56340680205E+03  0.00000000000E+00 0. -1.
         -5    1    3    3    0  503 -0.45244636240E+02  0.37422322543E+02  0.52378673519E+03  0.52708836194E+03  0.47000000000E+01 0.  1.
         11    1    4    4    0    0  0.10515927792E+02  0.10290997155E+01  0.10335338009E+02  0.14780493744E+02  0.00000000000E+00 0. -1.
        -12    1    4    4    0    0 -0.12769734136E+03  0.54959686417E+02  0.29684914506E+03  0.32779047126E+03  0.00000000000E+00 0.  1.
</event>
<event>
12    1  0.8421768E-002  0.1824705E+03  0.7818608E-02  0.1165626E+00
         21   -1    0    0  503  502  0.00000000000E+00  0.00000000000E+00  0.26347854916E+03  0.26347854916E+03  0.00000000000E+00 0. -1.
         21   -1    0    0  501  503 -0.00000000000E+00 -0.00000000000E+00 -0.17191887687E+03  0.17191887687E+03  0.00000000000E+00 0. -1.
          6    2    1    2  501    0 -0.58059659564E+02 -0.78211890658E+00 -0.66888243189E+02  0.19434381566E+03  0.17298539195E+03 0.  0.
         24    2    3    3    0    0 -0.42640446317E+02  0.15968707390E+02  0.27300400613E+02  0.97328698588E+02  0.81574238688E+02 0.  0.
         -6    2    1    2    0  502  0.58059659564E+02  0.78211890658E+00  0.15844791548E+03  0.24105361037E+03  0.17213240652E+03 0.  0.
        -24    2    5    5    0    0  0.57450193595E+01  0.28284665107E+02  0.15699527137E+02  0.86481931199E+02  0.79997635864E+02 0.  0.
          5    1    3    3  501    0 -0.15419213248E+02 -0.16750826296E+02 -0.94188643802E+02  0.97015117070E+02  0.47000000000E+01 0. -1.
        -13    1    4    4    0    0 -0.35442167329E+02  0.48269225931E+02  0.13002235210E+02  0.61279062635E+02  0.00000000000E+00 0.  1.
         14    1    4    4    0    0 -0.71982789871E+01 -0.32300518542E+02  0.14298165403E+02  0.36049635953E+02  0.00000000000E+00 0. -1.
         -5    1    5    5    0  502  0.52314640205E+02 -0.27502546201E+02  0.14274838834E+03  0.15457167917E+03  0.47000000000E+01 0.  1.
         13    1    6    6    0    0  0.24822389380E+02  0.38686463893E+02  0.34719827690E+02  0.57604339575E+02  0.00000000000E+00 0. -1.
        -14    1    6    6    0    0 -0.19077370020E+02 -0.10401798786E+02 -0.19020300553E+02  0.28877591624E+02  0.00000000000E+00 0.  1.
</event>
<event>
12    1  0.8421768E-002  0.2011569E+03  0.7818608E-02  0.1149517E+00
         21   -1    0    0  503  502  0.00000000000E+00  0.00000000000E+00  0.23218213974E+03  0.23218213974E+03  0.00000000000E+00 0. -1.
         21   -1    0    0  501  503 -0.00000000000E+00 -0.00000000000E+00 -0.30638510523E+03  0.30638510523E+03  0.00000000000E+00 0. -1.
          6    2    1    2  501    0  0.99626349128E+02  0.37719749428E+02 -0.21614403778E+03  0.29526658825E+03  0.17063388916E+03 0.  0.
         24    2    3    3    0    0  0.12806431891E+03  0.21563982880E+02 -0.12074659702E+03  0.19430873257E+03  0.79439711284E+02 0.  0.
         -6    2    1    2    0  502 -0.99626349128E+02 -0.37719749428E+02  0.14194107230E+03  0.24330065671E+03  0.16643242657E+03 0.  0.
        -24    2    5    5    0    0 -0.11262708278E+02  0.29444366793E+02  0.52227901738E+02  0.10050816915E+03  0.79876899119E+02 0.  0.
          5    1    3    3  501    0 -0.28437969780E+02  0.16155766548E+02 -0.95397440768E+02  0.10095785568E+03  0.47000000000E+01 0. -1.
        -13    1    4    4    0    0 -0.42430882381E+01  0.15173527154E+02 -0.10714972875E+01  0.15792017937E+02  0.00000000000E+00 0.  1.
         14    1    4    4    0    0  0.13230740715E+03  0.63904557263E+01 -0.11967509973E+03  0.17851671464E+03  0.00000000000E+00 0. -1.
         -5    1    5    5    0  502 -0.88363640850E+02 -0.67164116221E+02  0.89713170557E+02  0.14279248756E+03  0.47000000000E+01 0.  1.
         13    1    6    6    0    0 -0.13517336775E+02  0.75724600654E+01  0.70336840198E+02  0.72023132630E+02  0.00000000000E+00 0. -1.
        -14    1    6    6    0    0  0.22546284968E+01  0.21871906727E+02 -0.18108938459E+02  0.28485036522E+02  0.00000000000E+00 0.  1.
</event>
<event>
12    1  0.8421768E-002  0.1817395E+03  0.7818608E-02  0.1166237E+00
         21   -1    0    0  501  502  0.00000000000E+00  0.00000000000E+00  0.44045112426E+03  0.44045112426E+03  0.00000000000E+00 0. -1.
         21   -1    0    0  502  503 -0.00000000000E+00 -0.00000000000E+00 -0.75038377465E+02  0.75038377465E+02  0.00000000000E+00 0.  1.
         -6    2    1    2    0  503  0.60882804722E+02 -0.12059259183E+02  0.19683632847E+03  0.26760391977E+03  0.17033841617E+03 0.  0.
        -24    2    3    3    0    0  0.90726391017E+02  0.25418203707E+02  0.17468225674E+03  0.21461247931E+03  0.81653305797E+02 0.  0.
          6    2    1    2  501    0 -0.60882804722E+02  0.12059259183E+02  0.16857641832E+03  0.24788558196E+03  0.17081308874E+03 0.  0.
         24    2    5    5    0    0 -0.94340112327E+02 -0.24274032807E+02  0.14692659969E+03  0.19375329782E+03  0.80396699290E+02 0.  0.
          5    1    5    5  501    0  0.33457307605E+02  0.36333291990E+02  0.21649818625E+02  0.54132284133E+02  0.47000000000E+01 0. -1.
        -11    1    6    6    0    0 -0.24918111051E+02 -0.12159306716E+02 -0.31988978355E+01  0.27910463011E+02  0.00000000000E+00 0.  1.
         12    1    6    6    0    0 -0.69422001276E+02 -0.12114726091E+02  0.15012549753E+03  0.16584283481E+03  0.00000000000E+00 0. -1.
         -5    1    3    3    0  503 -0.29843586295E+02 -0.37477462890E+02  0.22154071732E+02  0.52991440459E+02  0.47000000000E+01 0.  1.
         13    1    4    4    0    0  0.52827878709E+02  0.39430757197E+02  0.15743557466E+03  0.17067961082E+03  0.00000000000E+00 0. -1.
        -14    1    4    4    0    0  0.37898512308E+02 -0.14012553490E+02  0.17246682081E+02  0.43932868484E+02  0.00000000000E+00 0.  1.
</event>
<event>
12    1  0.8421768E-002  0.2159095E+03  0.7818608E-02  0.1137538E+00
         21   -1    0    0  503  502  0.00000000000E+00  0.00000000000E+00  0.25511341676E+03  0.25511341676E+03  0.00000000000E+00 0. -1.
         21   -1    0    0  501  503 -0.00000000000E+00 -0.00000000000E+00 -0.20867550628E+03  0.20867550628E+03  0.00000000000E+00 0. -1.
          6    2    1    2  501    0  0.11666950568E+03 -0.44791080120E+02 -0.62521719858E+02  0.22194372473E+03  0.17242980333E+03 0.  0.
         24    2    3    3    0    0  0.51334686197E+02  0.34027671291E+02  0.66460308242E+01  0.98301895457E+02  0.76327979826E+02 0.  0.
         -6    2    1    2    0  502 -0.11666950568E+03  0.44791080120E+02  0.10895963034E+03  0.24184519832E+03  0.17606500076E+03 0.  0.
        -24    2    5    5    0    0 -0.13965268779E+03 -0.21722111442E+01  0.63696477300E+02  0.17252982910E+03  0.78750930167E+02 0.  0.
          5    1    3    3  501    0  0.65334819481E+02 -0.78818751411E+02 -0.69167750682E+02  0.12364182927E+03  0.47000000000E+01 0. -1.
        -13    1    4    4    0    0  0.64159738363E+02  0.39442701353E+02  0.21120297181E+02  0.78219343323E+02  0.00000000000E+00 0.  1.
         14    1    4    4    0    0 -0.12825052166E+02 -0.54150300625E+01 -0.14474266357E+02  0.20082552134E+02  0.00000000000E+00 0. -1.
         -5    1    5    5    0  502  0.22983182111E+02  0.46963291264E+02  0.45263153041E+02  0.69315369216E+02  0.47000000000E+01 0.  1.
         13    1    6    6    0    0 -0.12825981108E+03  0.23331640374E+02  0.62497206139E+02  0.14457124664E+03  0.00000000000E+00 0. -1.
        -14    1    6    6    0    0 -0.11392876712E+02 -0.25503851518E+02  0.11992711603E+01  0.27958582463E+02  0.00000000000E+00 0.  1.
</event>
<event>
12    1  0.8421768E-002  0.1876377E+03  0.7818608E-02  0.1160651E+00
         21   -1    0    0  503  502  0.00000000000E+00  0.00000000000E+00  0.29537963649E+02  0.29537963649E+02  0.00000000000E+00 0. -1.
         21   -1    0    0  501  503 -0.00000000000E+00 -0.00000000000E+00 -0.13284662596E+04  0.13284662596E+04  0.00000000000E+00 0. -1.
          6    2    1    2  501    0  0.49358095848E+02 -0.57548177263E+02 -0.86831178720E+03  0.88835425154E+03  0.17163887117E+03 0.  0.
         24    2    3    3    0    0  0.57380906079E+01  0.14087058173E+01 -0.18902491938E+03  0.20510366960E+03  0.79386302354E+02 0.  0.
         -6    2    1    2    0  502 -0.49358095848E+02  0.57548177263E+02 -0.43061650877E+03  0.46964997173E+03  0.17144242180E+03 0.  0.
        -24    2    5    5    0    0 -0.53353611017E+02  0.93191194736E+02 -0.39769628887E+03  0.42073964854E+03  0.85605531911E+02 0.  0.
          5    1    3    3  501    0  0.43620005240E+02 -0.58956883081E+02 -0.67928686782E+03  0.68325058193E+03  0.47000000000E+01 0. -1.
        -11    1    4    4    0    0 -0.35683766339E+02 -0.12850684765E+01 -0.62958322123E+02  0.72379091633E+02  0.00000000000E+00 0.  1.
         12    1    4    4    0    0  0.41421856947E+02  0.26937742938E+01 -0.12606659726E+03  0.13272457797E+03  0.00000000000E+00 0. -1.
         -5    1    5    5    0  502  0.39955151687E+01 -0.35643017472E+02 -0.32920219903E+02  0.48910323189E+02  0.47000000000E+01 0.  1.
         11    1    6    6    0    0 -0.33597395925E+02  0.54087699793E+02 -0.91792220634E+02  0.11171426073E+03  0.00000000000E+00 0. -1.
        -12    1    6    6    0    0 -0.19756215092E+02  0.39103494943E+02 -0.30590406823E+03  0.30902538781E+03  0.00000000000E+00 0.  1.
</event>
<event>
12    1  0.8421768E-002  0.2074289E+03  0.7818608E-02  0.1145331E+00
         21   -1    0    0  503  502  0.00000000000E+00  0.00000000000E+00  0.14357757092E+04  0.14357757092E+04  0.00000000000E+00 0.  1.
         21   -1    0    0  501  503 -0.00000000000E+00 -0.00000000000E+00 -0.31046170585E+02  0.31046170585E+02  0.00000000000E+00 0. -1.
          6    2    1    2  501    0  0.28235256574E+02 -0.11191959666E+03  0.51744345983E+03  0.55747152511E+03  0.17234715359E+03 0.  0.
         24    2    3    3    0    0 -0.10739162475E+02 -0.18244500296E+02  0.36434509987E+03  0.37374556929E+03  0.80561823219E+02 0.  0.
         -6    2    1    2    0  502 -0.28235256574E+02  0.11191959666E+03  0.88728607879E+03  0.90935035468E+03  0.16222902366E+03 0.  0.
        -24    2    5    5    0    0 -0.22438474454E+02  0.83187387277E+02  0.32194918408E+03  0.34323460940E+03  0.82067614941E+02 0.  0.
          5    1    3    3  501    0  0.38974419049E+02 -0.93675096366E+02  0.15309835996E+03  0.18372595582E+03  0.47000000000E+01 0. -1.
        -13    1    4    4    0    0  0.19133771249E+02  0.23968634676E+02  0.16336173785E+03  0.16621568531E+03  0.00000000000E+00 0.  1.
         14    1    4    4    0    0 -0.29872933724E+02 -0.42213134973E+02  0.20098336202E+03  0.20752988397E+03  0.00000000000E+00 0. -1.
         -5    1    5    5    0  502 -0.57967821201E+01  0.28732209385E+02  0.56533689471E+03  0.56611574529E+03  0.47000000000E+01 0.  1.
         13    1    6    6    0    0  0.26435966309E+02  0.41432008421E+02  0.90027686740E+02  0.10256927423E+03  0.00000000000E+00 0. -1.
        -14    1    6    6    0    0 -0.48874440763E+02  0.41755378856E+02  0.23192149734E+03  0.24066533517E+03  0.00000000000E+00 0.  1.
</event>
<event>
12    1  0.8421768E-002  0.2059438E+03  0.7818608E-02  0.1144893E+00
         21   -1    0    0  501  502  0.00000000000E+00  0.00000000000E+00  0.10933695146E+03  0.10933695146E+03  0.00000000000E+00 0.  1.
         21   -1    0    0  502  503 -0.00000000000E+00 -0.00000000000E+00 -0.54508014731E+03  0.54508014731E+03  0.00000000000E+00 0.  1.
         -6    2    1    2    0  503  0.74818923164E+02 -0.87018024729E+02 -0.39409173172E+03  0.44465845085E+03  0.17100537130E+03 0.  0.
        -24    2    3    3    0    0  0.78414050827E+02 -0.64227959258E+02 -0.40030452521E+03  0.42030684249E+03  0.78359012381E+02 0.  0.
          6    2    1    2  501    0 -0.74818923164E+02  0.87018024729E+02 -0.41651464125E+02  0.20975864791E+03  0.17056915905E+03 0.  0.
         24    2    5    5    0    0  0.21569518235E+02  0.65550196560E+02 -0.26602985428E+02  0.10975791795E+03  0.81098762831E+02 0.  0.
          5    1    5    5  501    0 -0.96388441399E+02  0.21467828169E+02 -0.15048478697E+02  0.10000072996E+03  0.47000000000E+01 0. -1.
        -11    1    6    6    0    0  0.35205066016E+02  0.77402864870E+02 -0.10727319906E+02  0.85706916615E+02  0.00000000000E+00 0.  1.
         12    1    6    6    0    0 -0.13635547781E+02 -0.11852668310E+02 -0.15875665522E+02  0.24051001333E+02  0.00000000000E+00 0. -1.
         -5    1    3    3    0  503 -0.35951276630E+01 -0.22790065471E+02  0.62127934884E+01  0.24351608366E+02  0.47000000000E+01 0.  1.
         13    1    4    4    0    0  0.68084062641E+02 -0.19543536024E+02 -0.32075811026E+03  0.32848615600E+03  0.00000000000E+00 0. -1.
        -14    1    4    4    0    0  0.10329988186E+02 -0.44684423235E+02 -0.79546414946E+02  0.91820686485E+02  0.00000000000E+00 0.  1.
</event>
<event>
12    1  0.8421768E-002  0.1785406E+03  0.7818608E-02  0.1169722E+00
         21   -1    0    0  501  502  0.00000000000E+00  0.00000000000E+00  0.52574492130E+03  0.52574492130E+03  0.00000000000E+00 0.  1.
         21   -1    0    0  502  503 -0.00000000000E+00 -0.00000000000E+00 -0.77175009782E+02  0.77175009782E+02  0.00000000000E+00 0.  1.
         -6    2    1    2    0  503  0.33742971504E+02  0.20062618708E+02  0.80850142928E+02  0.19414789102E+03  0.17209172316E+03 0.  0.
        -24    2    3    3    0    0 -0.90187063309E+01  0.71194523180E+02  0.39362538569E+02  0.11549457538E+03  0.81483681217E+02 0.  0.
          6    2    1    2  501    0 -0.33742971504E+02 -0.20062618708E+02  0.36771976859E+03  0.40877204006E+03  0.17417134014E+03 0.  0.
         24    2    5    5    0    0 -0.62282767761E+00  0.52362799775E+02  0.17499027040E+03  0.20018360643E+03  0.81912336285E+02 0.  0.
          5    1    5    5  501    0 -0.33120143826E+02 -0.72425418483E+02  0.19272949819E+03  0.20858843362E+03  0.47000000000E+01 0. -1.
        -13    1    6    6    0    0 -0.24189508030E+02 -0.55615331388E+01  0.97489552036E+02  0.10059958104E+03  0.00000000000E+00 0.  1.
         14    1    6    6    0    0  0.23566680353E+02  0.57924332914E+02  0.77500718364E+02  0.99584025392E+02  0.00000000000E+00 0. -1.
         -5    1    3    3    0  503  0.42761677835E+02 -0.51131904472E+02  0.41487604359E+02  0.78653315643E+02  0.47000000000E+01 0.  1.
         11    1    4    4    0    0 -0.36715489787E+02  0.57459961805E+02  0.48007961204E+02  0.83393277546E+02  0.00000000000E+00 0. -1.
        -12    1    4    4    0    0  0.27696783457E+02  0.13734561376E+02 -0.86454226349E+01  0.32101297833E+02  0.00000000000E+00 0.  1.
</event>
<event>
12    1  0.8421768E-002  0.1834106E+03  0.7818608E-02  0.1165747E+00
         21   -1    0    0  503  502  0.00000000000E+00  0.00000000000E+00  0.10377139826E+04  0.10377139826E+04  0.00000000000E+00 0.  1.
         21   -1    0    0  501  503 -0.00000000000E+00 -0.00000000000E+00 -0.65866085548E+02  0.65866085548E+02  0.00000000000E+00 0.  1.
          6    2    1    2  501    0  0.53246874066E+02  0.82660756757E+01  0.88751287677E+03  0.90626626289E+03  0.17531650011E+03 0.  0.
         24    2    3    3    0    0  0.54097649822E+02  0.39272376158E+02  0.29020386130E+03  0.30813394939E+03  0.79116208250E+02 0.  0.
         -6    2    1    2    0  502 -0.53246874066E+02 -0.82660756757E+01  0.84335020315E+02  0.19731380529E+03  0.17004935902E+03 0.  0.
        -24    2    5    5    0    0  0.62797978995E+00 -0.57961740298E+02  0.24833311985E+02  0.10279025133E+03  0.81173793103E+02 0.  0.
          5    1    3    3  501    0 -0.85077575651E+00 -0.31006300482E+02  0.59730901547E+03  0.59813231350E+03  0.47000000000E+01 0. -1.
        -11    1    4    4    0    0  0.20100239418E+02 -0.24195526559E+02  0.81494583406E+02  0.87354509069E+02  0.00000000000E+00 0.  1.
         12    1    4    4    0    0  0.33997410404E+02  0.63467902717E+02  0.20870927789E+03  0.22077944032E+03  0.00000000000E+00 0. -1.
         -5    1    5    5    0  502 -0.53874853856E+02  0.49695664622E+02  0.59501708330E+02  0.94523553966E+02  0.47000000000E+01 0.  1.
         13    1    6    6    0    0  0.29465925429E+02  0.43686863733E+01  0.15192515547E+02  0.33438581170E+02  0.00000000000E+00 0. -1.
        -14    1    6    6    0    0 -0.28837945639E+02 -0.62330426671E+02  0.96407964377E+01  0.69351670157E+02  0.00000000000E+00 0.  1.
</event>
<event>
12    1  0.8421768E-002  0.2164392E+03  0.7818608E-02  0.1136590E+00
         21   -1    0    0  501  502  0.00000000000E+00  0.00000000000E+00  0.11366068449E+03  0.11366068449E+03  0.00000000000E+00 0. -1.
         21   -1    0    0  502  503 -0.00000000000E+00 -0.00000000000E+00 -0.58417022794E+03  0.58417022794E+03  0.00000000000E+00 0. -1.
         -6    2    1    2    0  503 -0.12877659621E+03 -0.26584505761E+02 -0.42467577444E+03  0.47659196688E+03  0.17175634434E+03 0.  0.
        -24    2    3    3    0    0 -0.76608739917E+02  0.36151255150E+02 -0.32923979634E+03  0.35094413824E+03  0.87104146789E+02 0.  0.
          6    2    1    2  501    0  0.12877659621E+03  0.26584505761E+02 -0.45833769016E+02  0.22123894555E+03  0.17191797163E+03 0.  0.
         24    2    5    5    0    0  0.35797169546E+02  0.36184090434E+02 -0.78285863645E+02  0.12218060792E+03  0.78795296546E+02 0.  0.
          5    1    5    5  501    0  0.92979426663E+02 -0.95995846731E+01  0.32452094629E+02  0.99058337632E+02  0.47000000000E+01 0. -1.
        -11    1    6    6    0    0  0.55868417020E+02  0.39478974825E+02 -0.41130487898E+02  0.79822218137E+02  0.00000000000E+00 0.  1.
         12    1    6    6    0    0 -0.20071247475E+02 -0.32948843912E+01 -0.37155375747E+02  0.42358389786E+02  0.00000000000E+00 0. -1.
         -5    1    3    3    0  503 -0.52167856293E+02 -0.62735760912E+02 -0.95435978099E+02  0.12564782864E+03  0.47000000000E+01 0.  1.
         13    1    4    4    0    0 -0.39961048662E+02 -0.26748964312E+02 -0.11400622429E+03  0.12373282377E+03  0.00000000000E+00 0. -1.
        -14    1    4    4    0    0 -0.36647691255E+02  0.62900219462E+02 -0.21523357205E+03  0.22721131447E+03  0.00000000000E+00 0.  1.
</event>
<event>
12    1  0.8421768E-002  0.1991166E+03  0.7818608E-02  0.1150672E+00
         21   -1    0    0  503  502  0.00000000000E+00  0.00000000000E+00  0.36775460774E+03  0.36775460774E+03  0.00000000000E+00 0.  1.
         21   -1    0    0  501  503 -0.00000000000E+00 -0.00000000000E+00 -0.11070095295E+03  0.11070095295E+03  0.00000000000E+00 0. -1.
          6    2    1    2  501    0 -0.16971396817E+02  0.98252423702E+02  0.16994848223E+03  0.26112000931E+03  0.17134644897E+03 0.  0.
         24    2    3    3    0    0 -0.13917916891E+02 -0.17146039318E+02  0.75502016372E+02  0.11189416060E+03  0.79574202014E+02 0.  0.
         -6    2    1    2    0  502  0.16971396817E+02 -0.98252423702E+02  0.87105172560E+02  0.21733555138E+03  0.17235389098E+03 0.  0.
        -24    2    5    5    0    0  0.64437245336E+02 -0.10117277370E+03  0.37994614740E+02  0.14881203637E+03  0.79456545961E+02 0.  0.
          5    1    3    3  501    0 -0.30534799260E+01  0.11539846302E+03  0.94446465861E+02  0.14922584870E+03  0.47000000000E+01 0. -1.
        -13    1    4    4    0    0 -0.28244004681E+02  0.24769755360E+02  0.42041378358E+02  0.56380334118E+02  0.00000000000E+00 0.  1.
         14    1    4    4    0    0  0.14326087790E+02 -0.41915794678E+02  0.33460638014E+02  0.55513826487E+02  0.00000000000E+00 0. -1.
         -5    1    5    5    0  502 -0.47465848520E+02  0.29203499970E+01  0.49110557820E+02  0.68523515009E+02  0.47000000000E+01 0.  1.
         11    1    6    6    0    0 -0.18747022728E+02 -0.23156582658E+02  0.64280454822E+01  0.30479467684E+02  0.00000000000E+00 0. -1.
        -12    1    6    6    0    0  0.83184268065E+02 -0.78016191041E+02  0.31566569258E+02  0.11833256869E+03  0.00000000000E+00 0.  1.
</event>
<event>
12    1  0.8421768E-002  0.1899193E+03  0.7818608E-02  0.1159286E+00
         21   -1    0    0  503  502  0.00000000000E+00  0.00000000000E+00  0.11641037559E+04  0.11641037559E+04  0.00000000000E+00 0.  1.
         21   -1    0    0  501  503 -0.00000000000E+00 -0.00000000000E+00 -0.43407736947E+02  0.43407736947E+02  0.00000000000E+00 0.  1.
          6    2    1    2  501    0 -0.15014929390E+02  0.70700551308E+02  0.23391098900E+03  0.30130332889E+03  0.17562838372E+03 0.  0.
         24    2    3    3    0    0 -0.44937538611E+02  0.10739726701E+03  0.15816313361E+03  0.21185032960E+03  0.79444508817E+02 0.  0.
         -6    2    1    2    0  502  0.15014929390E+02 -0.70700551308E+02  0.88678502997E+03  0.90620816397E+03  0.17205095469E+03 0.  0.
        -24    2    5    5    0    0 -0.55603221132E+02 -0.19515453166E+02  0.47690774822E+03  0.48712784524E+03  0.79874690491E+02 0.  0.
          5    1    3    3  501    0  0.29922609221E+02 -0.36696715702E+02  0.75747855384E+02  0.89452999286E+02  0.47000000000E+01 0. -1.
        -13    1    4    4    0    0 -0.57784334381E+02  0.72809168631E+02  0.14585201949E+03  0.17295379708E+03  0.00000000000E+00 0.  1.
         14    1    4    4    0    0  0.12846795769E+02  0.34588098380E+02  0.12311114122E+02  0.38896532519E+02  0.00000000000E+00 0. -1.
         -5    1    5    5    0  502  0.70618150522E+02 -0.51185098143E+02  0.40987728175E+03  0.41908031873E+03  0.47000000000E+01 0.  1.
         13    1    6    6    0    0  0.81054478184E+01 -0.25516252672E+02  0.65294022951E+02  0.70569730536E+02  0.00000000000E+00 0. -1.
        -14    1    6    6    0    0 -0.63708668950E+02  0.60007995066E+01  0.41161372527E+03  0.41655811470E+03  0.00000000000E+00 0.  1.
</event>
<event>
12    1  0.8421768E-002  0.2319109E+03  0.7818608E-02  0.1125457E+00
         21   -1    0    0  501  502  0.00000000000E+00  0.00000000000E+00  0.21513099441E+03  0.21513099441E+03  0.00000000000E+00 0.  1.
         21   -1    0    0  502  503 -0.00000000000E+00 -0.00000000000E+00 -0.25302620802E+03  0.25302620802E+03  0.00000000000E+00 0. -1.
         -6    2    1    2    0  503 -0.15189788802E+03  0.33010593224E+02 -0.48359541384E+02  0.23689933227E+03  0.17210456339E+03 0.  0.
        -24    2    3    3    0    0 -0.46768167794E+02  0.52450411105E+02  0.23694560356E+02  0.10788751820E+03  0.78358006921E+02 0.  0.
          6    2    1    2  501    0  0.15189788802E+03 -0.33010593224E+02  0.10464327770E+02  0.23125787016E+03  0.17090357722E+03 0.  0.
         24    2    5    5    0    0  0.38770566041E+02  0.30635602518E+02  0.32343430779E+02  0.99540694523E+02  0.80128368377E+02 0.  0.
          5    1    5    5  501    0  0.11312732198E+03 -0.63646195742E+02 -0.21879103009E+02  0.13171717564E+03  0.47000000000E+01 0. -1.
        -11    1    6    6    0    0  0.81264535957E+01 -0.26866434975E+02  0.16218058543E+02  0.32417125092E+02  0.00000000000E+00 0.  1.
         12    1    6    6    0    0  0.30644112445E+02  0.57502037493E+02  0.16125372236E+02  0.67123569431E+02  0.00000000000E+00 0. -1.
         -5    1    3    3    0  503 -0.10512972022E+03 -0.19439817881E+02 -0.72054101740E+02  0.12901181408E+03  0.47000000000E+01 0.  1.
         13    1    4    4    0    0  0.15734222283E+02  0.23414476479E+01 -0.12256202788E+02  0.20081400218E+02  0.00000000000E+00 0. -1.
        -14    1    4    4    0    0 -0.62502390077E+02  0.50108963457E+02  0.35950763143E+02  0.87806117980E+02  0.00000000000E+00 0.  1.
</event>
<event>
12    1  0.8421768E-002  0.2039654E+03  0.7818608E-02  0.1146604E+00
         21   -1    0    0  501  502  0.00000000000E+00  0.00000000000E+00  0.45355409554E+03  0.45355409554E+03  0.00000000000E+00 0. -1.
         21   -1    0    0  502  503 -0.00000000000E+00 -0.00000000000E+00 -0.18137493697E+03  0.18137493697E+03  0.00000000000E+00 0.  1.
         -6    2    1    2    0  503  0.10745795821E+03  0.14800721224E+02 -0.87697015505E+02  0.22127127422E+03  0.17176709852E+03 0.  0.
        -24    2    3    3    0    0  0.12223186308E+03  0.27187182000E+02 -0.18134597786E+02  0.14893378301E+03  0.78566130535E+02 0.  0.
          6    2    1    2  501    0 -0.10745795821E+03 -0.14800721224E+02  0.35987617408E+03  0.41365775829E+03  0.17272986480E+03 0.  0.
         24    2    5    5    0    0 -0.27105479395E+02  0.52226485493E+02  0.16175281674E+03  0.18955036882E+03  0.79391786703E+02 0.  0.
          5    1    5    5  501    0 -0.80352478816E+02 -0.67027206718E+02  0.19812335735E+03  0.22410738948E+03  0.47000000000E+01 0. -1.
        -13    1    6    6    0    0 -0.24685511996E+02  0.28282807078E+02  0.14340143359E+02  0.40186208957E+02  0.00000000000E+00 0.  1.
         14    1    6    6    0    0 -0.24199673987E+01  0.23943678415E+02  0.14741267338E+03  0.14936415986E+03  0.00000000000E+00 0. -1.
         -5    1    3    3    0  503 -0.14773904867E+02 -0.12386460775E+02 -0.69562417718E+02  0.72337491209E+02  0.47000000000E+01 0.  1.
         13    1    4    4    0    0 -0.44493708378E+01  0.19777538993E+02 -0.74098354333E+01  0.21583642200E+02  0.00000000000E+00 0. -1.
        -14    1    4    4    0    0  0.12668123392E+03  0.74096430068E+01 -0.10724762353E+02  0.12735014081E+03  0.00000000000E+00 0.  1.
</event>
<event>
12    1  0.8421768E-002  0.2256815E+03  0.7818608E-02  0.1129732E+00
         21   -1    0    0  503  502  0.00000000000E+00  0.00000000000E+00  0.57735721140E+02  0.57735721140E+02  0.00000000000E+00 0. -1.
         21   -1    0    0  501  503 -0.00000000000E+00 -0.00000000000E+00 -0.88483092563E+03  0.88483092563E+03  0.00000000000E+00 0.  1.
          6    2    1    2  501    0  0.77709078285E+02 -0.12373647159E+03 -0.38599451737E+03  0.44708510555E+03  0.17188341662E+03 0.  0.
         24    2    3    3    0    0 -0.80521805281E+01 -0.78643765697E+02 -0.30020129655E+03  0.31758254813E+03  0.66993857413E+02 0.  0.
         -6    2    1    2    0  502 -0.77709078285E+02  0.12373647159E+03 -0.44110068712E+03  0.49548154123E+03  0.17199629726E+03 0.  0.
        -24    2    5    5    0    0  0.82900098620E+01  0.39772543227E+02 -0.14571394845E+03  0.17654393007E+03  0.91019915480E+02 0.  0.
          5    1    3    3  501    0  0.85761258813E+02 -0.45092705893E+02 -0.85793220822E+02  0.12950255741E+03  0.47000000000E+01 0. -1.
        -11    1    4    4    0    0 -0.23730457601E+02 -0.44487483953E+02 -0.82702580888E+02  0.96860661426E+02  0.00000000000E+00 0.  1.
         12    1    4    4    0    0  0.15678277073E+02 -0.34156281744E+02 -0.21749871567E+03  0.22072188671E+03  0.00000000000E+00 0. -1.
         -5    1    5    5    0  502 -0.85999088147E+02  0.83963928364E+02 -0.29538673867E+03  0.31893761116E+03  0.47000000000E+01 0.  1.
         13    1    6    6    0    0  0.20781333196E+02  0.44448218001E+01  0.45036772216E+01  0.21723336731E+02  0.00000000000E+00 0. -1.
        -14    1    6    6    0    0 -0.12491323334E+02  0.35327721426E+02 -0.15021762567E+03  0.15482059334E+03  0.00000000000E+00 0.  1.
</event>
<event>
12    1  0.8421768E-002  0.1991654E+03  0.7818608E-02  0.1150478E+00
         21   -1    0    0  501  502  0.00000000000E+00  0.00000000000E+00  0.37513886559E+02  0.37513886559E+02  0.00000000000E+00 0. -1.
         21   -1    0    0  502  503 -0.00000000000E+00 -0.00000000000E+00 -0.10923080492E+04  0.10923080492E+04  0.00000000000E+00 0. -1.
         -6    2    1    2    0  503  0.10008089748E+03  0.20594324816E+02 -0.42542509102E+03  0.46973756092E+03  0.17095776033E+03 0.  0.
        -24    2    3    3    0    0  0.96128229525E+02  0.74795197857E+02 -0.34359457209E+03  0.37139285058E+03  0.70996206686E+02 0.  0.
          6    2    1    2  501    0 -0.10008089748E+03 -0.20594324816E+02 -0.62936907164E+03  0.66008437486E+03  0.17077951089E+03 0.  0.
         24    2    5    5    0    0 -0.10995823426E+03 -0.61714383219E+02 -0.54162860385E+03  0.56257078261E+03  0.84999191533E+02 0.  0.
          5    1    5    5  501    0  0.98773367774E+01  0.41120058403E+02 -0.87740467794E+02  0.97513592251E+02  0.47000000000E+01 0. -1.
        -11    1    6    6    0    0 -0.19167730295E+02 -0.14567356455E+02 -0.20879040855E+02  0.31867602762E+02  0.00000000000E+00 0.  1.
         12    1    6    6    0    0 -0.90790503965E+02 -0.47147026764E+02 -0.52074956299E+03  0.53070317985E+03  0.00000000000E+00 0. -1.
         -5    1    3    3    0  503  0.39526679567E+01 -0.54200873040E+02 -0.81830518935E+02  0.98344710338E+02  0.47000000000E+01 0.  1.
         11    1    4    4    0    0  0.25774579081E+02  0.53169844417E+02 -0.21755634509E+03  0.22543762900E+03  0.00000000000E+00 0. -1.
        -12    1    4    4    0    0  0.70353650444E+02  0.21625353440E+02 -0.12603822700E+03  0.14595522158E+03  0.00000000000E+00 0.  1.
</event>
<event>
12    1  0.8421768E-002  0.1985121E+03  0.7818608E-02  0.1151039E+00
         21   -1    0    0  503  502  0.00000000000E+00  0.00000000000E+00  0.45454997959E+03  0.45454997959E+03  0.00000000000E+00 0. -1.
         21   -1    0    0  501  503 -0.00000000000E+00 -0.00000000000E+00 -0.91301235213E+02  0.91301235213E+02  0.00000000000E+00 0. -1.
          6    2    1    2  501    0 -0.53606743375E+02 -0.80653675197E+02  0.11972430494E+03  0.23166783952E+03  0.17308200488E+03 0.  0.
         24    2    3    3    0    0 -0.99282850509E+01  0.23257025633E+02  0.36175428736E+02  0.91283559114E+02  0.79903481995E+02 0.  0.
         -6    2    1    2    0  502  0.53606743375E+02  0.80653675197E+02  0.24352443944E+03  0.31418337529E+03  0.17328687904E+03 0.  0.
        -24    2    5    5    0    0  0.40706416900E+02  0.56852874376E+02  0.43017822312E+02  0.11180281779E+03  0.75895160107E+02 0.  0.
          5    1    3    3  501    0 -0.43678458324E+02 -0.10391070083E+03  0.83548876208E+02  0.14038428040E+03  0.47000000000E+01 0. -1.
        -13    1    4    4    0    0 -0.13102902894E+02 -0.20865299290E+02  0.39896309441E+02  0.46890961664E+02  0.00000000000E+00 0.  1.
         14    1    4    4    0    0  0.31746178432E+01  0.44122324924E+02 -0.37208807057E+01  0.44392597450E+02  0.00000000000E+00 0. -1.
         -5    1    5    5    0  502  0.12900326475E+02  0.23800800821E+02  0.20050661712E+03  0.20238055750E+03  0.47000000000E+01 0.  1.
         11    1    6    6    0    0  0.33001090789E+02  0.21759433993E+02 -0.16052112162E+02  0.42663980896E+02  0.00000000000E+00 0. -1.
        -12    1    6    6    0    0  0.77053261102E+01  0.35093440383E+02  0.59069934474E+02  0.69138836894E+02  0.00000000000E+00 0.  1.
</event>
<event>
12    1  0.8421768E-002  0.2026761E+03  0.7818608E-02  0.1147721E+00
         21   -1    0    0  503  502  0.00000000000E+00  0.00000000000E+00  0.24637547430E+03  0.24637547430E+03  0.00000000000E+00 0.  1.
         21   -1    0    0  501  503 -0.00000000000E+00 -0.00000000000E+00 -0.17180129830E+03  0.17180129830E+03  0.00000000000E+00 0.  1.
          6    2    1    2  501    0  0.69213923995E+02  0.80063857606E+02 -0.16968659684E+01  0.20162452907E+03  0.17160647656E+03 0.  0.
         24    2    3    3    0    0  0.92500844208E+02  0.13626302048E+02 -0.34978182417E+02  0.12361193094E+03  0.72899615498E+02 0.  0.
         -6    2    1    2    0  502 -0.69213923995E+02 -0.80063857606E+02  0.76271041966E+02  0.21655224354E+03  0.17284910694E+03 0.  0.
        -24    2    5    5    0    0  0.47912755804E+01 -0.30883066878E+02  0.90373133397E+02  0.12646074159E+03  0.82754430587E+02 0.  0.
          5    1    3    3  501    0 -0.23286920213E+02  0.66437555558E+02  0.33281316448E+02  0.78012598124E+02  0.47000000000E+01 0. -1.
        -11    1    4    4    0    0  0.36180015823E+02  0.29080447033E+02  0.12805536357E+02  0.48152338531E+02  0.00000000000E+00 0.  1.
         12    1    4    4    0    0  0.56320828385E+02 -0.15454144985E+02 -0.47783718774E+02  0.75459592412E+02  0.00000000000E+00 0. -1.
         -5    1    5    5    0  502 -0.74005199575E+02 -0.49180790727E+02 -0.14102091432E+02  0.90091501949E+02  0.47000000000E+01 0.  1.
         13    1    6    6    0    0 -0.30020640187E+02  0.72276085076E+01  0.13119497446E+02  0.33549938528E+02  0.00000000000E+00 0. -1.
        -14    1    6    6    0    0  0.34811915768E+02 -0.38110675386E+02  0.77253635952E+02  0.92910803062E+02  0.00000000000E+00 0.  1.
</event>
<event>
12    1  0.8421768E-002  0.2724936E+03  0.7818608E-02  0.1099956E+00
         21   -1    0    0  503  502  0.00000000000E+00  0.00000000000E+00  0.46594632095E+03  0.46594632095E+03  0.00000000000E+00 0. -1.
         21   -1    0    0  501  503 -0.00000000000E+00 -0.00000000000E+00 -0.18297302482E+03  0.18297302482E+03  0.00000000000E+00 0. -1.
          6    2    1    2  501    0 -0.18869559818E+03  0.91682851932E+02  0.24116617377E+02  0.27355867253E+03  0.17389928686E+03 0.  0.
         24    2    3    3    0    0 -0.10129867782E+03  0.75329851807E+02  0.79250313149E+02  0.16883304668E+03  0.79296764208E+02 0.  0.
         -6    2    1    2    0  502  0.18869559818E+03 -0.91682851932E+02  0.25885667875E+03  0.37536067324E+03  0.17284987929E+03 0.  0.
        -24    2    5    5    0    0  0.19882874224E+03 -0.59569464497E+02  0.17247351586E+03  0.28252699890E+03  0.83624168704E+02 0.  0.
          5    1    3    3  501    0 -0.87396920363E+02  0.16353000125E+02 -0.55133695772E+02  0.10472562586E+03  0.47000000000E+01 0. -1.
        -13    1    4    4    0    0 -0.77504590002E+02  0.77118249893E+02  0.28861908243E+02  0.11308048322E+03  0.00000000000E+00 0.  1.
         14    1    4    4    0    0 -0.23794087820E+02 -0.17883980858E+01  0.50388404905E+02  0.55752563455E+02  0.00000000000E+00 0. -1.
         -5    1    5    5    0  502 -0.10133144058E+02 -0.32113387436E+02  0.86383162887E+02  0.92833674340E+02  0.47000000000E+01 0.  1.
         11    1    6    6    0    0  0.18615639775E+03 -0.75213604536E+02  0.16825698080E+03  0.26195744372E+03  0.00000000000E+00 0. -1.
        -12    1    6    6    0    0  0.12672344495E+02  0.15644140040E+02  0.42165350625E+01  0.20569555185E+02  0.00000000000E+00 0.  1.
</event>
<event>
12    1  0.8421768E-002  0.2198516E+03  0.7818608E-02  0.1136661E+00
         21   -1    0    0  503  502  0.00000000000E+00  0.00000000000E+00  0.29225803178E+03  0.29225803178E+03  0.00000000000E+00 0. -1.
         21   -1    0    0  501  503 -0.00000000000E+00 -0.00000000000E+00 -0.19865139993E+03  0.19865139993E+03  0.00000000000E+00 0.  1.
          6    2    1    2  501    0  0.46828083051E+02  0.10354334561E+03 -0.66818291002E+02  0.22978126610E+03  0.18820375250E+03 0.  0.
         24    2    3    3    0    0 -0.35044339877E+02  0.10937682766E+03 -0.24728089577E+02  0.13741894583E+03  0.71281779390E+02 0.  0.
         -6    2    1    2    0  502 -0.46828083051E+02 -0.10354334561E+03  0.16042492285E+03  0.26112816561E+03  0.17186526473E+03 0.  0.
        -24    2    5    5    0    0 -0.73412450749E+02 -0.10158843927E+02  0.10190301527E+03  0.14766320438E+03  0.76990956430E+02 0.  0.
          5    1    3    3  501    0  0.81872422928E+02 -0.58334820538E+01 -0.42090201425E+02  0.92362320266E+02  0.47000000000E+01 0. -1.
        -13    1    4    4    0    0 -0.42430027860E+02  0.85564020398E+02 -0.44723400624E+02  0.10545943018E+03  0.00000000000E+00 0.  1.
         14    1    4    4    0    0  0.73856879837E+01  0.23812807266E+02  0.19995311047E+02  0.31959515653E+02  0.00000000000E+00 0. -1.
         -5    1    5    5    0  502  0.26584367697E+02 -0.93384501683E+02  0.58521907578E+02  0.11346496123E+03  0.47000000000E+01 0.  1.
         11    1    6    6    0    0 -0.18721382111E+02  0.20664298648E+02  0.73779624451E+02  0.78872912783E+02  0.00000000000E+00 0. -1.
        -12    1    6    6    0    0 -0.54691068637E+02 -0.30823142575E+02  0.28123390819E+02  0.68790291597E+02  0.00000000000E+00 0.  1.
</event>
<event>
12    1  0.8421768E-002  0.1757196E+03  0.7818608E-02  0.1172625E+00
         21   -1    0    0  501  502  0.00000000000E+00  0.00000000000E+00  0.98248461634E+03  0.98248461634E+03  0.00000000000E+00 0. -1.
         21   -1    0    0  502  503 -0.00000000000E+00 -0.00000000000E+00 -0.33741408206E+02  0.33741408206E+02  0.00000000000E+00 0. -1.
         -6    2    1    2    0  503  0.10960286504E+02 -0.25131343924E+02  0.61633982271E+03  0.64023479771E+03  0.17109677616E+03 0.  0.
        -24    2    3    3    0    0  0.50340442064E+02 -0.47390987324E+02  0.54885619510E+03  0.55885655509E+03  0.79356540268E+02 0.  0.
          6    2    1    2  501    0 -0.10960286504E+02  0.25131343924E+02  0.33240338542E+03  0.37599122683E+03  0.17356750758E+03 0.  0.
         24    2    5    5    0    0 -0.63742594824E+02 -0.19196381296E+01  0.27574228969E+03  0.29383103287E+03  0.78968741607E+02 0.  0.
          5    1    5    5  501    0  0.52782308320E+02  0.27050982054E+02  0.56661095729E+02  0.82160193956E+02  0.47000000000E+01 0. -1.
        -11    1    6    6    0    0 -0.17823903654E+02 -0.31869588920E+02  0.52462247862E+02  0.63919087057E+02  0.00000000000E+00 0.  1.
         12    1    6    6    0    0 -0.45918691170E+02  0.29949950790E+02  0.22328004183E+03  0.22991194582E+03  0.00000000000E+00 0. -1.
         -5    1    3    3    0  503 -0.39380155560E+02  0.22259643399E+02  0.67483627612E+02  0.81378242619E+02  0.47000000000E+01 0.  1.
         13    1    4    4    0    0  0.14724186385E+02 -0.63191939209E+02  0.38515826172E+03  0.39058534204E+03  0.00000000000E+00 0. -1.
        -14    1    4    4    0    0  0.35616255679E+02  0.15800951885E+02  0.16369793338E+03  0.16827121306E+03  0.00000000000E+00 0.  1.
</event>
<event>
12    1  0.8421768E-002  0.1943585E+03  0.7818608E-02  0.1155284E+00
         21   -1    0    0  503  502  0.00000000000E+00  0.00000000000E+00  0.36864087447E+03  0.36864087447E+03  0.00000000000E+00 0.  1.
         21   -1    0    0  501  503 -0.00000000000E+00 -0.00000000000E+00 -0.19450576315E+04  0.19450576315E+04  0.00000000000E+00 0.  1.
          6    2    1    2  501    0  0.75632776172E+02 -0.45316517789E+02 -0.19150090829E+04  0.19248467500E+04  0.17320889034E+03 0.  0.
         24    2    3    3    0    0  0.74144006040E+02 -0.81677378039E+02 -0.10153285783E+04  0.10244182803E+04  0.79825831943E+02 0.  0.
         -6    2    1    2    0  502 -0.75632776172E+02  0.45316517789E+02  0.33859232594E+03  0.38885175592E+03  0.16966738425E+03 0.  0.
        -24    2    5    5    0    0 -0.79878070022E+02  0.79433229037E+02  0.32151940039E+03  0.35017944938E+03  0.80998629581E+02 0.  0.
          5    1    3    3  501    0  0.14887701327E+01  0.36360860250E+02 -0.89968050463E+03  0.90042846968E+03  0.47000000000E+01 0. -1.
        -13    1    4    4    0    0  0.10986802837E+02 -0.71320054868E+02 -0.54087901348E+03  0.54567148293E+03  0.00000000000E+00 0.  1.
         14    1    4    4    0    0  0.63157203203E+02 -0.10357323171E+02 -0.47444956481E+03  0.47874679739E+03  0.00000000000E+00 0. -1.
         -5    1    5    5    0  502  0.42452938496E+01 -0.34116711247E+02  0.17072925552E+02  0.38672306540E+02  0.47000000000E+01 0.  1.
         13    1    6    6    0    0 -0.27928389391E+02  0.70397454267E+01  0.18264523043E+02  0.34104922689E+02  0.00000000000E+00 0. -1.
        -14    1    6    6    0    0 -0.51949680631E+02  0.72393483610E+02  0.30325487735E+03  0.31607452669E+03  0.00000000000E+00 0.  1.
</event>
<event>
12    1  0.8421768E-002  0.1932815E+03  0.7818608E-02  0.1155568E+00
         21   -1    0    0  501  502  0.00000000000E+00  0.00000000000E+00  0.10766630473E+03  0.10766630473E+03  0.00000000000E+00 0. -1.
         21   -1    0    0  502  503 -0.00000000000E+00 -0.00000000000E+00 -0.75926356158E+03  0.75926356158E+03  0.00000000000E+00 0.  1.
         -6    2    1    2    0  503 -0.78582760365E+02 -0.37049701915E+02 -0.64537853454E+03  0.67369963306E+03  0.17265518266E+03 0.  0.
        -24    2    3    3    0    0 -0.13121591806E+02 -0.70106042171E+02 -0.48643446454E+03  0.49859054246E+03  0.82987995660E+02 0.  0.
          6    2    1    2  501    0  0.78582760365E+02  0.37049701915E+02 -0.62187223082E+01  0.19323023324E+03  0.17248570924E+03 0.  0.
         24    2    5    5    0    0  0.68752198670E+02  0.40824666494E+01 -0.65464989737E+02  0.12455936061E+03  0.80534701075E+02 0.  0.
          5    1    5    5  501    0  0.98305616944E+01  0.32967235266E+02  0.59246267428E+02  0.68670872635E+02  0.47000000000E+01 0. -1.
        -11    1    6    6    0    0  0.55053039380E+02 -0.30460868446E+02 -0.20386332843E+02  0.66138522952E+02  0.00000000000E+00 0.  1.
         12    1    6    6    0    0  0.13699159290E+02  0.34543335095E+02 -0.45078656893E+02  0.58420837653E+02  0.00000000000E+00 0. -1.
         -5    1    3    3    0  503 -0.65461168559E+02  0.33056340256E+02 -0.15894407001E+03  0.17510909060E+03  0.47000000000E+01 0.  1.
         11    1    4    4    0    0 -0.40746046266E+02 -0.58357544103E+02 -0.23991186511E+03  0.25024697053E+03  0.00000000000E+00 0. -1.
        -12    1    4    4    0    0  0.27624454460E+02 -0.11748498068E+02 -0.24652259943E+03  0.24834357193E+03  0.00000000000E+00 0.  1.
</event>
<event>
12    1  0.8421768E-002  0.2155985E+03  0.7818608E-02  0.1137326E+00
         21   -1    0    0  503  502  0.00000000000E+00  0.00000000000E+00  0.61349223355E+03  0.61349223355E+03  0.00000000000E+00 0.  1.
         21   -1    0    0  501  503 -0.00000000000E+00 -0.00000000000E+00 -0.23257894913E+03  0.23257894913E+03  0.00000000000E+00 0.  1.
          6    2    1    2  501    0 -0.45784041198E+02 -0.12031242702E+03 -0.15723211470E+03  0.26634435867E+03  0.17218048954E+03 0.  0.
         24    2    3    3    0    0  0.19761216814E+02 -0.11552831365E+03 -0.73676242411E+02  0.15993598314E+03  0.80087658616E+02 0.  0.
         -6    2    1    2    0  502  0.45784041198E+02  0.12031242702E+03  0.53814539912E+03  0.57972682400E+03  0.17294930282E+03 0.  0.
        -24    2    5    5    0    0  0.74431539193E+02  0.38936758917E+02  0.40250719953E+03  0.41890863570E+03  0.80101648963E+02 0.  0.
          5    1    3    3  501    0 -0.65545258012E+02 -0.47841133706E+01 -0.83555872292E+02  0.10640837553E+03  0.47000000000E+01 0. -1.
        -13    1    4    4    0    0 -0.26416917891E+02 -0.72043489331E+02 -0.52855578964E+02  0.93176338914E+02  0.00000000000E+00 0.  1.
         14    1    4    4    0    0  0.46178134705E+02 -0.43484824323E+02 -0.20820663447E+02  0.66759644230E+02  0.00000000000E+00 0. -1.
         -5    1    5    5    0  502 -0.28647497995E+02  0.81375668108E+02  0.13563819959E+03  0.16081818831E+03  0.47000000000E+01 0.  1.
         13    1    6    6    0    0  0.28431845444E+02  0.32420415645E+02  0.63651095519E+02  0.76882476201E+02  0.00000000000E+00 0. -1.
        -14    1    6    6    0    0  0.45999693749E+02  0.65163432723E+01  0.33885610401E+03  0.34202615950E+03  0.00000000000E+00 0.  1.
</event>
<event>
12    1  0.8421768E-002  0.2476236E+03  0.7818608E-02  0.1115560E+00
         21   -1    0    0  501  502  0.00000000000E+00  0.00000000000E+00  0.43948256201E+03  0.43948256201E+03  0.00000000000E+00 0. -1.
         21   -1    0    0  502  503 -0.00000000000E+00 -0.00000000000E+00 -0.14032469932E+03  0.14032469932E+03  0.00000000000E+00 0. -1.
         -6    2    1    2    0  503  0.79811974161E+02  0.15864171823E+03  0.10317424659E+03  0.26401138069E+03  0.16589134393E+03 0.  0.
        -24    2    3    3    0    0 -0.90560876554E+01  0.97876484383E+02  0.52722885138E+02  0.14502660886E+03  0.92688703415E+02 0.  0.
          6    2    1    2  501    0 -0.79811974161E+02 -0.15864171823E+03  0.19598361610E+03  0.31579588064E+03  0.17256973797E+03 0.  0.
         24    2    5    5    0    0 -0.10641339251E+02 -0.29551736040E+02  0.12282350807E+03  0.15201770247E+03  0.83888166786E+02 0.  0.
          5    1    5    5  501    0 -0.69170634910E+02 -0.12908998219E+03  0.73160108036E+02  0.16377817817E+03  0.47000000000E+01 0. -1.
        -13    1    6    6    0    0 -0.20683231725E+01  0.34354495635E+01 -0.12156666971E+02  0.12800969741E+02  0.00000000000E+00 0.  1.
         14    1    6    6    0    0 -0.85730160783E+01 -0.32987185604E+02  0.13498017504E+03  0.13921673273E+03  0.00000000000E+00 0. -1.
         -5    1    3    3    0  503  0.88868061816E+02  0.60765233847E+02  0.50451361453E+02  0.11898477183E+03  0.47000000000E+01 0.  1.
         13    1    4    4    0    0  0.24344264200E+01  0.10077936385E+03  0.70958449363E+02  0.12327817384E+03  0.00000000000E+00 0. -1.
        -14    1    4    4    0    0 -0.11490514075E+02 -0.29028794700E+01 -0.18235564224E+02  0.21748435013E+02  0.00000000000E+00 0.  1.
</event>
<event>
12    1  0.8421768E-002  0.1880458E+03  0.7818608E-02  0.1160922E+00
         21   -1    0    0  503  502  0.00000000000E+00  0.00000000000E+00  0.79724970234E+03  0.79724970234E+03  0.00000000000E+00 0.  1.
         21   -1    0    0  501  503 -0.00000000000E+00 -0.00000000000E+00 -0.67022361321E+02  0.67022361321E+02  0.00000000000E+00 0.  1.
          6    2    1    2  501    0  0.19587463059E+02  0.72319742512E+02  0.11185176943E+03  0.21879676734E+03  0.17247432622E+03 0.  0.
         24    2    3    3    0    0 -0.20382237628E+02  0.46394988952E+02  0.13584670951E+03  0.16524756595E+03  0.79274831804E+02 0.  0.
         -6    2    1    2    0  502 -0.19587463059E+02 -0.72319742512E+02  0.61837557159E+03  0.64547529633E+03  0.16922232938E+03 0.  0.
        -24    2    5    5    0    0  0.41786488692E+02 -0.30333487513E+02  0.47572739966E+03  0.48453991017E+03  0.76132349610E+02 0.  0.
          5    1    3    3  501    0  0.39969700687E+02  0.25924753560E+02 -0.23994940076E+02  0.53549201389E+02  0.47000000000E+01 0. -1.
        -11    1    4    4    0    0  0.20932839249E+02  0.45028227347E+02  0.52800419107E+02  0.72481785815E+02  0.00000000000E+00 0.  1.
         12    1    4    4    0    0 -0.41315076877E+02  0.13667616053E+01  0.83046290401E+02  0.92765780135E+02  0.00000000000E+00 0. -1.
         -5    1    5    5    0  502 -0.61373951752E+02 -0.41986254999E+02  0.14264817193E+03  0.16093538615E+03  0.47000000000E+01 0.  1.
         13    1    6    6    0    0  0.44984530999E+02  0.13944909155E+02  0.21957426082E+03  0.22456830705E+03  0.00000000000E+00 0. -1.
        -14    1    6    6    0    0 -0.31980423064E+01 -0.44278396668E+02  0.25615313885E+03  0.25997160312E+03  0.00000000000E+00 0.  1.
</event>
<event>
12    1  0.8421768E-002  0.2349629E+03  0.7818608E-02  0.1124006E+00
         21   -1    0    0  501  502  0.00000000000E+00  0.00000000000E+00  0.18049814848E+03  0.18049814848E+03  0.00000000000E+00 0. -1.
         21   -1    0    0  502  503 -0.00000000000E+00 -0.00000000000E+00 -0.29979125036E+03  0.29979125036E+03  0.00000000000E+00 0.  1.
         -6    2    1    2    0  503  0.11777994809E+03 -0.98754458038E+02 -0.60907821153E+02  0.24272889796E+03  0.17771605463E+03 0.  0.
        -24    2    3    3    0    0  0.14294793208E+02 -0.69419908008E+02  0.20278075313E+02  0.10788479207E+03  0.78768415508E+02 0.  0.
          6    2    1    2  501    0 -0.11777994809E+03  0.98754458038E+02 -0.58385280729E+02  0.23756050089E+03  0.17146892261E+03 0.  0.
         24    2    5    5    0    0 -0.53064339111E+01  0.37688068213E+02 -0.85693116882E+02  0.10661317073E+03  0.50739621270E+02 0.  0.
          5    1    5    5  501    0 -0.11247351418E+03  0.61066389825E+02  0.27307836154E+02  0.13094733015E+03  0.47000000000E+01 0. -1.
        -13    1    6    6    0    0  0.13411992844E+02 -0.31455242469E+01 -0.40978599356E+02  0.43232181070E+02  0.00000000000E+00 0.  1.
         14    1    6    6    0    0 -0.18718426755E+02  0.40833592460E+02 -0.44714517526E+02  0.63380989665E+02  0.00000000000E+00 0. -1.
         -5    1    3    3    0  503  0.10348515488E+03 -0.29334550029E+02 -0.81185896466E+02  0.13484410589E+03  0.47000000000E+01 0.  1.
         13    1    4    4    0    0  0.27692308957E+02 -0.60920735789E+02 -0.15548762123E+02  0.68701994352E+02  0.00000000000E+00 0. -1.
        -14    1    4    4    0    0 -0.13397515749E+02 -0.84991722198E+01  0.35826837436E+02  0.39182797722E+02  0.00000000000E+00 0.  1.
</event>
<event>
12    1  0.8421768E-002  0.1738254E+03  0.7818608E-02  0.1174355E+00
         21   -1    0    0  501  502  0.00000000000E+00  0.00000000000E+00  0.48418102799E+02  0.48418102799E+02  0.00000000000E+00 0. -1.
         21   -1    0    0  502  503 -0.00000000000E+00 -0.00000000000E+00 -0.62421399612E+03  0.62421399612E+03  0.00000000000E+00 0. -1.
         -6    2    1    2    0  503 -0.11620236826E+02 -0.14256449254E+02 -0.25260462536E+03  0.30566088275E+03  0.17111751005E+03 0.  0.
        -24    2    3    3    0    0 -0.60075507617E+01 -0.38821146321E+02 -0.26317499174E+03  0.27793455533E+03  0.80270596750E+02 0.  0.
          6    2    1    2  501    0  0.11620236826E+02  0.14256449254E+02 -0.32319126796E+03  0.36697121616E+03  0.17284965015E+03 0.  0.
         24    2    5    5    0    0 -0.60546295534E+02  0.10319659909E+02 -0.20161495723E+03  0.22545656662E+03  0.80060746755E+02 0.  0.
          5    1    5    5  501    0  0.72166532360E+02  0.39367893451E+01 -0.12157631074E+03  0.14151464954E+03  0.47000000000E+01 0. -1.
        -13    1    6    6    0    0  0.16827392999E+02  0.10751987710E+02 -0.21066837528E+02  0.29027194806E+02  0.00000000000E+00 0.  1.
         14    1    6    6    0    0 -0.77373688533E+02 -0.43232780141E+00 -0.18054811970E+03  0.19642937181E+03  0.00000000000E+00 0. -1.
         -5    1    3    3    0  503 -0.56126860646E+01  0.24564697067E+02  0.10570366382E+02  0.27726327422E+02  0.47000000000E+01 0.  1.
         13    1    4    4    0    0  0.16903716155E+02  0.52029486730E+01 -0.18152615870E+03  0.18238572473E+03  0.00000000000E+00 0. -1.
        -14    1    4    4    0    0 -0.22911266916E+02 -0.44024094994E+02 -0.81648833040E+02  0.95548830597E+02  0.00000000000E+00 0.  1.
</event>
<event>
12    1  0.8421768E-002  0.2214773E+03  0.7818608E-02  0.1132963E+00
         21   -1    0    0  501  502  0.00000000000E+00  0.00000000000E+00  0.40742285620E+03  0.40742285620E+03  0.00000000000E+00 0.  1.
         21   -1    0    0  502  503 -0.00000000000E+00 -0.00000000000E+00 -0.12392927748E+03  0.12392927748E+03  0.00000000000E+00 0. -1.
         -6    2    1    2    0  503 -0.92277358671E+02  0.10242959241E+03  0.18948073541E+03  0.29074746987E+03  0.17211684931E+03 0.  0.
        -24    2    3    3    0    0 -0.10015834050E+03  0.22232761301E+02  0.71555286350E+02  0.14784140585E+03  0.78809475523E+02 0.  0.
          6    2    1    2  501    0  0.92277358671E+02 -0.10242959241E+03  0.94012843305E+02  0.24060466381E+03  0.17333567785E+03 0.  0.
         24    2    5    5    0    0 -0.79291131475E+01 -0.23942345994E+02 -0.35622531782E+01  0.80153505202E+02  0.75998605128E+02 0.  0.
          5    1    5    5  501    0  0.10020647182E+03 -0.78487246419E+02  0.97575096483E+02  0.16045115861E+03  0.47000000000E+01 0. -1.
        -13    1    6    6    0    0 -0.14462572854E+02 -0.32141274850E+02  0.29190590281E+02  0.45763720603E+02  0.00000000000E+00 0.  1.
         14    1    6    6    0    0  0.65334597065E+01  0.81989288557E+01 -0.32752843459E+02  0.34389784599E+02  0.00000000000E+00 0. -1.
         -5    1    3    3    0  503  0.78809818309E+01  0.80196831113E+02  0.11792544907E+03  0.14290606402E+03  0.47000000000E+01 0.  1.
         11    1    4    4    0    0 -0.67121804912E+02 -0.24816721448E+02  0.34503261126E+02  0.79446091071E+02  0.00000000000E+00 0. -1.
        -12    1    4    4    0    0 -0.33036535590E+02  0.47049482749E+02  0.37052025224E+02  0.68395314780E+02  0.00000000000E+00 0.  1.
</event>
<event>
12    1  0.8421768E-002  0.1834620E+03  0.7818608E-02  0.1164597E+00
         21   -1    0    0  503  502  0.00000000000E+00  0.00000000000E+00  0.26236669540E+03  0.26236669540E+03  0.00000000000E+00 0.  1.
         21   -1    0    0  501  503 -0.00000000000E+00 -0.00000000000E+00 -0.13892232619E+03  0.13892232619E+03  0.00000000000E+00 0. -1.
          6    2    1    2  501    0 -0.31364450006E+02  0.52942516361E+02  0.53505705808E+01  0.18310456823E+03  0.17237173648E+03 0.  0.
         24    2    3    3    0    0 -0.70426172491E+02 -0.10245356476E+02 -0.96220475155E+01  0.10717832290E+03  0.79560015087E+02 0.  0.
         -6    2    1    2    0  502  0.31364450006E+02 -0.52942516361E+02  0.11809379862E+03  0.21818445336E+03  0.17283423171E+03 0.  0.
        -24    2    5    5    0    0  0.23820965165E+02 -0.20275501534E+02 -0.86968613454E+01  0.86951837457E+02  0.80662582999E+02 0.  0.
          5    1    3    3  501    0  0.39061722485E+02  0.63187872836E+02  0.14972618096E+02  0.75926245329E+02  0.47000000000E+01 0. -1.
        -11    1    4    4    0    0 -0.35989471845E+02 -0.23042296068E+02  0.30708916129E+02  0.52623445550E+02  0.00000000000E+00 0.  1.
         12    1    4    4    0    0 -0.34436700646E+02  0.12796939593E+02 -0.40330963645E+02  0.54554877352E+02  0.00000000000E+00 0. -1.
         -5    1    5    5    0  502  0.75434848408E+01 -0.32667014827E+02  0.12679065997E+03  0.13123261590E+03  0.47000000000E+01 0.  1.
         11    1    6    6    0    0  0.21118100041E+02 -0.51245200815E+02 -0.52631169614E+01  0.55675355015E+02  0.00000000000E+00 0. -1.
        -12    1    6    6    0    0  0.27028651249E+01  0.30969699281E+02 -0.34337443840E+01  0.31276482442E+02  0.00000000000E+00 0.  1.
</event>
<event>
12    1  0.8421768E-002  0.1765306E+03  0.7818608E-02  0.1171435E+00
         21   -1    0    0  503  502  0.00000000000E+00  0.00000000000E+00  0.18591294415E+03  0.18591294415E+03  0.00000000000E+00 0. -1.
         21   -1    0    0  501  503 -0.00000000000E+00 -0.00000000000E+00 -0.33774620447E+03  0.33774620447E+03  0.00000000000E+00 0. -1.
          6    2    1    2  501    0 -0.33365488660E+02  0.72426967246E+01 -0.26232131170E+03  0.31618903580E+03  0.17319735361E+03 0.  0.
         24    2    3    3    0    0 -0.73063249364E+02 -0.38861288868E+02 -0.18519817384E+03  0.21784495573E+03  0.79433135154E+02 0.  0.
         -6    2    1    2    0  502  0.33365488660E+02 -0.72426967246E+01  0.11048805137E+03  0.20747011283E+03  0.17225134464E+03 0.  0.
        -24    2    5    5    0    0  0.48345566114E+02 -0.66885959666E+02  0.83232512223E+02  0.14004106902E+03  0.76634356244E+02 0.  0.
          5    1    3    3  501    0  0.39697760704E+02  0.46103985593E+02 -0.77123137853E+02  0.98344080069E+02  0.47000000000E+01 0. -1.
        -11    1    4    4    0    0 -0.39598985983E+02 -0.59920812854E+02 -0.92840044525E+02  0.11737911812E+03  0.00000000000E+00 0.  1.
         12    1    4    4    0    0 -0.33464263380E+02  0.21059523986E+02 -0.92358129318E+02  0.10046583760E+03  0.00000000000E+00 0. -1.
         -5    1    5    5    0  502 -0.14980077455E+02  0.59643262941E+02  0.27255539151E+02  0.67429043811E+02  0.47000000000E+01 0.  1.
         11    1    6    6    0    0  0.64267380335E+02 -0.28606399189E+02  0.44074263051E+02  0.83013028575E+02  0.00000000000E+00 0. -1.
        -12    1    6    6    0    0 -0.15921814220E+02 -0.38279560477E+02  0.39158249172E+02  0.57028040441E+02  0.00000000000E+00 0.  1.
</event>
<event>
12    1  0.8421768E-002  0.1723062E+03  0.7818608E-02  0.1175672E+00
         21   -1    0    0  501  502  0.00000000000E+00  0.00000000000E+00  0.22555678422E+03  0.22555678422E+03  0.00000000000E+00 0. -1.
         21   -1    0    0  502  503 -0.00000000000E+00 -0.00000000000E+00 -0.49206152036E+03  0.49206152036E+03  0.00000000000E+00 0. -1.
         -6    2    1    2    0  503 -0.89394111257E+01  0.39866632825E+01 -0.44052268679E+03  0.47272718602E+03  0.17121608650E+03 0.  0.
        -24    2    3    3    0    0  0.56212963981E+02  0.21859561883E+02 -0.22162381582E+03  0.24359168419E+03  0.81129865684E+02 0.  0.
          6    2    1    2  501    0  0.89394111257E+01 -0.39866632825E+01  0.17401795064E+03  0.24489111856E+03  0.17202792287E+03 0.  0.
         24    2    5    5    0    0 -0.31872241251E+01  0.30279693986E+02  0.18758591905E+03  0.20580891942E+03  0.79005164512E+02 0.  0.
          5    1    5    5  501    0  0.12126635251E+02 -0.34266357268E+02 -0.13567968408E+02  0.39082199141E+02  0.47000000000E+01 0. -1.
        -13    1    6    6    0    0  0.27833212168E+02 -0.92506560502E+01  0.37960934942E+02  0.47971813794E+02  0.00000000000E+00 0.  1.
         14    1    6    6    0    0 -0.31020436293E+02  0.39530350036E+02  0.14962498411E+03  0.15783710562E+03  0.00000000000E+00 0. -1.
         -5    1    3    3    0  503 -0.65152375106E+02 -0.17872898600E+02 -0.21889887097E+03  0.22913550183E+03  0.47000000000E+01 0.  1.
         11    1    4    4    0    0  0.32222675250E+02  0.45123897943E+02 -0.75370978812E+02  0.93569500441E+02  0.00000000000E+00 0. -1.
        -12    1    4    4    0    0  0.23990288730E+02 -0.23264336060E+02 -0.14625283701E+03  0.15002218375E+03  0.00000000000E+00 0.  1.
</event>
<event>
12    1  0.8421768E-002  0.1806797E+03  0.7818608E-02  0.1167405E+00
         21   -1    0    0  501  502  0.00000000000E+00  0.00000000000E+00  0.69950770440E+02  0.69950770440E+02  0.00000000000E+00 0. -1.
         21   -1    0    0  502  503 -0.00000000000E+00 -0.00000000000E+00 -0.56831296134E+03  0.56831296134E+03  0.00000000000E+00 0. -1.
         -6    2    1    2    0  503 -0.52841321741E+02 -0.10359917576E+02 -0.38534542242E+03  0.42514890663E+03  0.17135041598E+03 0.  0.
        -24    2    3    3    0    0 -0.90159632786E+02 -0.86043111125E+00 -0.35803554159E+03  0.37770613929E+03  0.79642820690E+02 0.  0.
          6    2    1    2  501    0  0.52841321741E+02  0.10359917576E+02 -0.11301676848E+03  0.21311482515E+03  0.17246914381E+03 0.  0.
         24    2    5    5    0    0  0.83627004387E+02  0.53223666382E+02 -0.97844130730E+02  0.15800259280E+03  0.74599670836E+02 0.  0.
          5    1    5    5  501    0 -0.30785682646E+02 -0.42863748806E+02 -0.15172637753E+02  0.55112232345E+02  0.47000000000E+01 0. -1.
        -11    1    6    6    0    0 -0.14052821607E+02  0.36681496660E+01 -0.11995956349E+02  0.18837199521E+02  0.00000000000E+00 0.  1.
         12    1    6    6    0    0  0.97679825994E+02  0.49555516716E+02 -0.85848174382E+02  0.13916539328E+03  0.00000000000E+00 0. -1.
         -5    1    3    3    0  503  0.37318311045E+02 -0.94994864648E+01 -0.27309880825E+02  0.47442767342E+02  0.47000000000E+01 0.  1.
         11    1    4    4    0    0 -0.61523139508E+02 -0.12151455952E+02 -0.10136041155E+03  0.11919181015E+03  0.00000000000E+00 0. -1.
        -12    1    4    4    0    0 -0.28636493278E+02  0.11291024840E+02 -0.25667513004E+03  0.25851432914E+03  0.00000000000E+00 0.  1.
</event>
<event>
12    1  0.8421768E-002  0.1916194E+03  0.7818608E-02  0.1157044E+00
         21   -1    0    0  501  502  0.00000000000E+00  0.00000000000E+00  0.69327929295E+02  0.69327929295E+02  0.00000000000E+00 0. -1.
         21   -1    0    0  502  503 -0.00000000000E+00 -0.00000000000E+00 -0.17648597715E+04  0.17648597715E+04  0.00000000000E+00 0. -1.
         -6    2    1    2    0  503 -0.21119213485E+02  0.81545484491E+02 -0.16152459352E+04  0.16265722923E+04  0.17211131174E+03 0.  0.
        -24    2    3    3    0    0 -0.20729287862E+01  0.78433556148E+02 -0.15923708876E+04  0.15962770309E+04  0.79367474662E+02 0.  0.
          6    2    1    2  501    0  0.21119213485E+02 -0.81545484491E+02 -0.80285906962E+02  0.20761540847E+03  0.17193790669E+03 0.  0.
         24    2    5    5    0    0 -0.52777766943E+02 -0.51830236419E+02 -0.67351154357E+02  0.12678745842E+03  0.77891049088E+02 0.  0.
          5    1    5    5  501    0  0.73896980428E+02 -0.29715248072E+02 -0.12934752605E+02  0.80827950050E+02  0.47000000000E+01 0. -1.
        -13    1    6    6    0    0 -0.34879239214E+02  0.19293434841E+01 -0.60302542805E+02  0.69689887094E+02  0.00000000000E+00 0.  1.
         14    1    6    6    0    0 -0.17898527729E+02 -0.53759579903E+02 -0.70486115520E+01  0.57097571323E+02  0.00000000000E+00 0. -1.
         -5    1    3    3    0  503 -0.19046284699E+02  0.31119283430E+01 -0.22875047667E+02  0.30295261421E+02  0.47000000000E+01 0.  1.
         13    1    4    4    0    0 -0.11565247555E+02  0.90320742178E+02 -0.11325897363E+04  0.11362442969E+04  0.00000000000E+00 0. -1.
        -14    1    4    4    0    0  0.94923187686E+01 -0.11887186030E+02 -0.45978115125E+03  0.46003273400E+03  0.00000000000E+00 0.  1.
</event>
<event>
12    1  0.8421768E-002  0.2761356E+03  0.7818608E-02  0.1098300E+00
         21   -1    0    0  501  502  0.00000000000E+00  0.00000000000E+00  0.38216619669E+03  0.38216619669E+03  0.00000000000E+00 0. -1.
         21   -1    0    0  502  503 -0.00000000000E+00 -0.00000000000E+00 -0.33105050616E+03  0.33105050616E+03  0.00000000000E+00 0.  1.
         -6    2    1    2    0  503 -0.10650001430E+03 -0.18306248445E+03 -0.20142150255E+03  0.33901632073E+03  0.17177694191E+03 0.  0.
        -24    2    3    3    0    0 -0.14362684469E+03 -0.15645769308E+03 -0.16264980841E+03  0.27892014178E+03  0.78954449368E+02 0.  0.
          6    2    1    2  501    0  0.10650001430E+03  0.18306248445E+03  0.25253719309E+03  0.37420038212E+03  0.17719132548E+03 0.  0.
         24    2    5    5    0    0  0.17876278842E+02  0.19620041327E+02  0.43646813320E+02  0.94513272189E+02  0.79518594932E+02 0.  0.
          5    1    5    5  501    0  0.88623735462E+02  0.16344244313E+03  0.20889037977E+03  0.27968710993E+03  0.47000000000E+01 0. -1.
        -11    1    6    6    0    0  0.80548444028E+00  0.48181760737E+02  0.14620163191E+02  0.50357522225E+02  0.00000000000E+00 0.  1.
         12    1    6    6    0    0  0.17070794401E+02 -0.28561719410E+02  0.29026650129E+02  0.44155749963E+02  0.00000000000E+00 0. -1.
         -5    1    3    3    0  503  0.37126830382E+02 -0.26604791374E+02 -0.38771694145E+02  0.60096178956E+02  0.47000000000E+01 0.  1.
         11    1    4    4    0    0 -0.68758729541E+02 -0.41235092336E+02 -0.23943379330E+02  0.83674256147E+02  0.00000000000E+00 0. -1.
        -12    1    4    4    0    0 -0.74868115146E+02 -0.11522260074E+03 -0.13870642908E+03  0.19524588563E+03  0.00000000000E+00 0.  1.
</event>
<event>
12    1  0.8421768E-002  0.2620883E+03  0.7818608E-02  0.1105966E+00
         21   -1    0    0  501  502  0.00000000000E+00  0.00000000000E+00  0.17722060628E+04  0.17722060628E+04  0.00000000000E+00 0. -1.
         21   -1    0    0  502  503 -0.00000000000E+00 -0.00000000000E+00 -0.39877754444E+02  0.39877754444E+02  0.00000000000E+00 0.  1.
         -6    2    1    2    0  503  0.17706442380E+03  0.87641320981E+02  0.70896432183E+03  0.75569177299E+03  0.17148421158E+03 0.  0.
        -24    2    3    3    0    0  0.11952497956E+03  0.12079002921E+03  0.41440418527E+03  0.45370271930E+03  0.72380085885E+02 0.  0.
          6    2    1    2  501    0 -0.17706442380E+03 -0.87641320981E+02  0.10233639865E+04  0.10563920443E+04  0.17221350389E+03 0.  0.
         24    2    5    5    0    0 -0.15628522357E+02 -0.13420866631E+02  0.27339228902E+03  0.28564574152E+03  0.80160935495E+02 0.  0.
          5    1    5    5  501    0 -0.16143590144E+03 -0.74220454351E+02  0.74997169752E+03  0.77074630275E+03  0.47000000000E+01 0. -1.
        -11    1    6    6    0    0 -0.69521957739E+01  0.14709327187E+02  0.24223691166E+03  0.24278265733E+03  0.00000000000E+00 0.  1.
         12    1    6    6    0    0 -0.86763265835E+01 -0.28130193817E+02  0.31155377361E+02  0.42863084183E+02  0.00000000000E+00 0. -1.
         -5    1    3    3    0  503  0.57539444240E+02 -0.33148708232E+02  0.29456013656E+03  0.30198905369E+03  0.47000000000E+01 0.  1.
         11    1    4    4    0    0  0.51603025885E+02  0.60000338412E+02  0.10711199452E+03  0.13317617002E+03  0.00000000000E+00 0. -1.
        -12    1    4    4    0    0  0.67921953677E+02  0.60789690802E+02  0.30729219075E+03  0.32052654928E+03  0.00000000000E+00 0.  1.
</event>
<event>
12    1  0.8421768E-002  0.2217183E+03  0.7818608E-02  0.1133120E+00
         21   -1    0    0  501  502  0.00000000000E+00  0.00000000000E+00  0.65876862546E+03  0.65876862546E+03  0.00000000000E+00 0.  1.
         21   -1    0    0  502  503 -0.00000000000E+00 -0.00000000000E+00 -0.77730955387E+02  0.77730955387E+02  0.00000000000E+00 0.  1.
         -6    2    1    2    0  503 -0.63441524899E+02 -0.12130531536E+03  0.20836460735E+03  0.30426107873E+03  0.17441097389E+03 0.  0.
        -24    2    3    3    0    0 -0.43421854105E+02 -0.91466566461E+02  0.22912141842E+03  0.26249897437E+03  0.78469720085E+02 0.  0.
          6    2    1    2  501    0  0.63441524899E+02  0.12130531536E+03  0.37267306272E+03  0.43223850212E+03  0.17089500993E+03 0.  0.
         24    2    5    5    0    0  0.69044045615E+02  0.14366679876E+03  0.24815322754E+03  0.30551556208E+03  0.79702603695E+02 0.  0.
          5    1    5    5  501    0 -0.56025207160E+01 -0.22361483395E+02  0.12451983518E+03  0.12672294004E+03  0.47000000000E+01 0. -1.
        -13    1    6    6    0    0  0.21912468949E+02  0.79770845494E+01  0.84997345352E+02  0.88138180661E+02  0.00000000000E+00 0.  1.
         14    1    6    6    0    0  0.47131576666E+02  0.13568971421E+03  0.16315588219E+03  0.21737738142E+03  0.00000000000E+00 0. -1.
         -5    1    3    3    0  503 -0.20019670794E+02 -0.29838748903E+02 -0.20756811070E+02  0.41762104360E+02  0.47000000000E+01 0.  1.
         11    1    4    4    0    0 -0.41430757672E+02 -0.10137503037E+03  0.22719264213E+03  0.25221003371E+03  0.00000000000E+00 0. -1.
        -12    1    4    4    0    0 -0.19910964325E+01  0.99084639065E+01  0.19287762929E+01  0.10288940664E+02  0.00000000000E+00 0.  1.
</event>
<event>
12    1  0.8421768E-002  0.2869879E+03  0.7818608E-02  0.1092033E+00
         21   -1    0    0  503  502  0.00000000000E+00  0.00000000000E+00  0.72065099605E+03  0.72065099605E+03  0.00000000000E+00 0. -1.
         21   -1    0    0  501  503 -0.00000000000E+00 -0.00000000000E+00 -0.15067196031E+03  0.15067196031E+03  0.00000000000E+00 0.  1.
          6    2    1    2  501    0  0.22943319164E+03  0.10195529791E+02  0.70303260959E+02  0.29547352330E+03  0.17210030860E+03 0.  0.
         24    2    3    3    0    0  0.15617274203E+03  0.58509571972E+02  0.89088059156E+02  0.20560529315E+03  0.80768551556E+02 0.  0.
         -6    2    1    2    0  502 -0.22943319164E+03 -0.10195529791E+02  0.49967577478E+03  0.57584943306E+03  0.17083076832E+03 0.  0.
        -24    2    5    5    0    0 -0.16906607177E+03 -0.48319692628E+02  0.44723530604E+03  0.48713791343E+03  0.79785953771E+02 0.  0.
          5    1    3    3  501    0  0.73260449605E+02 -0.48314042182E+02 -0.18784798196E+02  0.89868230157E+02  0.47000000000E+01 0. -1.
        -11    1    4    4    0    0  0.11129048318E+02 -0.12580485315E+02 -0.63872351249E+01  0.17970005558E+02  0.00000000000E+00 0.  1.
         12    1    4    4    0    0  0.14504369371E+03  0.71090057287E+02  0.95475294280E+02  0.18763528759E+03  0.00000000000E+00 0. -1.
         -5    1    5    5    0  502 -0.60367119866E+02  0.38124162837E+02  0.52440468740E+02  0.88711519628E+02  0.47000000000E+01 0.  1.
         11    1    6    6    0    0  0.65062063784E+01 -0.65973969719E+01  0.49743452764E+02  0.50599085576E+02  0.00000000000E+00 0. -1.
        -12    1    6    6    0    0 -0.17557227815E+03 -0.41722295656E+02  0.39749185327E+03  0.43653882786E+03  0.00000000000E+00 0.  1.
</event>
<event>
12    1  0.8421768E-002  0.2143706E+03  0.7818608E-02  0.1138432E+00
         21   -1    0    0  503  502  0.00000000000E+00  0.00000000000E+00  0.18380687149E+03  0.18380687149E+03  0.00000000000E+00 0. -1.
         21   -1    0    0  501  503 -0.00000000000E+00 -0.00000000000E+00 -0.30031292193E+03  0.30031292193E+03  0.00000000000E+00 0. -1.
          6    2    1    2  501    0 -0.43088930851E+02  0.11471459286E+03  0.42294466086E+02  0.21850301837E+03  0.17589386970E+03 0.  0.
         24    2    3    3    0    0 -0.85939099640E+02  0.10145816259E+03 -0.17895314340E+01  0.15543671400E+03  0.80486533242E+02 0.  0.
         -6    2    1    2    0  502  0.43088930851E+02 -0.11471459286E+03 -0.15880051652E+03  0.26561677505E+03  0.17412229428E+03 0.  0.
        -24    2    5    5    0    0 -0.31307422165E+02 -0.19277006211E+02 -0.48049215238E+02  0.10150982510E+03  0.81509262389E+02 0.  0.
          5    1    3    3  501    0  0.42850168789E+02  0.13256430265E+02  0.44083997520E+02  0.63066304363E+02  0.47000000000E+01 0. -1.
        -13    1    4    4    0    0 -0.49792610640E+02  0.16845034308E+02 -0.28279053655E+02  0.59688894535E+02  0.00000000000E+00 0.  1.
         14    1    4    4    0    0 -0.36146489000E+02  0.84613128286E+02  0.26489522221E+02  0.95747819468E+02  0.00000000000E+00 0. -1.
         -5    1    5    5    0  502  0.74396353016E+02 -0.95437586647E+02 -0.11075130129E+03  0.16410694995E+03  0.47000000000E+01 0.  1.
         13    1    6    6    0    0  0.18600690303E+02  0.33655310935E+01 -0.42390675871E+02  0.46414242211E+02  0.00000000000E+00 0. -1.
        -14    1    6    6    0    0 -0.49908112468E+02 -0.22642537305E+02 -0.56585393670E+01  0.55095582886E+02  0.00000000000E+00 0.  1.
</event>
<event>
12    1  0.8421768E-002  0.1749187E+03  0.7818608E-02  0.1173041E+00
         21   -1    0    0  501  502  0.00000000000E+00  0.00000000000E+00  0.12368872892E+04  0.12368872892E+04  0.00000000000E+00 0. -1.
         21   -1    0    0  502  503 -0.00000000000E+00 -0.00000000000E+00 -0.49944444924E+02  0.49944444924E+02  0.00000000000E+00 0. -1.
         -6    2    1    2    0  503 -0.13144318458E+02  0.14450845363E+02  0.13597003617E+03  0.22154997944E+03  0.17382445920E+03 0.  0.
        -24    2    3    3    0    0  0.39834508542E+02 -0.38943298388E+02  0.54378100478E+02  0.11047781971E+03  0.78390064909E+02 0.  0.
          6    2    1    2  501    0  0.13144318458E+02 -0.14450845363E+02  0.10509728081E+04  0.10652817547E+04  0.17291550954E+03 0.  0.
         24    2    5    5    0    0  0.58628367380E+01  0.58781817453E+02  0.49693808967E+03  0.50636082815E+03  0.77227899139E+02 0.  0.
          5    1    5    5  501    0  0.72814817200E+01 -0.73232662816E+02  0.55403471843E+03  0.55892092652E+03  0.47000000000E+01 0. -1.
        -11    1    6    6    0    0 -0.20427327041E+02 -0.46099317248E+01  0.50359831799E+02  0.54540258702E+02  0.00000000000E+00 0.  1.
         12    1    6    6    0    0  0.26290163779E+02  0.63391749178E+02  0.44657825787E+03  0.45182056945E+03  0.00000000000E+00 0. -1.
         -5    1    3    3    0  503 -0.52978827000E+02  0.53394143751E+02  0.81591935687E+02  0.11107215973E+03  0.47000000000E+01 0.  1.
         13    1    4    4    0    0  0.31586502024E+02  0.18206811039E+01 -0.10567206567E+02  0.33356975949E+02  0.00000000000E+00 0. -1.
        -14    1    4    4    0    0  0.82480065176E+01 -0.40763979492E+02  0.64945307045E+02  0.77120843763E+02  0.00000000000E+00 0.  1.
</event>
<event>
12    1  0.8421768E-002  0.1870561E+03  0.7818608E-02  0.1162436E+00
         21   -1    0    0  501  502  0.00000000000E+00  0.00000000000E+00  0.68880260096E+02  0.68880260096E+02  0.00000000000E+00 0. -1.
         21   -1    0    0  502  503 -0.00000000000E+00 -0.00000000000E+00 -0.49363373187E+03  0.49363373187E+03  0.00000000000E+00 0. -1.
         -6    2    1    2    0  503  0.71511188409E+02  0.11276073001E+01 -0.19978057140E+03  0.26993443809E+03  0.16684484587E+03 0.  0.
        -24    2    3    3    0    0  0.72857000971E+02  0.33158461284E+02 -0.20766434163E+03  0.23658731451E+03  0.80258659691E+02 0.  0.
          6    2    1    2  501    0 -0.71511188409E+02 -0.11276073001E+01 -0.22497290038E+03  0.29257955388E+03  0.17284347797E+03 0.  0.
         24    2    5    5    0    0 -0.19032094731E+02  0.60730151738E+02 -0.94341771004E+02  0.13873866338E+03  0.79357891860E+02 0.  0.
          5    1    5    5  501    0 -0.52479093678E+02 -0.61857759038E+02 -0.13063112938E+03  0.15384089050E+03  0.47000000000E+01 0. -1.
        -11    1    6    6    0    0 -0.20565348552E+01 -0.93183096676E+00 -0.70418600619E+02  0.70454786620E+02  0.00000000000E+00 0.  1.
         12    1    6    6    0    0 -0.16975559876E+02  0.61661982705E+02 -0.23923170385E+02  0.68283876761E+02  0.00000000000E+00 0. -1.
         -5    1    3    3    0  503 -0.13458125612E+01 -0.32030853984E+02  0.78837702337E+01  0.33347123586E+02  0.47000000000E+01 0.  1.
         13    1    4    4    0    0  0.38503773626E+02  0.13012928156E+02 -0.21050062040E+02  0.45770973275E+02  0.00000000000E+00 0. -1.
        -14    1    4    4    0    0  0.34353227345E+02  0.20145533128E+02 -0.18661427959E+03  0.19081634123E+03  0.00000000000E+00 0.  1.
</event>
<event>
12    1  0.8421768E-002  0.1829760E+03  0.7818608E-02  0.1165562E+00
         21   -1    0    0  501  502  0.00000000000E+00  0.00000000000E+00  0.68109388634E+02  0.68109388634E+02  0.00000000000E+00 0.  1.
         21   -1    0    0  502  503 -0.00000000000E+00 -0.00000000000E+00 -0.56850217035E+03  0.56850217035E+03  0.00000000000E+00 0.  1.
         -6    2    1    2    0  503 -0.13883972712E+02  0.51151080973E+02 -0.37386721138E+03  0.41624142500E+03  0.17513147734E+03 0.  0.
        -24    2    3    3    0    0 -0.38753044919E+02  0.26790723044E+02 -0.88805902789E+02  0.12902384642E+03  0.80877210896E+02 0.  0.
          6    2    1    2  501    0  0.13883972712E+02 -0.51151080973E+02 -0.12652557034E+03  0.22037013399E+03  0.17246761499E+03 0.  0.
         24    2    5    5    0    0 -0.80799180403E+01 -0.56196426112E+02 -0.15415952042E+03  0.18440357728E+03  0.83762749455E+02 0.  0.
          5    1    5    5  501    0  0.21963890752E+02  0.50453451386E+01  0.27633950077E+02  0.35966556707E+02  0.47000000000E+01 0. -1.
        -13    1    6    6    0    0 -0.64708887987E+01 -0.54494843132E+02 -0.34714905699E+02  0.64936007019E+02  0.00000000000E+00 0.  1.
         14    1    6    6    0    0 -0.16090292416E+01 -0.17015829792E+01 -0.11944461472E+03  0.11946757026E+03  0.00000000000E+00 0. -1.
         -5    1    3    3    0  503  0.24869072207E+02  0.24360357929E+02 -0.28506130859E+03  0.28721757858E+03  0.47000000000E+01 0.  1.
         11    1    4    4    0    0 -0.62278739578E+02  0.98514446305E+01 -0.49384080490E+02  0.80090447437E+02  0.00000000000E+00 0. -1.
        -12    1    4    4    0    0  0.23525694659E+02  0.16939278414E+02 -0.39421822299E+02  0.48933398980E+02  0.00000000000E+00 0.  1.
</event>
<event>
12    1  0.8421768E-002  0.1790595E+03  0.7818608E-02  0.1169301E+00
         21   -1    0    0  503  502  0.00000000000E+00  0.00000000000E+00  0.38556147151E+03  0.38556147151E+03  0.00000000000E+00 0.  1.
         21   -1    0    0  501  503 -0.00000000000E+00 -0.00000000000E+00 -0.83181949133E+03  0.83181949133E+03  0.00000000000E+00 0.  1.
          6    2    1    2  501    0  0.22377872403E+02  0.32640984203E+02 -0.80116408379E+03  0.82093008108E+03  0.17463134268E+03 0.  0.
         24    2    3    3    0    0  0.45373518347E+02 -0.41448350227E+02 -0.49629423154E+03  0.50631007851E+03  0.79153075969E+02 0.  0.
         -6    2    1    2    0  502 -0.22377872403E+02 -0.32640984203E+02  0.35490606397E+03  0.39645088176E+03  0.17218822370E+03 0.  0.
        -24    2    5    5    0    0 -0.49321267227E+02 -0.49521079434E+02  0.12339012924E+03  0.16271470104E+03  0.79787375149E+02 0.  0.
          5    1    3    3  501    0 -0.22995645943E+02  0.74089334430E+02 -0.30486985225E+03  0.31462000257E+03  0.47000000000E+01 0. -1.
        -13    1    4    4    0    0  0.11465246352E+02  0.12986096747E+02 -0.28431073995E+03  0.28483800209E+03  0.00000000000E+00 0.  1.
         14    1    4    4    0    0  0.33908271994E+02 -0.54434446974E+02 -0.21198349159E+03  0.22147207642E+03  0.00000000000E+00 0. -1.
         -5    1    5    5    0  502  0.26943394824E+02  0.16880095231E+02  0.23151593473E+03  0.23373618071E+03  0.47000000000E+01 0.  1.
         13    1    6    6    0    0 -0.80010602845E+00 -0.52175130420E+02  0.38306918223E+02  0.64732560491E+02  0.00000000000E+00 0. -1.
        -14    1    6    6    0    0 -0.48521161198E+02  0.26540509863E+01  0.85083211012E+02  0.97982140550E+02  0.00000000000E+00 0.  1.
</event>
<event>
12    1  0.8421768E-002  0.1847567E+03  0.7818608E-02  0.1163330E+00
         21   -1    0    0  501  502  0.00000000000E+00  0.00000000000E+00  0.14661751177E+04  0.14661751177E+04  0.00000000000E+00 0. -1.
         21   -1    0    0  502  503 -0.00000000000E+00 -0.00000000000E+00 -0.86841714877E+02  0.86841714877E+02  0.00000000000E+00 0. -1.
         -6    2    1    2    0  503  0.50608999256E+02 -0.40012108402E+02  0.25091837383E+02  0.18623035722E+03  0.17288697470E+03 0.  0.
        -24    2    3    3    0    0  0.42911815474E+02 -0.92288341752E+02  0.28746724218E+02  0.13305612089E+03  0.80740294914E+02 0.  0.
          6    2    1    2  501    0 -0.50608999256E+02  0.40012108402E+02  0.13542415654E+04  0.13667864753E+04  0.17312657806E+03 0.  0.
         24    2    5    5    0    0 -0.85153992326E+02  0.19862917071E+02  0.61515241152E+03  0.62660121888E+03  0.81060842736E+02 0.  0.
          5    1    5    5  501    0  0.34544993070E+02  0.20149191331E+02  0.73908915389E+03  0.74018525644E+03  0.47000000000E+01 0. -1.
        -11    1    6    6    0    0 -0.61430399892E+02 -0.22709072409E+02  0.26006998522E+03  0.26818984547E+03  0.00000000000E+00 0.  1.
         12    1    6    6    0    0 -0.23723592435E+02  0.42571989480E+02  0.35508242630E+03  0.35841137342E+03  0.00000000000E+00 0. -1.
         -5    1    3    3    0  503  0.76971837825E+01  0.52276233349E+02 -0.36548868343E+01  0.53174236329E+02  0.47000000000E+01 0.  1.
         13    1    4    4    0    0  0.47493043553E+02 -0.13426350731E+02  0.11119346243E+01  0.49366916842E+02  0.00000000000E+00 0. -1.
        -14    1    4    4    0    0 -0.45812280791E+01 -0.78861991021E+02  0.27634789593E+02  0.83689204049E+02  0.00000000000E+00 0.  1.
</event>
<event>
12    1  0.8421768E-002  0.2355182E+03  0.7818608E-02  0.1123071E+00
         21   -1    0    0  501  502  0.00000000000E+00  0.00000000000E+00  0.46621467467E+02  0.46621467467E+02  0.00000000000E+00 0.  1.
         21   -1    0    0  502  503 -0.00000000000E+00 -0.00000000000E+00 -0.13776449287E+04  0.13776449287E+04  0.00000000000E+00 0.  1.
         -6    2    1    2    0  503 -0.85941529043E+02  0.13448166013E+03 -0.93553040747E+03  0.96472065584E+03  0.17319797108E+03 0.  0.
        -24    2    3    3    0    0 -0.89403477295E+02  0.16092084138E+03 -0.71147320547E+03  0.73903340508E+03  0.78024052542E+02 0.  0.
          6    2    1    2  501    0  0.85941529043E+02 -0.13448166013E+03 -0.39549305380E+03  0.45954574036E+03  0.17116152767E+03 0.  0.
         24    2    5    5    0    0  0.70398182931E+02 -0.10317296874E+03 -0.14761950398E+03  0.20917558146E+03  0.79764279523E+02 0.  0.
          5    1    5    5  501    0  0.15543346112E+02 -0.31308691392E+02 -0.24787354983E+03  0.25037015890E+03  0.47000000000E+01 0. -1.
        -13    1    6    6    0    0  0.74683514156E+01 -0.79387171351E+02 -0.93126398397E+02  0.12259945076E+03  0.00000000000E+00 0.  1.
         14    1    6    6    0    0  0.62929831516E+02 -0.23785797385E+02 -0.54493105581E+02  0.86576130704E+02  0.00000000000E+00 0. -1.
         -5    1    3    3    0  503  0.34619482521E+01 -0.26439181248E+02 -0.22405720200E+03  0.22568725077E+03  0.47000000000E+01 0.  1.
         11    1    4    4    0    0 -0.81223477110E+01  0.60287228779E+02 -0.13268002064E+03  0.14596064662E+03  0.00000000000E+00 0. -1.
        -12    1    4    4    0    0 -0.81281129584E+02  0.10063361260E+03 -0.57879318484E+03  0.59307275846E+03  0.00000000000E+00 0.  1.
</event>
<event>
12    1  0.8421768E-002  0.1953913E+03  0.7818608E-02  0.1153883E+00
         21   -1    0    0  501  502  0.00000000000E+00  0.00000000000E+00  0.15345222215E+03  0.15345222215E+03  0.00000000000E+00 0.  1.
         21   -1    0    0  502  503 -0.00000000000E+00 -0.00000000000E+00 -0.31791866899E+03  0.31791866899E+03  0.00000000000E+00 0.  1.
         -6    2    1    2    0  503 -0.92605115752E+02 -0.43071297719E+01 -0.19318523527E+03  0.27476953970E+03  0.17199856392E+03 0.  0.
        -24    2    3    3    0    0 -0.74963058925E+02 -0.12940802064E+02 -0.21723939749E+03  0.24336133717E+03  0.79024426899E+02 0.  0.
          6    2    1    2  501    0  0.92605115752E+02  0.43071297719E+01  0.28718788426E+02  0.19660135143E+03  0.17097679300E+03 0.  0.
         24    2    5    5    0    0  0.10242306851E+03  0.55646481251E+02  0.28087750894E+02  0.14411697838E+03  0.79961027183E+02 0.  0.
          5    1    5    5  501    0 -0.98179527569E+01 -0.51339351479E+02  0.63103753134E+00  0.52484373055E+02  0.47000000000E+01 0. -1.
        -13    1    6    6    0    0  0.10289673422E+03  0.54745492727E+02  0.54472825164E+00  0.11655515268E+03  0.00000000000E+00 0.  1.
         14    1    6    6    0    0 -0.47366571237E+00  0.90098852375E+00  0.27543022643E+02  0.27561825698E+02  0.00000000000E+00 0. -1.
         -5    1    3    3    0  503 -0.17642056827E+02  0.86336722923E+01  0.24054162218E+02  0.31408202532E+02  0.47000000000E+01 0.  1.
         13    1    4    4    0    0  0.71916334794E+00  0.24778414615E+02 -0.57638511604E+02  0.62743007951E+02  0.00000000000E+00 0. -1.
        -14    1    4    4    0    0 -0.75682222273E+02 -0.37719216679E+02 -0.15960088588E+03  0.18061832922E+03  0.00000000000E+00 0.  1.
</event>
<event>
12    1  0.8421768E-002  0.2195051E+03  0.7818608E-02  0.1134527E+00
         21   -1    0    0  501  502  0.00000000000E+00  0.00000000000E+00  0.29500420670E+03  0.29500420670E+03  0.00000000000E+00 0. -1.
         21   -1    0    0  502  503 -0.00000000000E+00 -0.00000000000E+00 -0.17066309997E+03  0.17066309997E+03  0.00000000000E+00 0.  1.
         -6    2    1    2    0  503 -0.10865989738E+03  0.79617947504E+02  0.10647419595E+02  0.21976313758E+03  0.17331035235E+03 0.  0.
        -24    2    3    3    0    0 -0.11601579297E+03  0.96655940994E+01  0.17182590203E+02  0.14896596672E+03  0.91337450738E+02 0.  0.
          6    2    1    2  501    0  0.10865989738E+03 -0.79617947504E+02  0.11369368714E+03  0.24590416909E+03  0.17145441091E+03 0.  0.
         24    2    5    5    0    0  0.77557804773E+02 -0.11895022473E+03  0.62925876231E+02  0.17439312924E+03  0.79302765283E+02 0.  0.
          5    1    5    5  501    0  0.31102092604E+02  0.39332277229E+02  0.50767810911E+02  0.71511039854E+02  0.47000000000E+01 0. -1.
        -13    1    6    6    0    0  0.28031016146E+02 -0.10191322235E+03  0.22094230557E+02  0.10798239569E+03  0.00000000000E+00 0.  1.
         14    1    6    6    0    0  0.49526788627E+02 -0.17037002386E+02  0.40831645674E+02  0.66410733549E+02  0.00000000000E+00 0. -1.
         -5    1    3    3    0  503  0.73558955892E+01  0.69952353405E+02 -0.65351706079E+01  0.70797170859E+02  0.47000000000E+01 0.  1.
         11    1    4    4    0    0 -0.80594076445E+02  0.30450427332E+02  0.47068301095E+02  0.98173614840E+02  0.00000000000E+00 0. -1.
        -12    1    4    4    0    0 -0.35421716522E+02 -0.20784833233E+02 -0.29885710892E+02  0.50792351879E+02  0.00000000000E+00 0.  1.
</event>
<event>
12    1  0.8421768E-002  0.2099783E+03  0.7818608E-02  0.1141781E+00
         21   -1    0    0  501  502  0.00000000000E+00  0.00000000000E+00  0.11747950444E+03  0.11747950444E+03  0.00000000000E+00 0. -1.
         21   -1    0    0  502  503 -0.00000000000E+00 -0.00000000000E+00 -0.50015690196E+03  0.50015690196E+03  0.00000000000E+00 0. -1.
         -6    2    1    2    0  503  0.52711822970E+02 -0.10611906058E+03 -0.34706438089E+03  0.40564095177E+03  0.17335254822E+03 0.  0.
        -24    2    3    3    0    0 -0.77495030968E+01 -0.27391682123E+01 -0.21022757441E+03  0.22373609834E+03  0.76122603841E+02 0.  0.
          6    2    1    2  501    0 -0.52711822970E+02  0.10611906058E+03 -0.35613016629E+02  0.21199545462E+03  0.17214527158E+03 0.  0.
         24    2    5    5    0    0 -0.85859176944E+02  0.24172025032E+02 -0.14078645599E+02  0.12089176180E+03  0.80377389536E+02 0.  0.
          5    1    5    5  501    0  0.33147353974E+02  0.81947035549E+02 -0.21534371030E+02  0.91103692826E+02  0.47000000000E+01 0. -1.
        -13    1    6    6    0    0 -0.13554245191E+01  0.27794534956E+02  0.14797205509E+02  0.31517148347E+02  0.00000000000E+00 0.  1.
         14    1    6    6    0    0 -0.84503752425E+02 -0.36225099233E+01 -0.28875851108E+02  0.89374613450E+02  0.00000000000E+00 0. -1.
         -5    1    3    3    0  503  0.60461326067E+02 -0.10337989237E+03 -0.13683680647E+03  0.18190485343E+03  0.47000000000E+01 0.  1.
         11    1    4    4    0    0 -0.24172498903E+02  0.46591254285E+01 -0.17584600961E+02  0.30252856789E+02  0.00000000000E+00 0. -1.
        -12    1    4    4    0    0  0.16422995806E+02 -0.73982936408E+01 -0.19264297345E+03  0.19348324155E+03  0.00000000000E+00 0.  1.
</event>
<event>
12    1  0.8421768E-002  0.1905209E+03  0.7818608E-02  0.1158215E+00
         21   -1    0    0  503  502  0.00000000000E+00  0.00000000000E+00  0.38123297687E+03  0.38123297687E+03  0.00000000000E+00 0. -1.
         21   -1    0    0  501  503 -0.00000000000E+00 -0.00000000000E+00 -0.16709715793E+03  0.16709715793E+03  0.00000000000E+00 0.  1.
          6    2    1    2  501    0  0.66507635448E+02 -0.43371301141E+02 -0.73529230413E+02  0.20329478197E+03  0.17209847564E+03 0.  0.
         24    2    3    3    0    0  0.65480631746E+02 -0.24894542919E+02 -0.11648494119E+03  0.15628703347E+03  0.77132638404E+02 0.  0.
         -6    2    1    2    0  502 -0.66507635448E+02  0.43371301141E+02  0.28766504936E+03  0.34503535283E+03  0.17318740932E+03 0.  0.
        -24    2    5    5    0    0  0.27177849873E+02  0.30706570448E+02  0.19560544738E+03  0.21299586677E+03  0.73649298877E+02 0.  0.
          5    1    3    3  501    0  0.10270037017E+01 -0.18476758221E+02  0.42955710774E+02  0.47007748500E+02  0.47000000000E+01 0. -1.
        -11    1    4    4    0    0  0.70963145624E+02 -0.43029096711E+02 -0.80491231164E+02  0.11561189167E+03  0.00000000000E+00 0.  1.
         12    1    4    4    0    0 -0.54825138779E+01  0.18134553792E+02 -0.35993710023E+02  0.40675141805E+02  0.00000000000E+00 0. -1.
         -5    1    5    5    0  502 -0.93685485321E+02  0.12664730692E+02  0.92059601979E+02  0.13203948606E+03  0.47000000000E+01 0.  1.
         11    1    6    6    0    0  0.28622287531E+02  0.53752118489E+02  0.14962625126E+03  0.16154423744E+03  0.00000000000E+00 0. -1.
        -12    1    6    6    0    0 -0.14444376574E+01 -0.23045548041E+02  0.45979196121E+02  0.51451629329E+02  0.00000000000E+00 0.  1.
</event>
<event>
12    1  0.8421768E-002  0.3030631E+03  0.7818608E-02  0.1083973E+00
         21   -1    0    0  503  502  0.00000000000E+00  0.00000000000E+00  0.10515596893E+04  0.10515596893E+04  0.00000000000E+00 0.  1.
         21   -1    0    0  501  503 -0.00000000000E+00 -0.00000000000E+00 -0.37024313716E+03  0.37024313716E+03  0.00000000000E+00 0. -1.
          6    2    1    2  501    0 -0.40461248276E+02 -0.24612442541E+03 -0.28113255749E+03  0.41337969734E+03  0.17214213283E+03 0.  0.
         24    2    3    3    0    0 -0.44190692434E+02 -0.19519042923E+03 -0.12430652288E+03  0.24838067961E+03  0.78668477886E+02 0.  0.
         -6    2    1    2    0  502  0.40461248276E+02  0.24612442541E+03  0.96244910959E+03  0.10084231291E+04  0.16850689402E+03 0.  0.
        -24    2    5    5    0    0 -0.84093444153E+01  0.37976140302E+02  0.28102356841E+03  0.29422644638E+03  0.77987508227E+02 0.  0.
          5    1    3    3  501    0  0.37294441585E+01 -0.50933996181E+02 -0.15682603461E+03  0.16499901773E+03  0.47000000000E+01 0. -1.
        -13    1    4    4    0    0 -0.59329367737E+02 -0.12980570287E+03 -0.10889244408E+03  0.17951896488E+03  0.00000000000E+00 0.  1.
         14    1    4    4    0    0  0.15138675302E+02 -0.65384726354E+02 -0.15414078808E+02  0.68861714731E+02  0.00000000000E+00 0. -1.
         -5    1    5    5    0  502  0.48870592691E+02  0.20814828511E+03  0.68142554118E+03  0.71419668271E+03  0.47000000000E+01 0.  1.
         13    1    6    6    0    0  0.22596520610E+02  0.38768628918E+01  0.24337903991E+02  0.33436004251E+02  0.00000000000E+00 0. -1.
        -14    1    6    6    0    0 -0.31005865025E+02  0.34099277410E+02  0.25668566442E+03  0.26079044212E+03  0.00000000000E+00 0.  1.
</event>
<event>
12    1  0.8421768E-002  0.1762791E+03  0.7818608E-02  0.1172060E+00
         21   -1    0    0  503  502  0.00000000000E+00  0.00000000000E+00  0.22752553780E+03  0.22752553780E+03  0.00000000000E+00 0.  1.
         21   -1    0    0  501  503 -0.00000000000E+00 -0.00000000000E+00 -0.13948578172E+03  0.13948578172E+03  0.00000000000E+00 0.  1.
          6    2    1    2  501    0  0.76253406811E+01 -0.30342386647E+02  0.97554387907E+01  0.17413113770E+03  0.17101952603E+03 0.  0.
         24    2    3    3    0    0 -0.17667262789E+01 -0.12966713943E+02 -0.60770025469E+02  0.10074138342E+03  0.79275300985E+02 0.  0.
         -6    2    1    2    0  502 -0.76253406811E+01  0.30342386647E+02  0.78284317297E+02  0.19288018182E+03  0.17348061551E+03 0.  0.
        -24    2    5    5    0    0  0.45052303344E+02  0.61995742429E+02  0.42342021909E+02  0.12153028546E+03  0.84282746453E+02 0.  0.
          5    1    3    3  501    0  0.93920669600E+01 -0.17375672704E+02  0.70525464259E+02  0.73389754276E+02  0.47000000000E+01 0. -1.
        -11    1    4    4    0    0  0.17147198601E+02 -0.37681504169E+02 -0.55399997276E+02  0.69159828473E+02  0.00000000000E+00 0.  1.
         12    1    4    4    0    0 -0.18913924879E+02  0.24714790226E+02 -0.53700281926E+01  0.31581554950E+02  0.00000000000E+00 0. -1.
         -5    1    5    5    0  502 -0.52677644025E+02 -0.31653355783E+02  0.35942295388E+02  0.71349896357E+02  0.47000000000E+01 0.  1.
         11    1    6    6    0    0  0.40812187958E+02 -0.83687322872E+01  0.55958372086E+01  0.42035505946E+02  0.00000000000E+00 0. -1.
        -12    1    6    6    0    0  0.42401153857E+01  0.70364474716E+02  0.36746184700E+02  0.79494779518E+02  0.00000000000E+00 0.  1.
</event>
<event>
12    1  0.8421768E-002  0.2046174E+03  0.7818608E-02  0.1146165E+00
         21   -1    0    0  503  502  0.00000000000E+00  0.00000000000E+00  0.10706492795E+03  0.10706492795E+03  0.00000000000E+00 0. -1.
         21   -1    0    0  501  503 -0.00000000000E+00 -0.00000000000E+00 -0.58129624388E+03  0.58129624388E+03  0.00000000000E+00 0. -1.
          6    2    1    2  501    0  0.10757195911E+03 -0.88642540240E+01 -0.43578111902E+03  0.48142855197E+03  0.17383315441E+03 0.  0.
         24    2    3    3    0    0  0.13017921121E+03 -0.29254039322E+02 -0.26109370579E+03  0.30404587656E+03  0.80445919757E+02 0.  0.
         -6    2    1    2    0  502 -0.10757195911E+03  0.88642540240E+01 -0.38450196922E+02  0.20693261986E+03  0.17231479952E+03 0.  0.
        -24    2    5    5    0    0 -0.49552514813E+01  0.56209844404E+01  0.26307286161E+02  0.85456988158E+02  0.80960938338E+02 0.  0.
          5    1    3    3  501    0 -0.22607252102E+02  0.20389785298E+02 -0.17468741323E+03  0.17738267540E+03  0.47000000000E+01 0. -1.
        -13    1    4    4    0    0  0.15023356858E+02 -0.34271921198E+02 -0.40419902916E+02  0.55082069548E+02  0.00000000000E+00 0.  1.
         14    1    4    4    0    0  0.11515585436E+03  0.50178818763E+01 -0.22067380287E+03  0.24896380702E+03  0.00000000000E+00 0. -1.
         -5    1    5    5    0  502 -0.10261670763E+03  0.32432695837E+01 -0.64757483083E+02  0.12147563170E+03  0.47000000000E+01 0.  1.
         13    1    6    6    0    0 -0.37861088050E+02 -0.45830950735E+00  0.34259288218E+02  0.51062421262E+02  0.00000000000E+00 0. -1.
        -14    1    6    6    0    0  0.32905836569E+02  0.60792939477E+01 -0.79520020570E+01  0.34394566895E+02  0.00000000000E+00 0.  1.
</event>
<event>
12    1  0.8421768E-002  0.2026162E+03  0.7818608E-02  0.1148111E+00
         21   -1    0    0  503  502  0.00000000000E+00  0.00000000000E+00  0.10610677378E+03  0.10610677378E+03  0.00000000000E+00 0. -1.
         21   -1    0    0  501  503 -0.00000000000E+00 -0.00000000000E+00 -0.42568272459E+03  0.42568272459E+03  0.00000000000E+00 0.  1.
          6    2    1    2  501    0 -0.98133142874E+02  0.36771427243E+02 -0.24611818511E+03  0.31879065924E+03  0.17341012596E+03 0.  0.
         24    2    3    3    0    0 -0.13531480131E+03  0.19750834267E+02 -0.21616875667E+03  0.26788648875E+03  0.79586736261E+02 0.  0.
         -6    2    1    2    0  502  0.98133142874E+02 -0.36771427243E+02 -0.73457765697E+02  0.21299883914E+03  0.17026511839E+03 0.  0.
        -24    2    5    5    0    0  0.15312278117E+01  0.12625953533E+02  0.16329888534E+01  0.80965727230E+02  0.79943873887E+02 0.  0.
          5    1    3    3  501    0  0.37181658433E+02  0.17020592976E+02 -0.29949428445E+02  0.50904170490E+02  0.47000000000E+01 0. -1.
        -11    1    4    4    0    0 -0.81660394036E+02  0.88792035218E+01 -0.19043479386E+03  0.20739496359E+03  0.00000000000E+00 0.  1.
         12    1    4    4    0    0 -0.53654407271E+02  0.10871630745E+02 -0.25733962808E+02  0.60491525162E+02  0.00000000000E+00 0. -1.
         -5    1    5    5    0  502  0.96601915062E+02 -0.49397380775E+02 -0.75090754550E+02  0.13203311191E+03  0.47000000000E+01 0.  1.
         11    1    6    6    0    0 -0.39070778702E+02  0.44912307161E+01 -0.21334470658E+01  0.39385892120E+02  0.00000000000E+00 0. -1.
        -12    1    6    6    0    0  0.40602006514E+02  0.81347228165E+01  0.37664359193E+01  0.41579835110E+02  0.00000000000E+00 0.  1.
</event>
<event>
12    1  0.8421768E-002  0.2374923E+03  0.7818608E-02  0.1121475E+00
         21   -1    0    0  501  502  0.00000000000E+00  0.00000000000E+00  0.18610663762E+03  0.18610663762E+03  0.00000000000E+00 0. -1.
         21   -1    0    0  502  503 -0.00000000000E+00 -0.00000000000E+00 -0.67680419572E+03  0.67680419572E+03  0.00000000000E+00 0.  1.
         -6    2    1    2    0  503  0.61738679007E+02 -0.15065299760E+03 -0.56596993064E+03  0.61377892021E+03  0.17290057932E+03 0.  0.
        -24    2    3    3    0    0  0.32476026859E+02 -0.81075421463E+01 -0.15502004453E+03  0.17780024117E+03  0.80382131057E+02 0.  0.
          6    2    1    2  501    0 -0.61738679007E+02  0.15065299760E+03  0.75272372539E+02  0.24913191314E+03  0.17289531487E+03 0.  0.
         24    2    5    5    0    0 -0.12425487955E+02  0.14206875432E+03  0.10233727355E+03  0.19203481241E+03  0.77887918942E+02 0.  0.
          5    1    5    5  501    0 -0.49313191052E+02  0.85842432839E+01 -0.27064901011E+02  0.57097100725E+02  0.47000000000E+01 0. -1.
        -11    1    6    6    0    0  0.15483134041E+02  0.10663230242E+03  0.39668091132E+02  0.11482043727E+03  0.00000000000E+00 0.  1.
         12    1    6    6    0    0 -0.27908621996E+02  0.35436451892E+02  0.62669182417E+02  0.77214375146E+02  0.00000000000E+00 0. -1.
         -5    1    3    3    0  503  0.29262652148E+02 -0.14254545545E+03 -0.41094988611E+03  0.43597867904E+03  0.47000000000E+01 0.  1.
         11    1    4    4    0    0  0.47227942782E+02 -0.15348203051E+02 -0.46462518526E+02  0.68005966974E+02  0.00000000000E+00 0. -1.
        -12    1    4    4    0    0 -0.14751915923E+02  0.72406609043E+01 -0.10855752600E+03  0.10979427420E+03  0.00000000000E+00 0.  1.
</event>
<event>
12    1  0.8421768E-002  0.2172810E+03  0.7818608E-02  0.1135993E+00
         21   -1    0    0  501  502  0.00000000000E+00  0.00000000000E+00  0.70031580821E+03  0.70031580821E+03  0.00000000000E+00 0.  1.
         21   -1    0    0  502  503 -0.00000000000E+00 -0.00000000000E+00 -0.77687431766E+02  0.77687431766E+02  0.00000000000E+00 0.  1.
         -6    2    1    2    0  503  0.12705281378E+03 -0.43403862358E+02  0.16888679980E+03  0.27492028463E+03  0.17038808349E+03 0.  0.
        -24    2    3    3    0    0  0.17032597147E+02 -0.61697229471E+02  0.78068075257E+02  0.13101327967E+03  0.83505673972E+02 0.  0.
          6    2    1    2  501    0 -0.12705281378E+03  0.43403862358E+02  0.45374157664E+03  0.50308295535E+03  0.17083538519E+03 0.  0.
         24    2    5    5    0    0 -0.90244717433E+02 -0.14427116508E+02  0.14441770272E+03  0.18621925113E+03  0.73951916251E+02 0.  0.
          5    1    5    5  501    0 -0.36808096345E+02  0.57830978865E+02  0.30932387392E+03  0.31686370422E+03  0.47000000000E+01 0. -1.
        -13    1    6    6    0    0 -0.93241513146E+02  0.65904093662E+01  0.13160407010E+03  0.16142194565E+03  0.00000000000E+00 0.  1.
         14    1    6    6    0    0  0.29967957127E+01 -0.21017525874E+02  0.12813632624E+02  0.24797305487E+02  0.00000000000E+00 0. -1.
         -5    1    3    3    0  503  0.11002021663E+03  0.18293367113E+02  0.90818724541E+02  0.14390700496E+03  0.47000000000E+01 0.  1.
         13    1    4    4    0    0 -0.90567517944E+01 -0.21809065612E+02 -0.13918846221E+02  0.27411573761E+02  0.00000000000E+00 0. -1.
        -14    1    4    4    0    0  0.26089348942E+02 -0.39888163860E+02  0.91986921478E+02  0.10360170591E+03  0.00000000000E+00 0.  1.
</event>
<event>
12    1  0.8421768E-002  0.1749889E+03  0.7818608E-02  0.1172908E+00
         21   -1    0    0  501  502  0.00000000000E+00  0.00000000000E+00  0.30213616043E+03  0.30213616043E+03  0.00000000000E+00 0. -1.
         21   -1    0    0  502  503 -0.00000000000E+00 -0.00000000000E+00 -0.13596702630E+03  0.13596702630E+03  0.00000000000E+00 0. -1.
         -6    2    1    2    0  503 -0.35450214830E+02  0.10273593761E+02 -0.28166778838E+02  0.17659302871E+03  0.17038035655E+03 0.  0.
        -24    2    3    3    0    0 -0.22537530379E+02  0.63953898645E+02 -0.52021677630E+02  0.11626510194E+03  0.78824346224E+02 0.  0.
          6    2    1    2  501    0  0.35450214830E+02 -0.10273593761E+02  0.19433591297E+03  0.26151015802E+03  0.17105218858E+03 0.  0.
         24    2    5    5    0    0  0.18113590526E+02 -0.27907498253E+02  0.21499395586E+03  0.22894702141E+03  0.71326060719E+02 0.  0.
          5    1    5    5  501    0  0.17336624304E+02  0.17633904492E+02 -0.20658042889E+02  0.32563136610E+02  0.47000000000E+01 0. -1.
        -11    1    6    6    0    0  0.12845072112E+02 -0.52220247077E+02  0.15074738570E+03  0.16005225515E+03  0.00000000000E+00 0.  1.
         12    1    6    6    0    0  0.52685184134E+01  0.24312748824E+02  0.64246570155E+02  0.68894766262E+02  0.00000000000E+00 0. -1.
         -5    1    3    3    0  503 -0.12912684451E+02 -0.53680304884E+02  0.23854898791E+02  0.60327926771E+02  0.47000000000E+01 0.  1.
         11    1    4    4    0    0 -0.13079342228E+02 -0.17562885872E+02 -0.10135751109E+02  0.24130014584E+02  0.00000000000E+00 0. -1.
        -12    1    4    4    0    0 -0.94581881509E+01  0.81516784518E+02 -0.41885926521E+02  0.92135087354E+02  0.00000000000E+00 0.  1.
</event>
<event>
12    1  0.8421768E-002  0.1711384E+03  0.7818608E-02  0.1177250E+00
         21   -1    0    0  503  502  0.00000000000E+00  0.00000000000E+00  0.16619448963E+03  0.16619448963E+03  0.00000000000E+00 0. -1.
         21   -1    0    0  501  503 -0.00000000000E+00 -0.00000000000E+00 -0.45808104255E+03  0.45808104255E+03  0.00000000000E+00 0. -1.
          6    2    1    2  501    0 -0.14486872301E+01 -0.84898877507E+01 -0.39214788505E+03  0.42786484772E+03  0.17092158225E+03 0.  0.
         24    2    3    3    0    0 -0.20723174120E+02 -0.30607236443E+02 -0.10087988175E+03  0.13508536978E+03  0.81884392397E+02 0.  0.
         -6    2    1    2    0  502  0.14486872301E+01  0.84898877507E+01  0.10026133213E+03  0.19641068446E+03  0.16867319099E+03 0.  0.
        -24    2    5    5    0    0 -0.12119597054E+02 -0.38448719275E+02  0.11485343833E+03  0.14520179137E+03  0.79164760315E+02 0.  0.
          5    1    3    3  501    0  0.19274486890E+02  0.22117348693E+02 -0.29126800330E+03  0.29277947794E+03  0.47000000000E+01 0. -1.
        -13    1    4    4    0    0  0.26155776526E+02  0.87460860509E+01 -0.41347011955E+02  0.49701046916E+02  0.00000000000E+00 0.  1.
         14    1    4    4    0    0 -0.46878950645E+02 -0.39353322494E+02 -0.59532869799E+02  0.85384322867E+02  0.00000000000E+00 0. -1.
         -5    1    5    5    0  502  0.13568284284E+02  0.46938607025E+02 -0.14592106193E+02  0.51208893086E+02  0.47000000000E+01 0.  1.
         11    1    6    6    0    0  0.33659620184E+02 -0.21147827072E+02  0.47341434143E+02  0.61817570379E+02  0.00000000000E+00 0. -1.
        -12    1    6    6    0    0 -0.45779217238E+02 -0.17300892203E+02  0.67512004183E+02  0.83384220994E+02  0.00000000000E+00 0.  1.
</event>
<event>
12    1  0.8421768E-002  0.1750277E+03  0.7818608E-02  0.1172943E+00
         21   -1    0    0  501  502  0.00000000000E+00  0.00000000000E+00  0.18039091566E+04  0.18039091566E+04  0.00000000000E+00 0.  1.
         21   -1    0    0  502  503 -0.00000000000E+00 -0.00000000000E+00 -0.17507092893E+02  0.17507092893E+02  0.00000000000E+00 0.  1.
         -6    2    1    2    0  503 -0.27511455793E+02  0.37232512044E+01  0.10665063839E+04  0.10807731332E+04  0.17281190878E+03 0.  0.
        -24    2    3    3    0    0 -0.85699612020E+02  0.10175812676E+01  0.65907265641E+03  0.66916954424E+03  0.77882305681E+02 0.  0.
          6    2    1    2  501    0  0.27511455793E+02 -0.37232512044E+01  0.71989567986E+03  0.74064311631E+03  0.17184787768E+03 0.  0.
         24    2    5    5    0    0  0.33957493793E+02  0.38528107438E+02  0.33056454035E+03  0.34894482055E+03  0.99257473290E+02 0.  0.
          5    1    5    5  501    0 -0.64460379999E+01 -0.42251358643E+02  0.38933113950E+03  0.39169829576E+03  0.47000000000E+01 0. -1.
        -11    1    6    6    0    0 -0.32057846803E+02  0.19400730071E+02  0.69194905065E+02  0.78689445010E+02  0.00000000000E+00 0.  1.
         12    1    6    6    0    0  0.66015340597E+02  0.19127377367E+02  0.26136963529E+03  0.27025537554E+03  0.00000000000E+00 0. -1.
         -5    1    3    3    0  503  0.58188156227E+02  0.27056699368E+01  0.40743372747E+03  0.41160358897E+03  0.47000000000E+01 0.  1.
         11    1    4    4    0    0 -0.26591117368E+02 -0.32013817024E+02  0.15194013488E+03  0.15753658810E+03  0.00000000000E+00 0. -1.
        -12    1    4    4    0    0 -0.59108494652E+02  0.33031398291E+02  0.50713252153E+03  0.51163295613E+03  0.00000000000E+00 0.  1.
</event>
<event>
12    1  0.8421768E-002  0.1995862E+03  0.7818608E-02  0.1150740E+00
         21   -1    0    0  501  502  0.00000000000E+00  0.00000000000E+00  0.27643186419E+02  0.27643186419E+02  0.00000000000E+00 0. -1.
         21   -1    0    0  502  503 -0.00000000000E+00 -0.00000000000E+00 -0.17494803853E+04  0.17494803853E+04  0.00000000000E+00 0.  1.
         -6    2    1    2    0  503  0.97088786357E+02 -0.31856691515E+01 -0.12416817665E+04  0.12571390526E+04  0.17084673643E+03 0.  0.
        -24    2    3    3    0    0  0.25224441967E+02 -0.61751806333E+02 -0.66432499125E+03  0.67236780471E+03  0.79380178544E+02 0.  0.
          6    2    1    2  501    0 -0.97088786357E+02  0.31856691515E+01 -0.48015543241E+03  0.51998451916E+03  0.17435102516E+03 0.  0.
         24    2    5    5    0    0 -0.23128603005E+02  0.52083225994E+02 -0.34607295216E+03  0.35917008792E+03  0.77389076317E+02 0.  0.
          5    1    5    5  501    0 -0.73960183352E+02 -0.48897556842E+02 -0.13408248025E+03  0.16081443124E+03  0.47000000000E+01 0. -1.
        -13    1    6    6    0    0 -0.14201504501E+02 -0.16640868139E+02 -0.14141100904E+03  0.14309323779E+03  0.00000000000E+00 0.  1.
         14    1    6    6    0    0 -0.89270985035E+01  0.68724094133E+02 -0.20466194312E+03  0.21607685013E+03  0.00000000000E+00 0. -1.
         -5    1    3    3    0  503  0.71864344390E+02  0.58566137181E+02 -0.57735677523E+03  0.58477124786E+03  0.47000000000E+01 0.  1.
         11    1    4    4    0    0 -0.72253078373E+01  0.16552627338E+02 -0.87118382896E+02  0.88970822091E+02  0.00000000000E+00 0. -1.
        -12    1    4    4    0    0  0.32449749804E+02 -0.78304433670E+02 -0.57720660836E+03  0.58339698262E+03  0.00000000000E+00 0.  1.
</event>
<event>
12    1  0.8421768E-002  0.1962659E+03  0.7818608E-02  0.1152954E+00
         21   -1    0    0  501  502  0.00000000000E+00  0.00000000000E+00  0.13824620516E+04  0.13824620516E+04  0.00000000000E+00 0. -1.
         21   -1    0    0  502  503 -0.00000000000E+00 -0.00000000000E+00 -0.10184556231E+03  0.10184556231E+03  0.00000000000E+00 0. -1.
         -6    2    1    2    0  503  0.92937335635E+01 -0.93558837531E+02  0.76436319918E+01  0.19629356491E+03  0.17214269938E+03 0.  0.
        -24    2    3    3    0    0  0.68488087600E+02 -0.35594813573E+02  0.16121145174E+02  0.11288038937E+03  0.80774266243E+02 0.  0.
          6    2    1    2  501    0 -0.92937335635E+01  0.93558837531E+02  0.12729728573E+04  0.12880140490E+04  0.17228077504E+03 0.  0.
         24    2    5    5    0    0 -0.21829417463E+01  0.13401271389E+03  0.10127900553E+04  0.10245671665E+04  0.77653137285E+02 0.  0.
          5    1    5    5  501    0 -0.71107918172E+01 -0.40453876356E+02  0.26018280194E+03  0.26344688250E+03  0.47000000000E+01 0. -1.
        -13    1    6    6    0    0 -0.21316653703E+02  0.12843728112E+03  0.76708893163E+03  0.77805910054E+03  0.00000000000E+00 0.  1.
         14    1    6    6    0    0  0.19133711957E+02  0.55754327662E+01  0.24570112371E+03  0.24650806595E+03  0.00000000000E+00 0. -1.
         -5    1    3    3    0  503 -0.59194354036E+02 -0.57964023958E+02 -0.84775131826E+01  0.83413175536E+02  0.47000000000E+01 0.  1.
         13    1    4    4    0    0 -0.10908884258E+02 -0.13398163398E+02 -0.16809436558E+02  0.24105428758E+02  0.00000000000E+00 0. -1.
        -14    1    4    4    0    0  0.79396971858E+02 -0.22196650175E+02  0.32930581732E+02  0.88774960616E+02  0.00000000000E+00 0.  1.
</event>
<event>
12    1  0.8421768E-002  0.1942378E+03  0.7818608E-02  0.1154821E+00
         21   -1    0    0  501  502  0.00000000000E+00  0.00000000000E+00  0.57896936970E+03  0.57896936970E+03  0.00000000000E+00 0.  1.
         21   -1    0    0  502  503 -0.00000000000E+00 -0.00000000000E+00 -0.16581165506E+03  0.16581165506E+03  0.00000000000E+00 0.  1.
         -6    2    1    2    0  503 -0.48444290946E+02  0.74261678181E+02 -0.83709918265E+02  0.21150808144E+03  0.17281976718E+03 0.  0.
        -24    2    3    3    0    0 -0.68110922937E+02 -0.11907688649E+02 -0.47984424699E+02  0.11605999564E+03  0.79915747517E+02 0.  0.
          6    2    1    2  501    0  0.48444290946E+02 -0.74261678181E+02  0.49686763290E+03  0.53327294331E+03  0.17216544736E+03 0.  0.
         24    2    5    5    0    0  0.81834200516E+02 -0.72779142707E+02  0.47216523497E+03  0.49144732393E+03  0.81159245302E+02 0.  0.
          5    1    5    5  501    0 -0.33389909571E+02 -0.14825354740E+01  0.24702397936E+02  0.41825619378E+02  0.47000000000E+01 0. -1.
        -13    1    6    6    0    0  0.38173112561E+02 -0.82918694327E+02  0.32905045754E+03  0.34147752489E+03  0.00000000000E+00 0.  1.
         14    1    6    6    0    0  0.43661087955E+02  0.10139551620E+02  0.14311477742E+03  0.14996979905E+03  0.00000000000E+00 0. -1.
         -5    1    3    3    0  503  0.19666631991E+02  0.86169366830E+02 -0.35725493566E+02  0.95448085807E+02  0.47000000000E+01 0.  1.
         13    1    4    4    0    0 -0.22461378026E+02  0.28663005121E+02  0.29508354527E+01  0.36534761464E+02  0.00000000000E+00 0. -1.
        -14    1    4    4    0    0 -0.45649544911E+02 -0.40570693769E+02 -0.50935260152E+02  0.79525234173E+02  0.00000000000E+00 0.  1.
</event>
<event>
12    1  0.8421768E-002  0.1805163E+03  0.7818608E-02  0.1167401E+00
         21   -1    0    0  503  502  0.00000000000E+00  0.00000000000E+00  0.72483501362E+03  0.72483501362E+03  0.00000000000E+00 0. -1.
         21   -1    0    0  501  503 -0.00000000000E+00 -0.00000000000E+00 -0.44870903084E+02  0.44870903084E+02  0.00000000000E+00 0. -1.
          6    2    1    2  501    0 -0.27480134038E+02  0.45268129428E+02  0.34724257903E+03  0.39136113581E+03  0.17257395118E+03 0.  0.
         24    2    3    3    0    0  0.26158690131E+02 -0.19232886740E+02  0.23613575634E+03  0.25206174388E+03  0.81980767890E+02 0.  0.
         -6    2    1    2    0  502  0.27480134038E+02 -0.45268129428E+02  0.33272153151E+03  0.37834478089E+03  0.17215340365E+03 0.  0.
        -24    2    5    5    0    0 -0.16044873790E+01  0.11091044250E+02  0.65589447097E+02  0.10374705296E+03  0.79598302658E+02 0.  0.
          5    1    3    3  501    0 -0.53638824169E+02  0.64501016168E+02  0.11110682269E+03  0.13929939193E+03  0.47000000000E+01 0. -1.
        -11    1    4    4    0    0  0.52405669453E+02  0.46763526271E+01  0.13648246013E+03  0.14627263718E+03  0.00000000000E+00 0.  1.
         12    1    4    4    0    0 -0.26246979322E+02 -0.23909239367E+02  0.99653296212E+02  0.10578910670E+03  0.00000000000E+00 0. -1.
         -5    1    5    5    0  502  0.29084621417E+02 -0.56359173678E+02  0.26713208441E+03  0.27459772793E+03  0.47000000000E+01 0.  1.
         11    1    6    6    0    0 -0.11991850875E+02 -0.24206899958E+02  0.60940717419E+02  0.66659954490E+02  0.00000000000E+00 0. -1.
        -12    1    6    6    0    0  0.10387363496E+02  0.35297944207E+02  0.46487296777E+01  0.37087098475E+02  0.00000000000E+00 0.  1.
</event>
<event>
12    1  0.8421768E-002  0.1956870E+03  0.7818608E-02  0.1153668E+00
         21   -1    0    0  501  502  0.00000000000E+00  0.00000000000E+00  0.25419765456E+03  0.25419765456E+03  0.00000000000E+00 0. -1.
         21   -1    0    0  502  503 -0.00000000000E+00 -0.00000000000E+00 -0.17045852525E+03  0.17045852525E+03  0.00000000000E+00 0. -1.
         -6    2    1    2    0  503 -0.79411723463E+02 -0.37465289913E+02  0.11567971525E+03  0.22637960289E+03  0.17365499795E+03 0.  0.
        -24    2    3    3    0    0 -0.36151116129E+02  0.10757454736E+02 -0.59333408595E+01  0.88507420544E+02  0.79848186754E+02 0.  0.
          6    2    1    2  501    0  0.79411723463E+02  0.37465289913E+02 -0.31940585936E+02  0.19827657692E+03  0.17488147458E+03 0.  0.
         24    2    5    5    0    0  0.35050990489E+02  0.67642275405E+02  0.33185371886E+02  0.11376619019E+03  0.77700886521E+02 0.  0.
          5    1    5    5  501    0  0.44360732974E+02 -0.30176985492E+02 -0.65125957821E+02  0.84510386731E+02  0.47000000000E+01 0. -1.
        -13    1    6    6    0    0  0.46634321944E+02  0.26040556896E+02  0.44053146075E+02  0.69235469708E+02  0.00000000000E+00 0.  1.
         14    1    6    6    0    0 -0.11583331455E+02  0.41601718508E+02 -0.10867774189E+02  0.44530720478E+02  0.00000000000E+00 0. -1.
         -5    1    3    3    0  503 -0.43260607334E+02 -0.48222744649E+02  0.12161305611E+03  0.13787218235E+03  0.47000000000E+01 0.  1.
         13    1    4    4    0    0 -0.28128644663E+02  0.34435219470E+02  0.23171972052E+02  0.50139258862E+02  0.00000000000E+00 0. -1.
        -14    1    4    4    0    0 -0.80224714667E+01 -0.23677764734E+02 -0.29105312911E+02  0.38368161682E+02  0.00000000000E+00 0.  1.
</event>
<event>
12    1  0.8421768E-002  0.2277373E+03  0.7818608E-02  0.1128411E+00
         21   -1    0    0  501  502  0.00000000000E+00  0.00000000000E+00  0.21196036177E+03  0.21196036177E+03  0.00000000000E+00 0.  1.
         21   -1    0    0  502  503 -0.00000000000E+00 -0.00000000000E+00 -0.24368945867E+03  0.24368945867E+03  0.00000000000E+00 0. -1.
         -6    2    1    2    0  503  0.14148490207E+03 -0.46713610556E+02 -0.17418734776E+02  0.22746335205E+03  0.17098545341E+03 0.  0.
        -24    2    3    3    0    0  0.66539002228E+02  0.41945809420E+01  0.50201632363E+02  0.11431240898E+03  0.78115873088E+02 0.  0.
          6    2    1    2  501    0 -0.14148490207E+03  0.46713610556E+02 -0.14310362130E+02  0.22818646840E+03  0.17223280457E+03 0.  0.
         24    2    5    5    0    0 -0.10328076701E+03  0.31006691244E+02  0.56399420837E+02  0.14616070014E+03  0.80955073096E+02 0.  0.
          5    1    5    5  501    0 -0.38204135064E+02  0.15706919312E+02 -0.70709782967E+02  0.82025768253E+02  0.47000000000E+01 0. -1.
        -13    1    6    6    0    0 -0.36342997394E+02  0.52826225478E+02  0.21891979304E+02  0.67754574131E+02  0.00000000000E+00 0.  1.
         14    1    6    6    0    0 -0.66937769614E+02 -0.21819534234E+02  0.34507441533E+02  0.78406126012E+02  0.00000000000E+00 0. -1.
         -5    1    3    3    0  503  0.74945899844E+02 -0.50908191499E+02 -0.67620367138E+02  0.11315094307E+03  0.47000000000E+01 0.  1.
         11    1    4    4    0    0  0.12639122964E+02 -0.26352907406E+01 -0.21059536551E+02  0.24702151047E+02  0.00000000000E+00 0. -1.
        -12    1    4    4    0    0  0.53899879264E+02  0.68298716827E+01  0.71261168914E+02  0.89610257934E+02  0.00000000000E+00 0.  1.
</event>
<event>
12    1  0.8421768E-002  0.2100665E+03  0.7818608E-02  0.1141586E+00
         21   -1    0    0  503  502  0.00000000000E+00  0.00000000000E+00  0.16373670891E+04  0.16373670891E+04  0.00000000000E+00 0. -1.
         21   -1    0    0  501  503 -0.00000000000E+00 -0.00000000000E+00 -0.64513127035E+02  0.64513127035E+02  0.00000000000E+00 0. -1.
          6    2    1    2  501    0  0.49065355519E+02 -0.11132115055E+03  0.13641991850E+03  0.25016719030E+03  0.17080228707E+03 0.  0.
         24    2    3    3    0    0  0.58014715634E+02 -0.11272973155E+03  0.16381316098E+03  0.22093441964E+03  0.76834669681E+02 0.  0.
         -6    2    1    2    0  502 -0.49065355519E+02  0.11132115055E+03  0.14364340435E+04  0.14517130258E+04  0.17125460631E+03 0.  0.
        -24    2    5    5    0    0  0.28442390707E+02  0.40230488290E+02  0.89667790071E+03  0.90178565178E+03  0.82210962460E+02 0.  0.
          5    1    3    3  501    0 -0.89493601148E+01  0.14085809939E+01 -0.27393242484E+02  0.29232770663E+02  0.47000000000E+01 0. -1.
        -11    1    4    4    0    0  0.19379590750E+02  0.52382649037E+01  0.44221053177E+02  0.48564488064E+02  0.00000000000E+00 0.  1.
         12    1    4    4    0    0  0.38635124884E+02 -0.11796799645E+03  0.11959210781E+03  0.17236993157E+03  0.00000000000E+00 0. -1.
         -5    1    5    5    0  502 -0.77507746226E+02  0.71090662265E+02  0.53975614282E+03  0.54992737402E+03  0.47000000000E+01 0.  1.
         11    1    6    6    0    0 -0.12076267556E+02  0.91641268649E+01  0.63457448975E+03  0.63475554389E+03  0.00000000000E+00 0. -1.
        -12    1    6    6    0    0  0.40518658263E+02  0.31066361425E+02  0.26210341097E+03  0.26703010789E+03  0.00000000000E+00 0.  1.
</event>
<event>
12    1  0.8421768E-002  0.2158997E+03  0.7818608E-02  0.1137048E+00
         21   -1    0    0  503  502  0.00000000000E+00  0.00000000000E+00  0.15216565549E+03  0.15216565549E+03  0.00000000000E+00 0.  1.
         21   -1    0    0  501  503 -0.00000000000E+00 -0.00000000000E+00 -0.33688765907E+03  0.33688765907E+03  0.00000000000E+00 0.  1.
          6    2    1    2  501    0 -0.11912902405E+03  0.53200080485E+02 -0.18010934535E+02  0.21628000081E+03  0.17155370021E+03 0.  0.
         24    2    3    3    0    0 -0.12417745386E+03 -0.29688218930E+01 -0.43884712577E+02  0.15405480794E+03  0.79863395260E+02 0.  0.
         -6    2    1    2    0  502  0.11912902405E+03 -0.53200080485E+02 -0.16671106904E+03  0.27277331374E+03  0.17201955475E+03 0.  0.
        -24    2    5    5    0    0  0.39925902931E+02 -0.62699542149E+02 -0.15933039774E+03  0.19252408648E+03  0.78447676341E+02 0.  0.
          5    1    3    3  501    0  0.50484298056E+01  0.56168902378E+02  0.25873778042E+02  0.62225192873E+02  0.47000000000E+01 0. -1.
        -11    1    4    4    0    0 -0.62577157236E+02 -0.40800227951E+02 -0.14921781461E+02  0.76178860392E+02  0.00000000000E+00 0.  1.
         12    1    4    4    0    0 -0.61600296620E+02  0.37831406058E+02 -0.28962931116E+02  0.77875947550E+02  0.00000000000E+00 0. -1.
         -5    1    5    5    0  502  0.79203121119E+02  0.94994616635E+01 -0.73806713040E+01  0.80249227260E+02  0.47000000000E+01 0.  1.
         13    1    6    6    0    0  0.12089729744E+02 -0.21655745220E+02 -0.13504621957E+03  0.13730482252E+03  0.00000000000E+00 0. -1.
        -14    1    6    6    0    0  0.27836173186E+02 -0.41043796929E+02 -0.24284178169E+02  0.55219263969E+02  0.00000000000E+00 0.  1.
</event>
<event>
12    1  0.8421768E-002  0.2914652E+03  0.7818608E-02  0.1089823E+00
         21   -1    0    0  501  502  0.00000000000E+00  0.00000000000E+00  0.60916398986E+03  0.60916398986E+03  0.00000000000E+00 0. -1.
         21   -1    0    0  502  503 -0.00000000000E+00 -0.00000000000E+00 -0.21699160200E+03  0.21699160200E+03  0.00000000000E+00 0.  1.
         -6    2    1    2    0  503  0.23097427886E+03  0.28167065236E+02 -0.52604873399E+02  0.29438612957E+03  0.17249179552E+03 0.  0.
        -24    2    3    3    0    0  0.92720610099E+02  0.59196128169E+02  0.17480621908E+02  0.13623763503E+03  0.78446337901E+02 0.  0.
          6    2    1    2  501    0 -0.23097427886E+03 -0.28167065236E+02  0.44477726126E+03  0.53176946229E+03  0.17552620271E+03 0.  0.
         24    2    5    5    0    0 -0.43172491137E+02  0.26925282077E+02  0.14995778813E+03  0.17786934936E+03  0.81002051901E+02 0.  0.
          5    1    5    5  501    0 -0.18780178772E+03 -0.55092347312E+02  0.29481947312E+03  0.35390011294E+03  0.47000000000E+01 0. -1.
        -11    1    6    6    0    0  0.79316501251E+01  0.50006099881E+01  0.10749233114E+03  0.10790050244E+03  0.00000000000E+00 0.  1.
         12    1    6    6    0    0 -0.51104141262E+02  0.21924672089E+02  0.42465456996E+02  0.69968846912E+02  0.00000000000E+00 0. -1.
         -5    1    3    3    0  503  0.13825366876E+03 -0.31029062934E+02 -0.70085495307E+02  0.15814849454E+03  0.47000000000E+01 0.  1.
         13    1    4    4    0    0  0.55598710592E+02  0.61174200806E+02 -0.18272254874E+02  0.84660349408E+02  0.00000000000E+00 0. -1.
        -14    1    4    4    0    0  0.37121899507E+02 -0.19780726365E+01  0.35752876782E+02  0.51577285626E+02  0.00000000000E+00 0.  1.
</event>
<event>
12    1  0.8421768E-002  0.2053526E+03  0.7818608E-02  0.1146106E+00
         21   -1    0    0  503  502  0.00000000000E+00  0.00000000000E+00  0.59144527504E+03  0.59144527504E+03  0.00000000000E+00 0.  1.
         21   -1    0    0  501  503 -0.00000000000E+00 -0.00000000000E+00 -0.69964390861E+02  0.69964390861E+02  0.00000000000E+00 0.  1.
          6    2    1    2  501    0 -0.30628499969E+02 -0.10784720205E+03  0.25307094998E+03  0.32345465831E+03  0.16735855597E+03 0.  0.
         24    2    3    3    0    0  0.39347282965E+02 -0.79336823760E+02  0.11763331577E+03  0.16829379138E+03  0.81502533432E+02 0.  0.
         -6    2    1    2    0  502  0.30628499969E+02  0.10784720205E+03  0.26840993420E+03  0.33795500759E+03  0.17204816296E+03 0.  0.
        -24    2    5    5    0    0  0.47793616311E+02  0.13436024449E+03  0.17582792292E+03  0.24002083863E+03  0.79734806940E+02 0.  0.
          5    1    3    3  501    0 -0.69975782933E+02 -0.28510378293E+02  0.13543763421E+03  0.15516086693E+03  0.47000000000E+01 0. -1.
        -11    1    4    4    0    0 -0.47481627650E+01 -0.30918917292E+02  0.93344389193E+02  0.98446429544E+02  0.00000000000E+00 0.  1.
         12    1    4    4    0    0  0.44095445730E+02 -0.48417906468E+02  0.24288926581E+02  0.69847361835E+02  0.00000000000E+00 0. -1.
         -5    1    5    5    0  502 -0.17165116342E+02 -0.26513042435E+02  0.92582011277E+02  0.97934168962E+02  0.47000000000E+01 0.  1.
         11    1    6    6    0    0  0.67292104101E+02  0.76320018089E+02  0.10146074243E+03  0.14369152616E+03  0.00000000000E+00 0. -1.
        -12    1    6    6    0    0 -0.19498487790E+02  0.58040226399E+02  0.74367180489E+02  0.96329312467E+02  0.00000000000E+00 0.  1.
</event>
<event>
12    1  0.8421768E-002  0.1724585E+03  0.7818608E-02  0.1176002E+00
         21   -1    0    0  503  502  0.00000000000E+00  0.00000000000E+00  0.47998781870E+02  0.47998781870E+02  0.00000000000E+00 0. -1.
         21   -1    0    0  501  503 -0.00000000000E+00 -0.00000000000E+00 -0.61397133845E+03  0.61397133845E+03  0.00000000000E+00 0. -1.
          6    2    1    2  501    0  0.13230060072E+02  0.40560615666E+01 -0.30737105282E+03  0.35113787112E+03  0.16920211079E+03 0.  0.
         24    2    3    3    0    0 -0.82545772032E+01  0.61559667182E+02 -0.23864534817E+03  0.25886887970E+03  0.78763976569E+02 0.  0.
         -6    2    1    2    0  502 -0.13230060072E+02 -0.40560615666E+01 -0.25860150376E+03  0.31083224920E+03  0.17190248187E+03 0.  0.
        -24    2    5    5    0    0  0.56752646183E+02  0.15309434572E+02 -0.14476923717E+03  0.17573052259E+03  0.80422900375E+02 0.  0.
          5    1    3    3  501    0  0.21484637275E+02 -0.57503605616E+02 -0.68725704653E+02  0.92268991421E+02  0.47000000000E+01 0. -1.
        -13    1    4    4    0    0  0.16548050205E+02 -0.13319961058E+02 -0.57291513565E+02  0.61103002011E+02  0.00000000000E+00 0.  1.
         14    1    4    4    0    0 -0.24802627408E+02  0.74879628240E+02 -0.18135383460E+03  0.19776587769E+03  0.00000000000E+00 0. -1.
         -5    1    5    5    0  502 -0.69982706256E+02 -0.19365496139E+02 -0.11383226659E+03  0.13510172661E+03  0.47000000000E+01 0.  1.
         13    1    6    6    0    0  0.69596556874E+01 -0.26264531615E+02 -0.15964238710E+02  0.31513796119E+02  0.00000000000E+00 0. -1.
        -14    1    6    6    0    0  0.49792990496E+02  0.41573966187E+02 -0.12880499846E+03  0.14421672647E+03  0.00000000000E+00 0.  1.
</event>
<event>
12    1  0.8421768E-002  0.3134955E+03  0.7818608E-02  0.1079136E+00
         21   -1    0    0  503  502  0.00000000000E+00  0.00000000000E+00  0.66338410860E+03  0.66338410860E+03  0.00000000000E+00 0.  1.
         21   -1    0    0  501  503 -0.00000000000E+00 -0.00000000000E+00 -0.14828551599E+03  0.14828551599E+03  0.00000000000E+00 0.  1.
          6    2    1    2  501    0  0.13168095883E+02 -0.26177699495E+03  0.30235204389E+03  0.43280219660E+03  0.16492540466E+03 0.  0.
         24    2    3    3    0    0  0.42499776110E+01 -0.20062456413E+03  0.30099666821E+03  0.37080961904E+03  0.81440169841E+02 0.  0.
         -6    2    1    2    0  502 -0.13168095883E+02  0.26177699495E+03  0.21274654872E+03  0.37886742798E+03  0.17198499981E+03 0.  0.
        -24    2    5    5    0    0  0.42383988671E+02  0.20590670355E+03  0.11295023727E+03  0.25163175162E+03  0.79792288240E+02 0.  0.
          5    1    3    3  501    0  0.89181182722E+01 -0.61152430824E+02  0.13553756886E+01  0.61992577559E+02  0.47000000000E+01 0. -1.
        -11    1    4    4    0    0  0.43294309685E+01 -0.21003570097E+02  0.13967945833E+01  0.21490578504E+02  0.00000000000E+00 0.  1.
         12    1    4    4    0    0 -0.79453357582E-01 -0.17962099403E+03  0.29959987362E+03  0.34931904054E+03  0.00000000000E+00 0. -1.
         -5    1    5    5    0  502 -0.55552084554E+02  0.55870291399E+02  0.99796311454E+02  0.12723567636E+03  0.47000000000E+01 0.  1.
         13    1    6    6    0    0  0.37148717500E+02  0.70033452179E+02  0.78050960493E+02  0.11125045649E+03  0.00000000000E+00 0. -1.
        -14    1    6    6    0    0  0.52352711715E+01  0.13587325137E+03  0.34899276775E+02  0.14038129513E+03  0.00000000000E+00 0.  1.
</event>
<event>
12    1  0.8421768E-002  0.1962909E+03  0.7818608E-02  0.1153532E+00
         21   -1    0    0  503  502  0.00000000000E+00  0.00000000000E+00  0.60356736256E+02  0.60356736256E+02  0.00000000000E+00 0. -1.
         21   -1    0    0  501  503 -0.00000000000E+00 -0.00000000000E+00 -0.94390564132E+03  0.94390564132E+03  0.00000000000E+00 0. -1.
          6    2    1    2  501    0 -0.22448857978E+02  0.85901599078E+02 -0.15395016114E+03  0.24946094357E+03  0.17506305807E+03 0.  0.
         24    2    3    3    0    0 -0.10880089078E+02  0.76755451386E+02 -0.18436764109E+03  0.21533175491E+03  0.79790738409E+02 0.  0.
         -6    2    1    2    0  502  0.22448857978E+02 -0.85901599078E+02 -0.72959874392E+03  0.75480143401E+03  0.17183667159E+03 0.  0.
        -24    2    5    5    0    0  0.18413374286E+02 -0.59229450743E+02 -0.71798847051E+03  0.72505959355E+03  0.79729481538E+02 0.  0.
          5    1    3    3  501    0 -0.11568768900E+02  0.91461476916E+01  0.30417479951E+02  0.34129188652E+02  0.47000000000E+01 0. -1.
        -13    1    4    4    0    0 -0.78784006011E+01 -0.15932260567E+02 -0.39634364614E+02  0.43437184314E+02  0.00000000000E+00 0.  1.
         14    1    4    4    0    0 -0.30016884766E+01  0.92687711954E+02 -0.14473327648E+03  0.17189457060E+03  0.00000000000E+00 0. -1.
         -5    1    5    5    0  502  0.40354836923E+01 -0.26672148335E+02 -0.11610273418E+02  0.29741840465E+02  0.47000000000E+01 0.  1.
         11    1    6    6    0    0  0.36103610629E+02 -0.19317373725E+02 -0.54893565328E+03  0.55046070075E+03  0.00000000000E+00 0. -1.
        -12    1    6    6    0    0 -0.17690236343E+02 -0.39912077018E+02 -0.16905281723E+03  0.17459889280E+03  0.00000000000E+00 0.  1.
</event>
<event>
12    1  0.8421768E-002  0.1863800E+03  0.7818608E-02  0.1162083E+00
         21   -1    0    0  501  502  0.00000000000E+00  0.00000000000E+00  0.87834474817E+03  0.87834474817E+03  0.00000000000E+00 0. -1.
         21   -1    0    0  502  503 -0.00000000000E+00 -0.00000000000E+00 -0.39940601430E+02  0.39940601430E+02  0.00000000000E+00 0. -1.
         -6    2    1    2    0  503  0.66854254469E+02  0.34241107465E+01  0.47759255001E+03  0.51217880829E+03  0.17248557031E+03 0.  0.
        -24    2    3    3    0    0  0.10323403402E+03  0.26478843661E+02  0.41715148536E+03  0.43781335014E+03  0.79415193022E+02 0.  0.
          6    2    1    2  501    0 -0.66854254469E+02 -0.34241107465E+01  0.36081159673E+03  0.40610654130E+03  0.17394337780E+03 0.  0.
         24    2    5    5    0    0 -0.26145774985E+02  0.26825273543E+01  0.35432594669E+03  0.36417057837E+03  0.79890776393E+02 0.  0.
          5    1    5    5  501    0 -0.40708479484E+02 -0.61066381008E+01  0.64856500427E+01  0.41935962935E+02  0.47000000000E+01 0. -1.
        -11    1    6    6    0    0 -0.43408579239E+01 -0.17723138916E+02  0.15245782724E+02  0.23777859269E+02  0.00000000000E+00 0.  1.
         12    1    6    6    0    0 -0.21804917061E+02  0.20405666271E+02  0.33908016396E+03  0.34039271910E+03  0.00000000000E+00 0. -1.
         -5    1    3    3    0  503 -0.36379779553E+02 -0.23054732915E+02  0.60441064646E+02  0.74365458149E+02  0.47000000000E+01 0.  1.
         11    1    4    4    0    0  0.10697188361E+03  0.23748666984E+01  0.31086464081E+03  0.32876351498E+03  0.00000000000E+00 0. -1.
        -12    1    4    4    0    0 -0.37378495876E+01  0.24103976963E+02  0.10628684455E+03  0.10904983516E+03  0.00000000000E+00 0.  1.
</event>
<event>
12    1  0.8421768E-002  0.2501040E+03  0.7818608E-02  0.1113637E+00
         21   -1    0    0  501  502  0.00000000000E+00  0.00000000000E+00  0.31703396438E+03  0.31703396438E+03  0.00000000000E+00 0. -1.
         21   -1    0    0  502  503 -0.00000000000E+00 -0.00000000000E+00 -0.22873503694E+03  0.22873503694E+03  0.00000000000E+00 0. -1.
         -6    2    1    2    0  503  0.17728652491E+03  0.15764388404E+02 -0.60321414887E+02  0.25483945644E+03  0.17212044506E+03 0.  0.
        -24    2    3    3    0    0  0.89868683405E+02 -0.40409327846E+02 -0.74104438044E+02  0.14991363913E+03  0.85283863802E+02 0.  0.
          6    2    1    2  501    0 -0.17728652491E+03 -0.15764388404E+02  0.14862034233E+03  0.29092954488E+03  0.17570704616E+03 0.  0.
         24    2    5    5    0    0 -0.15765154246E+03 -0.53377380192E+01  0.41785705016E+02  0.18170510941E+03  0.79926224449E+02 0.  0.
          5    1    5    5  501    0 -0.19634982456E+02 -0.10426650384E+02  0.10683463731E+03  0.10922443547E+03  0.47000000000E+01 0. -1.
        -11    1    6    6    0    0 -0.47647289439E+02 -0.16759732376E+02 -0.20805467612E+02  0.54626186969E+02  0.00000000000E+00 0.  1.
         12    1    6    6    0    0 -0.11000425302E+03  0.11421994357E+02  0.62591172627E+02  0.12707892244E+03  0.00000000000E+00 0. -1.
         -5    1    3    3    0  503  0.87417841507E+02  0.56173716249E+02  0.13783023157E+02  0.10492581731E+03  0.47000000000E+01 0.  1.
         13    1    4    4    0    0  0.65350871936E+02  0.50235473506E+01 -0.73232450519E+02  0.98280030015E+02  0.00000000000E+00 0. -1.
        -14    1    4    4    0    0  0.24517811468E+02 -0.45432875196E+02 -0.87198752502E+00  0.51633609113E+02  0.00000000000E+00 0.  1.
</event>
<event>
12    1  0.8421768E-002  0.2074414E+03  0.7818608E-02  0.1143669E+00
         21   -1    0    0  501  502  0.00000000000E+00  0.00000000000E+00  0.89935230161E+02  0.89935230161E+02  0.00000000000E+00 0.  1.
         21   -1    0    0  502  503 -0.00000000000E+00 -0.00000000000E+00 -0.50326031870E+03  0.50326031870E+03  0.00000000000E+00 0. -1.
         -6    2    1    2    0  503  0.25124300130E+02  0.11250765421E+03 -0.27354595010E+03  0.34330647757E+03  0.17246085936E+03 0.  0.
        -24    2    3    3    0    0 -0.39889455067E+02  0.16648236725E+02 -0.13003438646E+03  0.15882483842E+03  0.80299783461E+02 0.  0.
          6    2    1    2  501    0 -0.25124300130E+02 -0.11250765421E+03 -0.13977913844E+03  0.24988907129E+03  0.17209630356E+03 0.  0.
         24    2    5    5    0    0 -0.42307395160E+02 -0.66871012789E+02 -0.16119627270E+03  0.19642183427E+03  0.79596800257E+02 0.  0.
          5    1    5    5  501    0  0.17183095030E+02 -0.45636641420E+02  0.21417134259E+02  0.53467237022E+02  0.47000000000E+01 0. -1.
        -11    1    6    6    0    0 -0.23147103717E+02  0.10186149086E+02 -0.13336709779E+02  0.28590450704E+02  0.00000000000E+00 0.  1.
         12    1    6    6    0    0 -0.19160291443E+02 -0.77057161876E+02 -0.14785956292E+03  0.16783138357E+03  0.00000000000E+00 0. -1.
         -5    1    3    3    0  503  0.65013755198E+02  0.95859417484E+02 -0.14351156364E+03  0.18448163915E+03  0.47000000000E+01 0.  1.
         11    1    4    4    0    0 -0.36465353418E+02  0.46841381506E+02 -0.98701711138E+02  0.11517753602E+03  0.00000000000E+00 0. -1.
        -12    1    4    4    0    0 -0.34241016490E+01 -0.30193144781E+02 -0.31332675326E+02  0.43647302402E+02  0.00000000000E+00 0.  1.
</event>
<event>
12    1  0.8421768E-002  0.1736698E+03  0.7818608E-02  0.1174960E+00
         21   -1    0    0  501  502  0.00000000000E+00  0.00000000000E+00  0.62890984895E+02  0.62890984895E+02  0.00000000000E+00 0.  1.
         21   -1    0    0  502  503 -0.00000000000E+00 -0.00000000000E+00 -0.49601556756E+03  0.49601556756E+03  0.00000000000E+00 0.  1.
         -6    2    1    2    0  503  0.34541651408E+02 -0.18439595879E+00 -0.27839440002E+03  0.32630682753E+03  0.16667196540E+03 0.  0.
        -24    2    3    3    0    0  0.72840575222E+02 -0.39284556178E+02 -0.18371299605E+03  0.21684318813E+03  0.80134122370E+02 0.  0.
          6    2    1    2  501    0 -0.34541651408E+02  0.18439595879E+00 -0.15473018264E+03  0.23259972492E+03  0.17020000860E+03 0.  0.
         24    2    5    5    0    0 -0.53352726652E+02  0.42374918630E+02 -0.44958722008E+02  0.11341180470E+03  0.78732481167E+02 0.  0.
          5    1    5    5  501    0  0.18811075245E+02 -0.42190522671E+02 -0.10977146064E+03  0.11918792022E+03  0.47000000000E+01 0. -1.
        -11    1    6    6    0    0 -0.58845359313E+02  0.27208654951E+01 -0.89828851959E+01  0.59589190699E+02  0.00000000000E+00 0.  1.
         12    1    6    6    0    0  0.54926326609E+01  0.39654053135E+02 -0.35975836812E+02  0.53822614001E+02  0.00000000000E+00 0. -1.
         -5    1    3    3    0  503 -0.38298923814E+02  0.39100160219E+02 -0.94681403971E+02  0.10946363941E+03  0.47000000000E+01 0.  1.
         13    1    4    4    0    0  0.55440153980E+02 -0.50982697981E+02 -0.75599034640E+02  0.10671485466E+03  0.00000000000E+00 0. -1.
        -14    1    4    4    0    0  0.17400421242E+02  0.11698141803E+02 -0.10811396141E+03  0.11012833347E+03  0.00000000000E+00 0.  1.
</event>
<event>
12    1  0.8421768E-002  0.1969806E+03  0.7818608E-02  0.1152429E+00
         21   -1    0    0  503  502  0.00000000000E+00  0.00000000000E+00  0.20647241783E+03  0.20647241783E+03  0.00000000000E+00 0.  1.
         21   -1    0    0  501  503 -0.00000000000E+00 -0.00000000000E+00 -0.23206925107E+03  0.23206925107E+03  0.00000000000E+00 0.  1.
          6    2    1    2  501    0 -0.86388886881E+02  0.43479183609E+02  0.83382384635E+02  0.21390176698E+03  0.17160380144E+03 0.  0.
         24    2    3    3    0    0 -0.61108441538E+02 -0.10392529538E+02 -0.11884169958E+02  0.10147815372E+03  0.79462795636E+02 0.  0.
         -6    2    1    2    0  502  0.86388886881E+02 -0.43479183609E+02 -0.10897921788E+03  0.22463990192E+03  0.17097700553E+03 0.  0.
        -24    2    5    5    0    0  0.15916551801E+02  0.34681697124E+02 -0.65608534326E+02  0.11071633333E+03  0.80606885267E+02 0.  0.
          5    1    3    3  501    0 -0.25280445343E+02  0.53871713147E+02  0.95266554593E+02  0.11242361326E+03  0.47000000000E+01 0. -1.
        -13    1    4    4    0    0 -0.54500483298E+02  0.16742242560E+02  0.18756031032E+02  0.60019947232E+02  0.00000000000E+00 0.  1.
         14    1    4    4    0    0 -0.66079582404E+01 -0.27134772098E+02 -0.30640200990E+02  0.41458206493E+02  0.00000000000E+00 0. -1.
         -5    1    5    5    0  502  0.70472335080E+02 -0.78160880733E+02 -0.43370683553E+02  0.11392356859E+03  0.47000000000E+01 0.  1.
         13    1    6    6    0    0  0.94603420439E+01  0.42115039067E+01  0.18403254605E+02  0.21116690479E+02  0.00000000000E+00 0. -1.
        -14    1    6    6    0    0  0.64562097571E+01  0.30470193217E+02 -0.84011788931E+02  0.89599642848E+02  0.00000000000E+00 0.  1.
</event>
<event>
12    1  0.8421768E-002  0.2009132E+03  0.7818608E-02  0.1149792E+00
         21   -1    0    0  503  502  0.00000000000E+00  0.00000000000E+00  0.10840607655E+03  0.10840607655E+03  0.00000000000E+00 0.  1.
         21   -1    0    0  501  503 -0.00000000000E+00 -0.00000000000E+00 -0.45992767492E+03  0.45992767492E+03  0.00000000000E+00 0.  1.
          6    2    1    2  501    0  0.96804855548E+02  0.33261532616E+02 -0.48167834264E+02  0.20660647587E+03  0.17288315709E+03 0.  0.
         24    2    3    3    0    0  0.22821595986E+02  0.68123835207E+02 -0.61153069534E+02  0.12366306642E+03  0.79944817941E+02 0.  0.
         -6    2    1    2    0  502 -0.96804855548E+02 -0.33261532616E+02 -0.30335376410E+03  0.36172727559E+03  0.16836153392E+03 0.  0.
        -24    2    5    5    0    0  0.15198673420E+01 -0.88146475619E+01 -0.20589190871E+03  0.22106347579E+03  0.79984837589E+02 0.  0.
          5    1    3    3  501    0  0.73983259561E+02 -0.34862302592E+02  0.12985235270E+02  0.82943409457E+02  0.47000000000E+01 0. -1.
        -11    1    4    4    0    0  0.48051441662E+02  0.34101658899E+02 -0.14559430724E+02  0.60694655518E+02  0.00000000000E+00 0.  1.
         12    1    4    4    0    0 -0.25229845676E+02  0.34022176309E+02 -0.46593638809E+02  0.62968410899E+02  0.00000000000E+00 0. -1.
         -5    1    5    5    0  502 -0.98324722889E+02 -0.24446885054E+02 -0.97461855388E+02  0.14066379981E+03  0.47000000000E+01 0.  1.
         11    1    6    6    0    0 -0.29287586100E+02  0.21960826655E+02 -0.10408582665E+03  0.11033539738E+03  0.00000000000E+00 0. -1.
        -12    1    6    6    0    0  0.30807453442E+02 -0.30775474217E+02 -0.10180608207E+03  0.11072807840E+03  0.00000000000E+00 0.  1.
</event>
<event>
12    1  0.8421768E-002  0.1978092E+03  0.7818608E-02  0.1151690E+00
         21   -1    0    0  501  502  0.00000000000E+00  0.00000000000E+00  0.41319625750E+02  0.41319625750E+02  0.00000000000E+00 0.  1.
         21   -1    0    0  502  503 -0.00000000000E+00 -0.00000000000E+00 -0.10517415025E+04  0.10517415025E+04  0.00000000000E+00 0.  1.
         -6    2    1    2    0  503 -0.74372198099E+02  0.63333374478E+02 -0.67981421031E+03  0.70800835098E+03  0.17200617531E+03 0.  0.
        -24    2    3    3    0    0 -0.19231279868E+00 -0.48092918823E+00 -0.39298575477E+03  0.40491171021E+03  0.97547021176E+02 0.  0.
          6    2    1    2  501    0  0.74372198099E+02 -0.63333374478E+02 -0.33060766646E+03  0.38505277729E+03  0.17152805020E+03 0.  0.
         24    2    5    5    0    0 -0.10616444395E+02 -0.44645453858E+01 -0.70003973581E+02  0.10465130951E+03  0.76933082661E+02 0.  0.
          5    1    5    5  501    0  0.84988642494E+02 -0.58868829092E+02 -0.26060369288E+03  0.28040146778E+03  0.47000000000E+01 0. -1.
        -11    1    6    6    0    0  0.32863858456E+02 -0.21211259634E+01 -0.20818264993E+02  0.38960653553E+02  0.00000000000E+00 0.  1.
         12    1    6    6    0    0 -0.43480302851E+02 -0.23434194224E+01 -0.49185708588E+02  0.65690655956E+02  0.00000000000E+00 0. -1.
         -5    1    3    3    0  503 -0.74179885300E+02  0.63814303666E+02 -0.28682845554E+03  0.30309664077E+03  0.47000000000E+01 0.  1.
         13    1    4    4    0    0 -0.15848373481E+02 -0.29763645881E+02 -0.34449547118E+03  0.34614184263E+03  0.00000000000E+00 0. -1.
        -14    1    4    4    0    0  0.15656060683E+02  0.29282716693E+02 -0.48490283592E+02  0.58769867584E+02  0.00000000000E+00 0.  1.
</event>
<event>
12    1  0.8421768E-002  0.1973523E+03  0.7818608E-02  0.1153421E+00
         21   -1    0    0  503  502  0.00000000000E+00  0.00000000000E+00  0.43329816293E+03  0.43329816293E+03  0.00000000000E+00 0.  1.
         21   -1    0    0  501  503 -0.00000000000E+00 -0.00000000000E+00 -0.89372093519E+02  0.89372093519E+02  0.00000000000E+00 0. -1.
          6    2    1    2  501    0 -0.56827614979E+02 -0.55746219245E+02  0.12598752386E+03  0.22865473466E+03  0.17341601059E+03 0.  0.
         24    2    3    3    0    0 -0.40503216547E+02 -0.89727135789E+02  0.13947291087E+03  0.18834177972E+03  0.79551641545E+02 0.  0.
         -6    2    1    2    0  502  0.56827614979E+02  0.55746219245E+02  0.21793854555E+03  0.29401552179E+03  0.18058487931E+03 0.  0.
        -24    2    5    5    0    0 -0.39232428824E+02  0.44898171534E+02  0.12712087189E+03  0.16129343620E+03  0.79377750115E+02 0.  0.
          5    1    3    3  501    0 -0.16324398432E+02  0.33980916544E+02 -0.13485387009E+02  0.40312954941E+02  0.47000000000E+01 0. -1.
        -11    1    4    4    0    0 -0.84936092069E+00 -0.61557080066E+01  0.75775437366E+02  0.76029803782E+02  0.00000000000E+00 0.  1.
         12    1    4    4    0    0 -0.39653855626E+02 -0.83571427783E+02  0.63697473507E+02  0.11231197594E+03  0.00000000000E+00 0. -1.
         -5    1    5    5    0  502  0.96060043803E+02  0.10848047711E+02  0.90817673659E+02  0.13272208559E+03  0.47000000000E+01 0.  1.
         11    1    6    6    0    0 -0.32269403407E+02  0.26276427659E+02  0.10403811010E+02  0.42895271654E+02  0.00000000000E+00 0. -1.
        -12    1    6    6    0    0 -0.69630254169E+01  0.18621743875E+02  0.11671706088E+03  0.11839816455E+03  0.00000000000E+00 0.  1.
</event>
<event>
12    1  0.8421768E-002  0.2169363E+03  0.7818608E-02  0.1136279E+00
         21   -1    0    0  503  502  0.00000000000E+00  0.00000000000E+00  0.64054463707E+02  0.64054463707E+02  0.00000000000E+00 0. -1.
         21   -1    0    0  501  503 -0.00000000000E+00 -0.00000000000E+00 -0.75395787464E+03  0.75395787464E+03  0.00000000000E+00 0. -1.
          6    2    1    2  501    0 -0.13005578027E+03  0.92046307273E+01 -0.27726057203E+03  0.35204374363E+03  0.17338437479E+03 0.  0.
         24    2    3    3    0    0 -0.38540851659E+01 -0.24142038714E+02 -0.13152542148E+03  0.15634067183E+03  0.80905977313E+02 0.  0.
         -6    2    1    2    0  502  0.13005578027E+03 -0.92046307273E+01 -0.41264283891E+03  0.46596859471E+03  0.17278132870E+03 0.  0.
        -24    2    5    5    0    0  0.47336565945E+02 -0.61975187100E+02 -0.16574534402E+03  0.20024756992E+03  0.80906711099E+02 0.  0.
          5    1    3    3  501    0 -0.12620169511E+03  0.33346669442E+02 -0.14573515054E+03  0.19570307181E+03  0.47000000000E+01 0. -1.
        -11    1    4    4    0    0  0.16024464833E+02  0.23194684431E+02 -0.74253427505E+02  0.79425111616E+02  0.00000000000E+00 0.  1.
         12    1    4    4    0    0 -0.19878549999E+02 -0.47336723145E+02 -0.57271993978E+02  0.76915560210E+02  0.00000000000E+00 0. -1.
         -5    1    5    5    0  502  0.82719214328E+02  0.52770556372E+02 -0.24689749488E+03  0.26572102479E+03  0.47000000000E+01 0.  1.
         13    1    6    6    0    0  0.60807350689E+02 -0.71599861033E+02 -0.12575958218E+03  0.15696989045E+03  0.00000000000E+00 0. -1.
        -14    1    6    6    0    0 -0.13470784744E+02  0.96246739334E+01 -0.39985761840E+02  0.43277679465E+02  0.00000000000E+00 0.  1.
</event>
<event>
12    1  0.8421768E-002  0.1740939E+03  0.7818608E-02  0.1173735E+00
         21   -1    0    0  503  502  0.00000000000E+00  0.00000000000E+00  0.50943216886E+03  0.50943216886E+03  0.00000000000E+00 0.  1.
         21   -1    0    0  501  503 -0.00000000000E+00 -0.00000000000E+00 -0.59373113301E+02  0.59373113301E+02  0.00000000000E+00 0.  1.
          6    2    1    2  501    0  0.16888692946E+02  0.21345444086E+02  0.22572858281E+03  0.28484601856E+03  0.17158964206E+03 0.  0.
         24    2    3    3    0    0  0.61979080777E+02  0.28630065148E+02  0.21428121596E+03  0.23752434291E+03  0.76421769660E+02 0.  0.
         -6    2    1    2    0  502 -0.16888692946E+02 -0.21345444086E+02  0.22433047276E+03  0.28395926360E+03  0.17195303558E+03 0.  0.
        -24    2    5    5    0    0  0.42010885113E+02  0.29894594362E+02  0.11204058093E+03  0.14711697612E+03  0.80197952894E+02 0.  0.
          5    1    3    3  501    0 -0.45090387831E+02 -0.72846210621E+01  0.11447366846E+02  0.47321675652E+02  0.47000000000E+01 0. -1.
        -13    1    4    4    0    0  0.71339710947E+02 -0.78605608914E+00  0.14154283930E+03  0.15850661690E+03  0.00000000000E+00 0.  1.
         14    1    4    4    0    0 -0.93606301702E+01  0.29416121237E+02  0.72738376657E+02  0.79017726014E+02  0.00000000000E+00 0. -1.
         -5    1    5    5    0  502 -0.58899578059E+02 -0.51240038448E+02  0.11228989183E+03  0.13684228748E+03  0.47000000000E+01 0.  1.
         11    1    6    6    0    0  0.19576574036E+02  0.44336862983E+02  0.11018285697E+03  0.12037134891E+03  0.00000000000E+00 0. -1.
        -12    1    6    6    0    0  0.22434311077E+02 -0.14442268621E+02  0.18577239623E+01  0.26745627208E+02  0.00000000000E+00 0.  1.
</event>
<event>
12    1  0.8421768E-002  0.1735975E+03  0.7818608E-02  0.1174341E+00
         21   -1    0    0  503  502  0.00000000000E+00  0.00000000000E+00  0.80373671103E+03  0.80373671103E+03  0.00000000000E+00 0.  1.
         21   -1    0    0  501  503 -0.00000000000E+00 -0.00000000000E+00 -0.12481734374E+03  0.12481734374E+03  0.00000000000E+00 0.  1.
          6    2    1    2  501    0 -0.34555817055E+00  0.17778458036E+02 -0.49013058943E+02  0.18038397426E+03  0.17268440938E+03 0.  0.
         24    2    3    3    0    0 -0.81380742584E+00 -0.83909700483E+00 -0.99183865610E+02  0.12666216812E+03  0.78768643952E+02 0.  0.
         -6    2    1    2    0  502  0.34555817055E+00 -0.17778458036E+02  0.72793242623E+03  0.74817008051E+03  0.17192050265E+03 0.  0.
        -24    2    5    5    0    0 -0.33123376542E+02  0.38923007568E+02  0.55243753122E+03  0.56067134993E+03  0.80950467237E+02 0.  0.
          5    1    3    3  501    0  0.46824925529E+00  0.18617555041E+02  0.50170806667E+02  0.53721806138E+02  0.47000000000E+01 0. -1.
        -11    1    4    4    0    0 -0.12062382521E+01 -0.38987637666E+02 -0.62898072974E+02  0.74011205134E+02  0.00000000000E+00 0.  1.
         12    1    4    4    0    0  0.39243082626E+00  0.38148540661E+02 -0.36285792636E+02  0.52650962989E+02  0.00000000000E+00 0. -1.
         -5    1    5    5    0  502  0.33468934713E+02 -0.56701465604E+02  0.17549489501E+03  0.18749873058E+03  0.47000000000E+01 0.  1.
         11    1    6    6    0    0 -0.25539381955E+02  0.48151698493E+02  0.18068817115E+03  0.18873012820E+03  0.00000000000E+00 0. -1.
        -12    1    6    6    0    0 -0.75839945873E+01 -0.92286909257E+01  0.37174936007E+03  0.37194122173E+03  0.00000000000E+00 0.  1.
</event>
<event>
12    1  0.8421768E-002  0.1942081E+03  0.7818608E-02  0.1154839E+00
         21   -1    0    0  503  502  0.00000000000E+00  0.00000000000E+00  0.11375583979E+04  0.11375583979E+04  0.00000000000E+00 0. -1.
         21   -1    0    0  501  503 -0.00000000000E+00 -0.00000000000E+00 -0.33105637333E+02  0.33105637333E+02  0.00000000000E+00 0. -1.
          6    2    1    2  501    0  0.87771979366E+02  0.25548110137E+02  0.53057199300E+03  0.56481264797E+03  0.17073389019E+03 0.  0.
         24    2    3    3    0    0  0.11084843164E+03  0.61756763066E+02  0.38654587688E+03  0.41444908416E+03  0.79050969955E+02 0.  0.
         -6    2    1    2    0  502 -0.87771979366E+02 -0.25548110137E+02  0.57388076752E+03  0.60585138721E+03  0.17134801361E+03 0.  0.
        -24    2    5    5    0    0 -0.19042963623E+02 -0.39625589307E+02  0.47715348554E+03  0.48626831942E+03  0.82756316462E+02 0.  0.
          5    1    3    3  501    0 -0.23076452271E+02 -0.36208652929E+02  0.14402611612E+03  0.15036356381E+03  0.47000000000E+01 0. -1.
        -11    1    4    4    0    0  0.80502453786E+01  0.22586977880E+02  0.18417958497E+02  0.30235727470E+02  0.00000000000E+00 0.  1.
         12    1    4    4    0    0  0.10279818626E+03  0.39169785186E+02  0.36812791838E+03  0.38421335669E+03  0.00000000000E+00 0. -1.
         -5    1    5    5    0  502 -0.68729015743E+02  0.14077479169E+02  0.96727281980E+02  0.11958306780E+03  0.47000000000E+01 0.  1.
         13    1    6    6    0    0 -0.34224900760E+02 -0.26370570615E+02  0.45188942405E+03  0.45395022018E+03  0.00000000000E+00 0. -1.
        -14    1    6    6    0    0  0.15181937137E+02 -0.13255018692E+02  0.25264061485E+02  0.32318099239E+02  0.00000000000E+00 0.  1.
</event>
<event>
12    1  0.8421768E-002  0.1879187E+03  0.7818608E-02  0.1160421E+00
         21   -1    0    0  501  502  0.00000000000E+00  0.00000000000E+00  0.15802577519E+04  0.15802577519E+04  0.00000000000E+00 0. -1.
         21   -1    0    0  502  503 -0.00000000000E+00 -0.00000000000E+00 -0.28399878219E+02  0.28399878219E+02  0.00000000000E+00 0.  1.
         -6    2    1    2    0  503  0.73392778896E+02  0.18197833798E+02  0.40300324840E+03  0.44453547048E+03  0.17170470333E+03 0.  0.
        -24    2    3    3    0    0 -0.17724881341E+02  0.39124764001E+02  0.15566332308E+03  0.18007471144E+03  0.79692615540E+02 0.  0.
          6    2    1    2  501    0 -0.73392778896E+02 -0.18197833798E+02  0.11488546252E+04  0.11641221596E+04  0.17203427385E+03 0.  0.
         24    2    5    5    0    0 -0.62946225096E+02 -0.71113695657E+02  0.62751386433E+03  0.63997762046E+03  0.82330552029E+02 0.  0.
          5    1    5    5  501    0 -0.10446553800E+02  0.52915861859E+02  0.52134076091E+03  0.52414453914E+03  0.47000000000E+01 0. -1.
        -11    1    6    6    0    0  0.28643888291E+01 -0.43369892153E+02  0.12342331762E+03  0.13085284712E+03  0.00000000000E+00 0.  1.
         12    1    6    6    0    0 -0.65810613925E+02 -0.27743803505E+02  0.50409054671E+03  0.50912477333E+03  0.00000000000E+00 0. -1.
         -5    1    3    3    0  503  0.91117660237E+02 -0.20926930203E+02  0.24733992532E+03  0.26446075904E+03  0.47000000000E+01 0.  1.
         13    1    4    4    0    0 -0.17111081575E+01 -0.84535219454E+01  0.11540040773E+03  0.11572227110E+03  0.00000000000E+00 0. -1.
        -14    1    4    4    0    0 -0.16013773183E+02  0.47578285946E+02  0.40262915346E+02  0.64352440337E+02  0.00000000000E+00 0.  1.
</event>
<event>
12    1  0.8421768E-002  0.2165927E+03  0.7818608E-02  0.1137441E+00
         21   -1    0    0  501  502  0.00000000000E+00  0.00000000000E+00  0.36875902108E+02  0.36875902108E+02  0.00000000000E+00 0.  1.
         21   -1    0    0  502  503 -0.00000000000E+00 -0.00000000000E+00 -0.14841530438E+04  0.14841530438E+04  0.00000000000E+00 0.  1.
         -6    2    1    2    0  503  0.57953440217E+02 -0.10990269548E+03 -0.42381956339E+03  0.47595737914E+03  0.17741251572E+03 0.  0.
        -24    2    3    3    0    0  0.46388031624E+02 -0.55431694979E+02 -0.98725380934E+02  0.14609503506E+03  0.79828166352E+02 0.  0.
          6    2    1    2  501    0 -0.57953440217E+02  0.10990269548E+03 -0.10234575783E+04  0.10450715667E+04  0.17109050639E+03 0.  0.
         24    2    5    5    0    0 -0.12776160809E+02  0.32132279794E+01 -0.61969671270E+03  0.62498996083E+03  0.80092947851E+02 0.  0.
          5    1    5    5  501    0 -0.45177279408E+02  0.10668946751E+03 -0.40376086557E+03  0.42008160590E+03  0.47000000000E+01 0. -1.
        -13    1    6    6    0    0  0.29184244540E+02  0.70727833223E+01 -0.41019241524E+03  0.41129011891E+03  0.00000000000E+00 0.  1.
         14    1    6    6    0    0 -0.41960405349E+02 -0.38595553429E+01 -0.20950429745E+03  0.21369984192E+03  0.00000000000E+00 0. -1.
         -5    1    3    3    0  503  0.11565408593E+02 -0.54471000505E+02 -0.32509418246E+03  0.32986234407E+03  0.47000000000E+01 0.  1.
         13    1    4    4    0    0  0.18672378977E+02 -0.23452400191E+02 -0.99347883625E+02  0.10377222553E+03  0.00000000000E+00 0. -1.
        -14    1    4    4    0    0  0.27715652647E+02 -0.31979294788E+02  0.62250269159E+00  0.42322809529E+02  0.00000000000E+00 0.  1.
</event>
<event>
12    1  0.8421768E-002  0.2856140E+03  0.7818608E-02  0.1092877E+00
         21   -1    0    0  501  502  0.00000000000E+00  0.00000000000E+00  0.88429777756E+02  0.88429777756E+02  0.00000000000E+00 0.  1.
         21   -1    0    0  502  503 -0.00000000000E+00 -0.00000000000E+00 -0.92936937770E+03  0.92936937770E+03  0.00000000000E+00 0.  1.
         -6    2    1    2    0  503  0.22393832853E+01  0.22741034241E+03 -0.36127081936E+03  0.45953622770E+03  0.17010720435E+03 0.  0.
        -24    2    3    3    0    0 -0.57225430456E+02  0.16273240928E+03 -0.28765812451E+03  0.34481823456E+03  0.79973941785E+02 0.  0.
          6    2    1    2  501    0 -0.22393832853E+01 -0.22741034241E+03 -0.47966878058E+03  0.55826292776E+03  0.17278564401E+03 0.  0.
         24    2    5    5    0    0 -0.38243871174E+02 -0.21462636443E+03 -0.32231967060E+03  0.39627346621E+03  0.74937440419E+02 0.  0.
          5    1    5    5  501    0  0.36004487889E+02 -0.12783977980E+02 -0.15734910999E+03  0.16198946155E+03  0.47000000000E+01 0. -1.
        -11    1    6    6    0    0  0.95109242581E+01 -0.11931562833E+03 -0.13243109432E+03  0.17850678303E+03  0.00000000000E+00 0.  1.
         12    1    6    6    0    0 -0.47754795432E+02 -0.95310736094E+02 -0.18988857628E+03  0.21776668318E+03  0.00000000000E+00 0. -1.
         -5    1    3    3    0  503  0.59464813742E+02  0.64677933128E+02 -0.73612694847E+02  0.11471799314E+03  0.47000000000E+01 0.  1.
         11    1    4    4    0    0 -0.76701496789E+02  0.11264110822E+03 -0.21168246639E+03  0.25175505049E+03  0.00000000000E+00 0. -1.
        -12    1    4    4    0    0  0.19476066332E+02  0.50091301056E+02 -0.75975658126E+02  0.93063184069E+02  0.00000000000E+00 0.  1.
</event>
<event>
12    1  0.8421768E-002  0.1818652E+03  0.7818608E-02  0.1166095E+00
         21   -1    0    0  501  502  0.00000000000E+00  0.00000000000E+00  0.40099129354E+02  0.40099129354E+02  0.00000000000E+00 0.  1.
         21   -1    0    0  502  503 -0.00000000000E+00 -0.00000000000E+00 -0.11094914028E+04  0.11094914028E+04  0.00000000000E+00 0. -1.
         -6    2    1    2    0  503  0.57322243171E+02  0.10246015314E+02 -0.82627982102E+03  0.84598122572E+03  0.17191588423E+03 0.  0.
        -24    2    3    3    0    0  0.21379958066E+02  0.64112113752E+02 -0.35568889435E+03  0.37093247592E+03  0.80677421824E+02 0.  0.
          6    2    1    2  501    0 -0.57322243171E+02 -0.10246015314E+02 -0.24311245246E+03  0.30360930647E+03  0.17229081822E+03 0.  0.
         24    2    5    5    0    0 -0.86387651677E+02  0.36802615302E+02 -0.13864472826E+03  0.18531320757E+03  0.79381139897E+02 0.  0.
          5    1    5    5  501    0  0.29065408506E+02 -0.47048630616E+02 -0.10446772420E+03  0.11829609890E+03  0.47000000000E+01 0. -1.
        -13    1    6    6    0    0 -0.85553273571E+01 -0.14615042909E+01  0.99847493279E+01  0.13229695390E+02  0.00000000000E+00 0.  1.
         14    1    6    6    0    0 -0.77832324320E+02  0.38264119593E+02 -0.14862947758E+03  0.17208351218E+03  0.00000000000E+00 0. -1.
         -5    1    3    3    0  503  0.35942285104E+02 -0.53866098439E+02 -0.47059092667E+03  0.47504874980E+03  0.47000000000E+01 0.  1.
         11    1    4    4    0    0  0.33773855810E+00  0.86254683868E+01 -0.24657006079E+03  0.24672111311E+03  0.00000000000E+00 0. -1.
        -12    1    4    4    0    0  0.21042219508E+02  0.55486645365E+02 -0.10911883356E+03  0.12421136281E+03  0.00000000000E+00 0.  1.
</event>
<event>
12    1  0.8421768E-002  0.3223272E+03  0.7818608E-02  0.1074669E+00
         21   -1    0    0  501  502  0.00000000000E+00  0.00000000000E+00  0.10783836641E+03  0.10783836641E+03  0.00000000000E+00 0.  1.
         21   -1    0    0  502  503 -0.00000000000E+00 -0.00000000000E+00 -0.15831992825E+04  0.15831992825E+04  0.00000000000E+00 0. -1.
         -6    2    1    2    0  503  0.25803043859E+03 -0.87668285855E+02 -0.12681774989E+04  0.13084987525E+04  0.17213187089E+03 0.  0.
        -24    2    3    3    0    0  0.23654639491E+03 -0.66655380923E+02 -0.12422376355E+04  0.12685228495E+04  0.74824727576E+02 0.  0.
          6    2    1    2  501    0 -0.25803043859E+03  0.87668285855E+02 -0.20718341723E+03  0.38253889646E+03  0.17072083454E+03 0.  0.
         24    2    5    5    0    0 -0.24870788425E+03  0.11326189207E+03 -0.16474916398E+03  0.33189604358E+03  0.91262417400E+02 0.  0.
          5    1    5    5  501    0 -0.93225543401E+01 -0.25593606215E+02 -0.42434253252E+02  0.50642852877E+02  0.47000000000E+01 0. -1.
        -13    1    6    6    0    0 -0.84042123644E+02  0.23298427070E+01 -0.20661879311E+02  0.86576093527E+02  0.00000000000E+00 0.  1.
         14    1    6    6    0    0 -0.16466576061E+03  0.11093204936E+03 -0.14408728467E+03  0.24531995006E+03  0.00000000000E+00 0. -1.
         -5    1    3    3    0  503  0.21484043682E+02 -0.21012904932E+02 -0.25939863334E+02  0.39975902947E+02  0.47000000000E+01 0.  1.
         11    1    4    4    0    0  0.21393551089E+03 -0.67889479108E+02 -0.98303145583E+03  0.10083294240E+04  0.00000000000E+00 0. -1.
        -12    1    4    4    0    0  0.22610884017E+02  0.12340981850E+01 -0.25920617971E+03  0.26019342550E+03  0.00000000000E+00 0.  1.
</event>
<event>
12    1  0.8421768E-002  0.3453907E+03  0.7818608E-02  0.1064534E+00
         21   -1    0    0  501  502  0.00000000000E+00  0.00000000000E+00  0.65310801743E+03  0.65310801743E+03  0.00000000000E+00 0.  1.
         21   -1    0    0  502  503 -0.00000000000E+00 -0.00000000000E+00 -0.46606595627E+03  0.46606595627E+03  0.00000000000E+00 0.  1.
         -6    2    1    2    0  503 -0.27512218668E+03 -0.11819796526E+03  0.52993694562E+03  0.63255662492E+03  0.17213872545E+03 0.  0.
        -24    2    3    3    0    0 -0.18333413890E+03 -0.13670070716E+03  0.30138334361E+03  0.38552173636E+03  0.74139055675E+02 0.  0.
          6    2    1    2  501    0  0.27512218668E+03  0.11819796526E+03 -0.34289488446E+03  0.48661734878E+03  0.17192023078E+03 0.  0.
         24    2    5    5    0    0  0.16383640129E+03 -0.11322767424E+01 -0.16002338834E+03  0.24148818532E+03  0.76585967352E+02 0.  0.
          5    1    5    5  501    0  0.11128578539E+03  0.11933024200E+03 -0.18287149611E+03  0.24512916345E+03  0.47000000000E+01 0. -1.
        -13    1    6    6    0    0 -0.16985963839E+01 -0.10899658000E+02 -0.26111030708E+02  0.28345611633E+02  0.00000000000E+00 0.  1.
         14    1    6    6    0    0  0.16553499768E+03  0.97673812578E+01 -0.13391235763E+03  0.21314257369E+03  0.00000000000E+00 0. -1.
         -5    1    3    3    0  503 -0.91788047774E+02  0.18502741900E+02  0.22855360201E+03  0.24703488855E+03  0.47000000000E+01 0.  1.
         13    1    4    4    0    0  0.90950734325E+00 -0.26249190729E+01 -0.37680031003E+01  0.46813727806E+01  0.00000000000E+00 0. -1.
        -14    1    4    4    0    0 -0.18424364625E+03 -0.13407578808E+03  0.30515134671E+03  0.38084036358E+03  0.00000000000E+00 0.  1.
</event>
<event>
12    1  0.8421768E-002  0.1879896E+03  0.7818608E-02  0.1160831E+00
         21   -1    0    0  501  502  0.00000000000E+00  0.00000000000E+00  0.45518884457E+03  0.45518884457E+03  0.00000000000E+00 0.  1.
         21   -1    0    0  502  503 -0.00000000000E+00 -0.00000000000E+00 -0.23626131530E+03  0.23626131530E+03  0.00000000000E+00 0.  1.
         -6    2    1    2    0  503  0.58263929295E+02 -0.50822014051E+02 -0.17445807832E+03  0.25646777038E+03  0.17135499288E+03 0.  0.
        -24    2    3    3    0    0  0.86460522551E+02  0.68690102911E+01 -0.14089693485E+03  0.18386100409E+03  0.80189259335E+02 0.  0.
          6    2    1    2  501    0 -0.58263929295E+02  0.50822014051E+02  0.39338560758E+03  0.43498238948E+03  0.16875983034E+03 0.  0.
         24    2    5    5    0    0 -0.71870347020E+02  0.63553951696E+02  0.17106913709E+03  0.21183683184E+03  0.80035880107E+02 0.  0.
          5    1    5    5  501    0  0.13606417725E+02 -0.12731937645E+02  0.22231647050E+03  0.22314555764E+03  0.47000000000E+01 0. -1.
        -11    1    6    6    0    0 -0.42290464440E+02  0.68854901377E+02  0.71721845748E+02  0.10804399097E+03  0.00000000000E+00 0.  1.
         12    1    6    6    0    0 -0.29579882581E+02 -0.53009496813E+01  0.99347291341E+02  0.10379284088E+03  0.00000000000E+00 0. -1.
         -5    1    3    3    0  503 -0.28196593256E+02 -0.57691024342E+02 -0.33561143474E+02  0.72606766298E+02  0.47000000000E+01 0.  1.
         13    1    4    4    0    0  0.85939485569E+02  0.22302218566E+02 -0.75136955534E+02  0.11631227889E+03  0.00000000000E+00 0. -1.
        -14    1    4    4    0    0  0.52103698286E+00 -0.15433208275E+02 -0.65759979311E+02  0.67548725200E+02  0.00000000000E+00 0.  1.
</event>
<event>
12    1  0.8421768E-002  0.1753514E+03  0.7818608E-02  0.1172434E+00
         21   -1    0    0  503  502  0.00000000000E+00  0.00000000000E+00  0.11133516946E+04  0.11133516946E+04  0.00000000000E+00 0. -1.
         21   -1    0    0  501  503 -0.00000000000E+00 -0.00000000000E+00 -0.29077083842E+02  0.29077083842E+02  0.00000000000E+00 0. -1.
          6    2    1    2  501    0  0.13484019653E+02  0.32140888420E+02  0.41236035098E+03  0.44801041078E+03  0.17163162183E+03 0.  0.
         24    2    3    3    0    0  0.10344843176E+02 -0.46596189034E+02  0.18255077711E+03  0.20502088006E+03  0.80190737776E+02 0.  0.
         -6    2    1    2    0  502 -0.13484019653E+02 -0.32140888420E+02  0.67191425975E+03  0.69441836764E+03  0.17185238247E+03 0.  0.
        -24    2    5    5    0    0 -0.64863405903E+01  0.35924895861E+02  0.52488467050E+03  0.53217870351E+03  0.79859779502E+02 0.  0.
          5    1    3    3  501    0  0.31391764775E+01  0.78737077454E+02  0.22980957387E+03  0.24298953072E+03  0.47000000000E+01 0. -1.
        -13    1    4    4    0    0 -0.18738435418E+02  0.70527321699E+01  0.10795769582E+02  0.22746837887E+02  0.00000000000E+00 0.  1.
         14    1    4    4    0    0  0.29083278594E+02 -0.53648921204E+02  0.17175500753E+03  0.18227404217E+03  0.00000000000E+00 0. -1.
         -5    1    5    5    0  502 -0.69976790629E+01 -0.68065784281E+02  0.14702958925E+03  0.16223966413E+03  0.47000000000E+01 0.  1.
         13    1    6    6    0    0  0.18370301138E+02  0.32932131238E+02  0.47370494730E+03  0.47520350412E+03  0.00000000000E+00 0. -1.
        -14    1    6    6    0    0 -0.24856641729E+02  0.29927646238E+01  0.51179723198E+02  0.56975199383E+02  0.00000000000E+00 0.  1.
</event>
<event>
12    1  0.8421768E-002  0.2255590E+03  0.7818608E-02  0.1130055E+00
         21   -1    0    0  501  502  0.00000000000E+00  0.00000000000E+00  0.25167107780E+03  0.25167107780E+03  0.00000000000E+00 0.  1.
         21   -1    0    0  502  503 -0.00000000000E+00 -0.00000000000E+00 -0.30012004361E+03  0.30012004361E+03  0.00000000000E+00 0. -1.
         -6    2    1    2    0  503 -0.90981915996E+02  0.11464870643E+03  0.13444096327E+03  0.26140247380E+03  0.16980826181E+03 0.  0.
        -24    2    3    3    0    0 -0.65637372367E+02  0.98431531075E+01  0.10781623233E+03  0.15023810813E+03  0.80882611629E+02 0.  0.
          6    2    1    2  501    0  0.90981915996E+02 -0.11464870643E+03 -0.18288992909E+03  0.29038864761E+03  0.17162402389E+03 0.  0.
         24    2    5    5    0    0  0.11151170044E+02 -0.28596387286E+01 -0.10374992777E+03  0.13178545261E+03  0.80441481089E+02 0.  0.
          5    1    5    5  501    0  0.79830745951E+02 -0.11178906770E+03 -0.79140001318E+02  0.15860319500E+03  0.47000000000E+01 0. -1.
        -13    1    6    6    0    0 -0.12788784901E+02  0.24988174245E+00  0.95367768257E+01  0.15955111167E+02  0.00000000000E+00 0.  1.
         14    1    6    6    0    0  0.23939954945E+02 -0.31095204710E+01 -0.11328670459E+03  0.11583034144E+03  0.00000000000E+00 0. -1.
         -5    1    3    3    0  503 -0.25344543629E+02  0.10480555332E+03  0.26624730940E+02  0.11116436568E+03  0.47000000000E+01 0.  1.
         13    1    4    4    0    0 -0.16437263662E+01  0.14220664688E+00  0.79622133029E+02  0.79639224803E+02  0.00000000000E+00 0. -1.
        -14    1    4    4    0    0 -0.63993646001E+02  0.97009464606E+01  0.28194099305E+02  0.70598883322E+02  0.00000000000E+00 0.  1.
</event>
<event>
12    1  0.8421768E-002  0.1847728E+03  0.7818608E-02  0.1163417E+00
         21   -1    0    0  503  502  0.00000000000E+00  0.00000000000E+00  0.10302961539E+03  0.10302961539E+03  0.00000000000E+00 0. -1.
         21   -1    0    0  501  503 -0.00000000000E+00 -0.00000000000E+00 -0.39439650763E+03  0.39439650763E+03  0.00000000000E+00 0. -1.
          6    2    1    2  501    0 -0.16898027720E+02  0.63846797728E+02 -0.24625597170E+03  0.30786849187E+03  0.17256606782E+03 0.  0.
         24    2    3    3    0    0 -0.41717290142E+02  0.99048963807E+02 -0.14088219526E+03  0.19393469071E+03  0.78815238326E+02 0.  0.
         -6    2    1    2    0  502  0.16898027720E+02 -0.63846797728E+02 -0.45110920533E+02  0.18955763115E+03  0.17185791648E+03 0.  0.
        -24    2    5    5    0    0  0.64631001379E+02 -0.48055628779E+02  0.11399346969E+02  0.11377308046E+03  0.79547840501E+02 0.  0.
          5    1    3    3  501    0  0.24819262422E+02 -0.35202166079E+02 -0.10537377644E+03  0.11393380115E+03  0.47000000000E+01 0. -1.
        -13    1    4    4    0    0 -0.32150379748E+02 -0.26406882226E+00 -0.23187093321E+02  0.39640357554E+02  0.00000000000E+00 0.  1.
         14    1    4    4    0    0 -0.95669103933E+01  0.99313032629E+02 -0.11769510194E+03  0.15429433316E+03  0.00000000000E+00 0. -1.
         -5    1    5    5    0  502 -0.47732973660E+02 -0.15791168949E+02 -0.56510267502E+02  0.75784550697E+02  0.47000000000E+01 0.  1.
         13    1    6    6    0    0 -0.72580481352E+01  0.12367675737E+01  0.24541993295E+02  0.25622612897E+02  0.00000000000E+00 0. -1.
        -14    1    6    6    0    0  0.71889049515E+02 -0.49292396353E+02 -0.13142646326E+02  0.88150467558E+02  0.00000000000E+00 0.  1.
</event>
<event>
12    1  0.8421768E-002  0.1737167E+03  0.7818608E-02  0.1174742E+00
         21   -1    0    0  503  502  0.00000000000E+00  0.00000000000E+00  0.30766873273E+03  0.30766873273E+03  0.00000000000E+00 0. -1.
         21   -1    0    0  501  503 -0.00000000000E+00 -0.00000000000E+00 -0.13623919964E+03  0.13623919964E+03  0.00000000000E+00 0. -1.
          6    2    1    2  501    0  0.15880910593E+02  0.12719642006E+02 -0.33645364216E+02  0.17694495786E+03  0.17252105658E+03 0.  0.
         24    2    3    3    0    0 -0.16951630988E+02 -0.26233824730E+02 -0.71619601812E+02  0.11323090071E+03  0.81953024092E+02 0.  0.
         -6    2    1    2    0  502 -0.15880910593E+02 -0.12719642006E+02  0.20507489731E+03  0.26696297452E+03  0.16970422399E+03 0.  0.
        -24    2    5    5    0    0 -0.66414756674E+01  0.57610848779E+02  0.11477192294E+03  0.15203490017E+03  0.81110403027E+02 0.  0.
          5    1    3    3  501    0  0.32832541581E+02  0.38953466736E+02  0.37974237596E+02  0.63714057150E+02  0.47000000000E+01 0. -1.
        -13    1    4    4    0    0  0.28138580417E+02  0.71376744249E+01 -0.38042446304E+02  0.47853461995E+02  0.00000000000E+00 0.  1.
         14    1    4    4    0    0 -0.45090211406E+02 -0.33371499155E+02 -0.33577155509E+02  0.65377438712E+02  0.00000000000E+00 0. -1.
         -5    1    5    5    0  502 -0.92394349257E+01 -0.70330490786E+02  0.90302974374E+02  0.11492807435E+03  0.47000000000E+01 0.  1.
         11    1    6    6    0    0  0.94153773356E+01 -0.18560893074E+02  0.33939495861E+02  0.39812629420E+02  0.00000000000E+00 0. -1.
        -12    1    6    6    0    0 -0.16056853003E+02  0.76171741853E+02  0.80832427077E+02  0.11222227075E+03  0.00000000000E+00 0.  1.
</event>
<event>
12    1  0.8421768E-002  0.2325292E+03  0.7818608E-02  0.1124963E+00
         21   -1    0    0  503  502  0.00000000000E+00  0.00000000000E+00  0.24549667119E+03  0.24549667119E+03  0.00000000000E+00 0. -1.
         21   -1    0    0  501  503 -0.00000000000E+00 -0.00000000000E+00 -0.33548412779E+03  0.33548412779E+03  0.00000000000E+00 0. -1.
          6    2    1    2  501    0  0.14544626089E+03  0.56543003453E+02 -0.21557687901E+03  0.31670342357E+03  0.17168558964E+03 0.  0.
         24    2    3    3    0    0  0.10396559924E+02 -0.12457150483E+02 -0.77745739965E+02  0.11171816589E+03  0.78570219873E+02 0.  0.
         -6    2    1    2    0  502 -0.14544626089E+03 -0.56543003453E+02  0.12558942241E+03  0.26427737541E+03  0.17238939088E+03 0.  0.
        -24    2    5    5    0    0 -0.70653640219E+02 -0.98299984854E+02  0.85252394826E+02  0.16947891869E+03  0.82463987035E+02 0.  0.
          5    1    3    3  501    0  0.13504970097E+03  0.69000153936E+02 -0.13783113904E+03  0.20498525768E+03  0.47000000000E+01 0. -1.
        -11    1    4    4    0    0 -0.32637588962E+02  0.14620246997E+01 -0.46159927052E+02  0.56551645378E+02  0.00000000000E+00 0.  1.
         12    1    4    4    0    0  0.43034148886E+02 -0.13919175183E+02 -0.31585812913E+02  0.55166520513E+02  0.00000000000E+00 0. -1.
         -5    1    5    5    0  502 -0.74792620675E+02  0.41756981401E+02  0.40337027581E+02  0.94798456724E+02  0.47000000000E+01 0.  1.
         11    1    6    6    0    0 -0.76290492450E+02 -0.10974982818E+03  0.76515412324E+02  0.15401257204E+03  0.00000000000E+00 0. -1.
        -12    1    6    6    0    0  0.56368522317E+01  0.11449843328E+02  0.87369825019E+01  0.15466346645E+02  0.00000000000E+00 0.  1.
</event>
<event>
12    1  0.8421768E-002  0.1764790E+03  0.7818608E-02  0.1172040E+00
         21   -1    0    0  501  502  0.00000000000E+00  0.00000000000E+00  0.50312180049E+03  0.50312180049E+03  0.00000000000E+00 0.  1.
         21   -1    0    0  502  503 -0.00000000000E+00 -0.00000000000E+00 -0.12201624921E+03  0.12201624921E+03  0.00000000000E+00 0.  1.
         -6    2    1    2    0  503  0.44209728430E+01 -0.31497245452E+02 -0.31673366243E+02  0.17621569024E+03  0.17040289283E+03 0.  0.
        -24    2    3    3    0    0  0.62899159131E+02 -0.35060548833E+02 -0.44150312622E+02  0.11613108661E+03  0.79697132119E+02 0.  0.
          6    2    1    2  501    0 -0.44209728430E+01  0.31497245452E+02  0.41277891753E+03  0.44892235947E+03  0.17358925254E+03 0.  0.
         24    2    5    5    0    0 -0.56172256510E+02  0.45734519610E+02  0.34826649152E+03  0.36486976613E+03  0.81199928792E+02 0.  0.
          5    1    5    5  501    0  0.51751283667E+02 -0.14237274158E+02  0.64512426014E+02  0.84052593337E+02  0.47000000000E+01 0. -1.
        -11    1    6    6    0    0  0.11618144236E+02 -0.12569213779E+02  0.88648372036E+02  0.90285659300E+02  0.00000000000E+00 0.  1.
         12    1    6    6    0    0 -0.67790400746E+02  0.58303733389E+02  0.25961811948E+03  0.27458410683E+03  0.00000000000E+00 0. -1.
         -5    1    3    3    0  503 -0.58478186288E+02  0.35633033812E+01  0.12476946379E+02  0.60084603631E+02  0.47000000000E+01 0.  1.
         13    1    4    4    0    0  0.67934389550E+02 -0.36958563761E+02 -0.59630789223E+01  0.77566584488E+02  0.00000000000E+00 0. -1.
        -14    1    4    4    0    0 -0.50352304189E+01  0.18980149284E+01 -0.38187233700E+02  0.38564502119E+02  0.00000000000E+00 0.  1.
</event>
<event>
12    1  0.8421768E-002  0.2125637E+03  0.7818608E-02  0.1141138E+00
         21   -1    0    0  503  502  0.00000000000E+00  0.00000000000E+00  0.31141141180E+03  0.31141141180E+03  0.00000000000E+00 0. -1.
         21   -1    0    0  501  503 -0.00000000000E+00 -0.00000000000E+00 -0.53080908192E+03  0.53080908192E+03  0.00000000000E+00 0.  1.
          6    2    1    2  501    0  0.91335344386E+02  0.62243150474E+02 -0.47170580241E+03  0.51738736117E+03  0.18156806591E+03 0.  0.
         24    2    3    3    0    0 -0.81381424297E+01  0.22115086950E+02 -0.32219326919E+03  0.33331855976E+03  0.82081990347E+02 0.  0.
         -6    2    1    2    0  502 -0.91335344386E+02 -0.62243150474E+02  0.25230813229E+03  0.32483313255E+03  0.17216508201E+03 0.  0.
        -24    2    5    5    0    0 -0.31978736666E+02 -0.10185550377E+03  0.16811590673E+03  0.21436700082E+03  0.79328870513E+02 0.  0.
          5    1    3    3  501    0  0.99473486815E+02  0.40128063524E+02 -0.14951253322E+03  0.18406880141E+03  0.47000000000E+01 0. -1.
        -13    1    4    4    0    0  0.30274848870E+02  0.16025652286E+02 -0.23948236020E+03  0.24191979839E+03  0.00000000000E+00 0.  1.
         14    1    4    4    0    0 -0.38412991300E+02  0.60894346644E+01 -0.82710908987E+02  0.91398761374E+02  0.00000000000E+00 0. -1.
         -5    1    5    5    0  502 -0.59356607719E+02  0.39612353298E+02  0.84192225560E+02  0.11046613173E+03  0.47000000000E+01 0.  1.
         13    1    6    6    0    0  0.17956719351E+02 -0.73284146783E+02  0.93486321994E+02  0.12013618247E+03  0.00000000000E+00 0. -1.
        -14    1    6    6    0    0 -0.49935456018E+02 -0.28571356989E+02  0.74629584738E+02  0.94230818346E+02  0.00000000000E+00 0.  1.
</event>
<event>
12    1  0.8421768E-002  0.2305996E+03  0.7818608E-02  0.1126942E+00
         21   -1    0    0  501  502  0.00000000000E+00  0.00000000000E+00  0.12366283786E+04  0.12366283786E+04  0.00000000000E+00 0.  1.
         21   -1    0    0  502  503 -0.00000000000E+00 -0.00000000000E+00 -0.45309809700E+02  0.45309809700E+02  0.00000000000E+00 0. -1.
         -6    2    1    2    0  503 -0.14877479836E+03 -0.34432993711E+02  0.76740785682E+03  0.80130580838E+03  0.17279064835E+03 0.  0.
        -24    2    3    3    0    0 -0.13511957939E+03 -0.70890550737E+02  0.52868214652E+03  0.55938087534E+03  0.10059513273E+03 0.  0.
          6    2    1    2  501    0  0.14877479836E+03  0.34432993711E+02  0.42391071208E+03  0.48063237991E+03  0.16729501226E+03 0.  0.
         24    2    5    5    0    0  0.84781344429E+02  0.65921096951E+02  0.36373660397E+03  0.38719964433E+03  0.78011410194E+02 0.  0.
          5    1    5    5  501    0  0.63993453928E+02 -0.31488103241E+02  0.60174108109E+02  0.93432735580E+02  0.47000000000E+01 0. -1.
        -11    1    6    6    0    0  0.83348711099E+02  0.22907918805E+02  0.28017985473E+03  0.29321072863E+03  0.00000000000E+00 0.  1.
         12    1    6    6    0    0  0.14326333298E+01  0.43013178147E+02  0.83556749233E+02  0.93988915703E+02  0.00000000000E+00 0. -1.
         -5    1    3    3    0  503 -0.13655218963E+02  0.36457557026E+02  0.23872571029E+03  0.24192493303E+03  0.47000000000E+01 0.  1.
         13    1    4    4    0    0  0.17903737050E+01 -0.73422500606E+01 -0.18619816025E+01  0.77833829048E+01  0.00000000000E+00 0. -1.
        -14    1    4    4    0    0 -0.13690995310E+03 -0.63548300676E+02  0.53054412813E+03  0.55159749244E+03  0.00000000000E+00 0.  1.
</event>
<event>
12    1  0.8421768E-002  0.1989401E+03  0.7818608E-02  0.1150996E+00
         21   -1    0    0  501  502  0.00000000000E+00  0.00000000000E+00  0.40180163613E+03  0.40180163613E+03  0.00000000000E+00 0.  1.
         21   -1    0    0  502  503 -0.00000000000E+00 -0.00000000000E+00 -0.14802338640E+03  0.14802338640E+03  0.00000000000E+00 0.  1.
         -6    2    1    2    0  503 -0.40605478646E+02  0.89020226098E+02 -0.33099753354E+02  0.20167485024E+03  0.17321589418E+03 0.  0.
        -24    2    3    3    0    0 -0.83029929077E+02  0.59453541649E+02  0.15706369847E+02  0.13041370735E+03  0.79576078527E+02 0.  0.
          6    2    1    2  501    0  0.40605478646E+02 -0.89020226098E+02  0.28687800308E+03  0.34815017229E+03  0.17127798533E+03 0.  0.
         24    2    5    5    0    0  0.88267888582E+02 -0.36055340692E+02  0.17159261707E+03  0.21254119532E+03  0.81477148489E+02 0.  0.
          5    1    5    5  501    0 -0.47662409936E+02 -0.52964885405E+02  0.11528538601E+03  0.13560897697E+03  0.47000000000E+01 0. -1.
        -11    1    6    6    0    0  0.23425587972E+02 -0.21346094686E+02  0.13068967332E+03  0.13447752468E+03  0.00000000000E+00 0.  1.
         12    1    6    6    0    0  0.64842300609E+02 -0.14709246007E+02  0.40902943751E+02  0.78063670641E+02  0.00000000000E+00 0. -1.
         -5    1    3    3    0  503  0.42424450432E+02  0.29566684449E+02 -0.48806123201E+02  0.71261142887E+02  0.47000000000E+01 0.  1.
         13    1    4    4    0    0 -0.51252692225E+02  0.15179755750E+02  0.43795257965E+02  0.69103459140E+02  0.00000000000E+00 0. -1.
        -14    1    4    4    0    0 -0.31777236852E+02  0.44273785899E+02 -0.28088888118E+02  0.61310248209E+02  0.00000000000E+00 0.  1.
</event>
<event>
12    1  0.8421768E-002  0.2120289E+03  0.7818608E-02  0.1139975E+00
         21   -1    0    0  501  502  0.00000000000E+00  0.00000000000E+00  0.54705889595E+02  0.54705889595E+02  0.00000000000E+00 0. -1.
         21   -1    0    0  502  503 -0.00000000000E+00 -0.00000000000E+00 -0.96169079274E+03  0.96169079274E+03  0.00000000000E+00 0.  1.
         -6    2    1    2    0  503 -0.58830755559E+01  0.12331971783E+03 -0.64738233854E+03  0.68121053189E+03  0.17234132737E+03 0.  0.
        -24    2    3    3    0    0 -0.35822912482E+02  0.25107282391E+02 -0.16949914120E+03  0.19239920161E+03  0.79836315201E+02 0.  0.
          6    2    1    2  501    0  0.58830755559E+01 -0.12331971783E+03 -0.25960256460E+03  0.33518615044E+03  0.17237720417E+03 0.  0.
         24    2    5    5    0    0 -0.87771866573E+01 -0.29928381822E+02 -0.36937368017E+02  0.93238336441E+02  0.79726226439E+02 0.  0.
          5    1    5    5  501    0  0.14660262213E+02 -0.93391336008E+02 -0.22266519658E+03  0.24194781399E+03  0.47000000000E+01 0. -1.
        -11    1    6    6    0    0  0.32140830823E+02  0.24148045159E+01 -0.66009080893E+01  0.32900399305E+02  0.00000000000E+00 0.  1.
         12    1    6    6    0    0 -0.40918017480E+02 -0.32343186338E+02 -0.30336459928E+02  0.60337937136E+02  0.00000000000E+00 0. -1.
         -5    1    3    3    0  503  0.29939836926E+02  0.98212435439E+02 -0.47788319735E+03  0.48881133028E+03  0.47000000000E+01 0.  1.
         13    1    4    4    0    0 -0.22166413193E+02 -0.18260704105E+02 -0.12684686152E+03  0.13005740834E+03  0.00000000000E+00 0. -1.
        -14    1    4    4    0    0 -0.13656499289E+02  0.43367986496E+02 -0.42652279683E+02  0.62341793267E+02  0.00000000000E+00 0.  1.
</event>
<event>
12    1  0.8421768E-002  0.1794420E+03  0.7818608E-02  0.1169678E+00
         21   -1    0    0  501  502  0.00000000000E+00  0.00000000000E+00  0.11539810908E+04  0.11539810908E+04  0.00000000000E+00 0. -1.
         21   -1    0    0  502  503 -0.00000000000E+00 -0.00000000000E+00 -0.30859734852E+02  0.30859734852E+02  0.00000000000E+00 0. -1.
         -6    2    1    2    0  503  0.26122718746E+02 -0.11466138361E+02  0.34643875510E+03  0.38769888293E+03  0.17168792627E+03 0.  0.
        -24    2    3    3    0    0  0.13214203328E+02  0.20921956687E+02  0.69781345279E+02  0.10881354649E+03  0.79740882303E+02 0.  0.
          6    2    1    2  501    0 -0.26122718746E+02  0.11466138361E+02  0.77668260087E+03  0.79714194275E+03  0.17715966138E+03 0.  0.
         24    2    5    5    0    0  0.94280608998E+01 -0.47759263050E+02  0.28153508678E+03  0.29717728718E+03  0.81746555806E+02 0.  0.
          5    1    5    5  501    0 -0.35550779646E+02  0.59225401410E+02  0.49514751409E+03  0.49996465557E+03  0.47000000000E+01 0. -1.
        -11    1    6    6    0    0 -0.41533477782E+01 -0.11519057628E+02  0.24034971411E+03  0.24066143035E+03  0.00000000000E+00 0.  1.
         12    1    6    6    0    0  0.13581408678E+02 -0.36240205421E+02  0.41185372671E+02  0.56515856826E+02  0.00000000000E+00 0. -1.
         -5    1    3    3    0  503  0.12908515417E+02 -0.32388095048E+02  0.27665740982E+03  0.27888533644E+03  0.47000000000E+01 0.  1.
         13    1    4    4    0    0  0.13814544884E+02 -0.19265984453E+02 -0.47104718459E+01  0.24170402403E+02  0.00000000000E+00 0. -1.
        -14    1    4    4    0    0 -0.60034155574E+00  0.40187941141E+02  0.74491817125E+02  0.84643144091E+02  0.00000000000E+00 0.  1.
</event>
<event>
12    1  0.8421768E-002  0.2916787E+03  0.7818608E-02  0.1089933E+00
         21   -1    0    0  501  502  0.00000000000E+00  0.00000000000E+00  0.19346890336E+03  0.19346890336E+03  0.00000000000E+00 0. -1.
         21   -1    0    0  502  503 -0.00000000000E+00 -0.00000000000E+00 -0.53226905535E+03  0.53226905535E+03  0.00000000000E+00 0.  1.
         -6    2    1    2    0  503  0.13972107531E+02  0.23454703755E+03 -0.32410300929E+03  0.43368926086E+03  0.16684148688E+03 0.  0.
        -24    2    3    3    0    0  0.16303339096E+02  0.25437780406E+03 -0.29779428845E+03  0.40032861439E+03  0.81287730964E+02 0.  0.
          6    2    1    2  501    0 -0.13972107531E+02 -0.23454703755E+03 -0.14697142707E+02  0.29204869785E+03  0.17282622283E+03 0.  0.
         24    2    5    5    0    0 -0.35946489183E+02 -0.50073515280E+02 -0.34615503263E+02  0.10514715972E+03  0.77834344045E+02 0.  0.
          5    1    5    5  501    0  0.21974381653E+02 -0.18447352227E+03  0.19918360556E+02  0.18690153813E+03  0.47000000000E+01 0. -1.
        -13    1    6    6    0    0 -0.32140924276E+02  0.14022493762E+02 -0.12955069906E+02  0.37383193830E+02  0.00000000000E+00 0.  1.
         14    1    6    6    0    0 -0.38055649070E+01 -0.64096009041E+02 -0.21660433357E+02  0.67763965886E+02  0.00000000000E+00 0. -1.
         -5    1    3    3    0  503 -0.23312315651E+01 -0.19830766505E+02 -0.26308720838E+02  0.33360646470E+02  0.47000000000E+01 0.  1.
         13    1    4    4    0    0  0.63173667567E+01  0.40551854133E+02 -0.11060409694E+02  0.42505230960E+02  0.00000000000E+00 0. -1.
        -14    1    4    4    0    0  0.99859723393E+01  0.21382594992E+03 -0.28673387876E+03  0.35782338343E+03  0.00000000000E+00 0.  1.
</event>
<event>
12    1  0.8421768E-002  0.2015831E+03  0.7818608E-02  0.1148411E+00
         21   -1    0    0  501  502  0.00000000000E+00  0.00000000000E+00  0.34595514314E+03  0.34595514314E+03  0.00000000000E+00 0.  1.
         21   -1    0    0  502  503 -0.00000000000E+00 -0.00000000000E+00 -0.17686279330E+03  0.17686279330E+03  0.00000000000E+00 0. -1.
         -6    2    1    2    0  503  0.91447607234E+02 -0.51236695077E+02 -0.66953663333E+02  0.21241129687E+03  0.17218566204E+03 0.  0.
        -24    2    3    3    0    0  0.72512486250E+02 -0.57852274898E+02 -0.10937025417E+03  0.16525663770E+03  0.82115512761E+02 0.  0.
          6    2    1    2  501    0 -0.91447607234E+02  0.51236695077E+02  0.23604601317E+03  0.31040663957E+03  0.17218216448E+03 0.  0.
         24    2    5    5    0    0 -0.27479600420E+02 -0.12178596684E+02  0.19277444078E+03  0.21036702690E+03  0.78669271863E+02 0.  0.
          5    1    5    5  501    0 -0.63968006814E+02  0.63415291760E+02  0.43271572396E+02  0.10003961267E+03  0.47000000000E+01 0. -1.
        -13    1    6    6    0    0 -0.43627985437E+02 -0.29372264464E+02  0.16850985380E+03  0.17652677378E+03  0.00000000000E+00 0.  1.
         14    1    6    6    0    0  0.16148385017E+02  0.17193667780E+02  0.24264586972E+02  0.33840253121E+02  0.00000000000E+00 0. -1.
         -5    1    3    3    0  503  0.18935120985E+02  0.66155798216E+01  0.42416590834E+02  0.47154659166E+02  0.47000000000E+01 0.  1.
         11    1    4    4    0    0  0.27550588431E+02  0.12202645022E+02 -0.31375119484E+01  0.30294940992E+02  0.00000000000E+00 0. -1.
        -12    1    4    4    0    0  0.44961897818E+02 -0.70054919921E+02 -0.10623274222E+03  0.13496169671E+03  0.00000000000E+00 0.  1.
</event>
<event>
12    1  0.8421768E-002  0.1805040E+03  0.7818608E-02  0.1167651E+00
         21   -1    0    0  503  502  0.00000000000E+00  0.00000000000E+00  0.55299042381E+03  0.55299042381E+03  0.00000000000E+00 0.  1.
         21   -1    0    0  501  503 -0.00000000000E+00 -0.00000000000E+00 -0.22238872390E+03  0.22238872390E+03  0.00000000000E+00 0.  1.
          6    2    1    2  501    0  0.48933642655E+02  0.12824023618E+02 -0.16771264641E+03  0.24538020196E+03  0.17182827120E+03 0.  0.
         24    2    3    3    0    0  0.73048691626E+02 -0.43667860197E+02 -0.95851620178E+02  0.15072838944E+03  0.79300195011E+02 0.  0.
         -6    2    1    2    0  502 -0.48933642655E+02 -0.12824023618E+02  0.49831434632E+03  0.52999894575E+03  0.17327070665E+03 0.  0.
        -24    2    5    5    0    0 -0.34013639974E+02  0.70131224775E+01  0.10800133771E+03  0.13886923128E+03  0.80089093264E+02 0.  0.
          5    1    3    3  501    0 -0.24115048970E+02  0.56491883815E+02 -0.71861026230E+02  0.94651812527E+02  0.47000000000E+01 0. -1.
        -11    1    4    4    0    0 -0.11295357406E+02  0.69566280506E+01 -0.28715783066E+02  0.31631882173E+02  0.00000000000E+00 0.  1.
         12    1    4    4    0    0  0.84344049032E+02 -0.50624488248E+02 -0.67135837112E+02  0.11909650726E+03  0.00000000000E+00 0. -1.
         -5    1    5    5    0  502 -0.14920002682E+02 -0.19837146095E+02  0.39031300861E+03  0.39112971446E+03  0.47000000000E+01 0.  1.
         11    1    6    6    0    0 -0.55477762213E+02  0.20133263364E+02  0.57241092125E+02  0.82217230685E+02  0.00000000000E+00 0. -1.
        -12    1    6    6    0    0  0.21464122239E+02 -0.13120140887E+02  0.50760245583E+02  0.56652000600E+02  0.00000000000E+00 0.  1.
</event>
<event>
12    1  0.8421768E-002  0.2333417E+03  0.7818608E-02  0.1124390E+00
         21   -1    0    0  501  502  0.00000000000E+00  0.00000000000E+00  0.12651324146E+04  0.12651324146E+04  0.00000000000E+00 0.  1.
         21   -1    0    0  502  503 -0.00000000000E+00 -0.00000000000E+00 -0.44732580540E+02  0.44732580540E+02  0.00000000000E+00 0.  1.
         -6    2    1    2    0  503  0.15489251193E+03  0.25846591165E+02  0.48010370630E+03  0.53380513109E+03  0.17259377929E+03 0.  0.
        -24    2    3    3    0    0  0.24707606638E+02  0.35219999236E+02  0.28546438376E+03  0.29940690962E+03  0.79395648284E+02 0.  0.
          6    2    1    2  501    0 -0.15489251193E+03 -0.25846591165E+02  0.74029612776E+03  0.77605986405E+03  0.17196167969E+03 0.  0.
         24    2    5    5    0    0 -0.58177776646E+02 -0.45603482718E+02  0.52908539460E+03  0.54287294635E+03  0.96516059614E+02 0.  0.
          5    1    5    5  501    0 -0.96714735289E+02  0.19756891553E+02  0.21121073316E+03  0.23318691770E+03  0.47000000000E+01 0. -1.
        -13    1    6    6    0    0 -0.77442752090E+02 -0.46184162336E+02  0.49943170591E+03  0.50750604486E+03  0.00000000000E+00 0.  1.
         14    1    6    6    0    0  0.19264975445E+02  0.58067961775E+00  0.29653688689E+02  0.35366901484E+02  0.00000000000E+00 0. -1.
         -5    1    3    3    0  503  0.13018490530E+03 -0.93734080705E+01  0.19463932254E+03  0.23439822146E+03  0.47000000000E+01 0.  1.
         11    1    4    4    0    0 -0.94591568836E+01 -0.68869846437E+01  0.34100791404E+01  0.12187487279E+02  0.00000000000E+00 0. -1.
        -12    1    4    4    0    0  0.34166763521E+02  0.42106983879E+02  0.28205430461E+03  0.28721942235E+03  0.00000000000E+00 0.  1.
</event>
<event>
12    1  0.8421768E-002  0.2147439E+03  0.7818608E-02  0.1137883E+00
         21   -1    0    0  501  502  0.00000000000E+00  0.00000000000E+00  0.75361287580E+03  0.75361287580E+03  0.00000000000E+00 0. -1.
         21   -1    0    0  502  503 -0.00000000000E+00 -0.00000000000E+00 -0.69082309635E+02  0.69082309635E+02  0.00000000000E+00 0.  1.
         -6    2    1    2    0  503  0.31990437557E+02 -0.12462377987E+03  0.20306041699E+03  0.29554775634E+03  0.17193158153E+03 0.  0.
        -24    2    3    3    0    0  0.40520008152E+02 -0.35902829372E+02  0.30717818297E+02  0.10146472783E+03  0.80128786432E+02 0.  0.
          6    2    1    2  501    0 -0.31990437557E+02  0.12462377987E+03  0.48147014918E+03  0.52714742909E+03  0.17180347159E+03 0.  0.
         24    2    5    5    0    0  0.38698888816E+02  0.10856608297E+03  0.35316210958E+03  0.37970295305E+03  0.78528074855E+02 0.  0.
          5    1    5    5  501    0 -0.70689326374E+02  0.16057696895E+02  0.12830803959E+03  0.14744447605E+03  0.47000000000E+01 0. -1.
        -13    1    6    6    0    0 -0.21785427837E+02  0.15759093899E+02  0.47439316814E+02  0.54529282834E+02  0.00000000000E+00 0.  1.
         14    1    6    6    0    0  0.60484316654E+02  0.92806989074E+02  0.30572279277E+03  0.32517367021E+03  0.00000000000E+00 0. -1.
         -5    1    3    3    0  503 -0.85295705943E+01 -0.88720950497E+02  0.17234259869E+03  0.19408302851E+03  0.47000000000E+01 0.  1.
         11    1    4    4    0    0 -0.18815798197E+02  0.85355858718E+01  0.15394486799E+02  0.25765882709E+02  0.00000000000E+00 0. -1.
        -12    1    4    4    0    0  0.59335806349E+02 -0.44438415244E+02  0.15323331499E+02  0.75698845121E+02  0.00000000000E+00 0.  1.
</event>
<event>
12    1  0.8421768E-002  0.1918684E+03  0.7818608E-02  0.1157035E+00
         21   -1    0    0  501  502  0.00000000000E+00  0.00000000000E+00  0.18317726064E+04  0.18317726064E+04  0.00000000000E+00 0. -1.
         21   -1    0    0  502  503 -0.00000000000E+00 -0.00000000000E+00 -0.34809605066E+02  0.34809605066E+02  0.00000000000E+00 0.  1.
         -6    2    1    2    0  503 -0.81575141421E+02  0.15173688101E+02  0.28783776801E+03  0.34530891200E+03  0.17176413917E+03 0.  0.
        -24    2    3    3    0    0 -0.63466870247E+02  0.68481463851E+02  0.24622025611E+03  0.27513957584E+03  0.79747207873E+02 0.  0.
          6    2    1    2  501    0  0.81575141421E+02 -0.15173688101E+02  0.15091252333E+04  0.15212732995E+04  0.17299924077E+03 0.  0.
         24    2    5    5    0    0  0.10393845576E+03 -0.20624627215E+02  0.14674982327E+04  0.14734744737E+04  0.79670469919E+02 0.  0.
          5    1    5    5  501    0 -0.22363314343E+02  0.54509391147E+01  0.41627000627E+02  0.47798825790E+02  0.47000000000E+01 0. -1.
        -13    1    6    6    0    0  0.21728500077E+02 -0.21106445436E+02  0.13127793728E+03  0.13472752715E+03  0.00000000000E+00 0.  1.
         14    1    6    6    0    0  0.82209955688E+02  0.48181822053E+00  0.13362202954E+04  0.13387469465E+04  0.00000000000E+00 0. -1.
         -5    1    3    3    0  503 -0.18108271174E+02 -0.53307775751E+02  0.41617511899E+02  0.70169336159E+02  0.47000000000E+01 0.  1.
         11    1    4    4    0    0 -0.68035282803E+02  0.37921373964E+02  0.22378908634E+03  0.23695650545E+03  0.00000000000E+00 0. -1.
        -12    1    4    4    0    0  0.45684125559E+01  0.30560089887E+02  0.22431169771E+02  0.38183070391E+02  0.00000000000E+00 0.  1.
</event>
<event>
12    1  0.8421768E-002  0.2234453E+03  0.7818608E-02  0.1131396E+00
         21   -1    0    0  503  502  0.00000000000E+00  0.00000000000E+00  0.36377549111E+03  0.36377549111E+03  0.00000000000E+00 0. -1.
         21   -1    0    0  501  503 -0.00000000000E+00 -0.00000000000E+00 -0.39199980925E+03  0.39199980925E+03  0.00000000000E+00 0. -1.
          6    2    1    2  501    0  0.14357852071E+02  0.14155293877E+03 -0.31886108577E+03  0.38935867067E+03  0.17229161330E+03 0.  0.
         24    2    3    3    0    0 -0.14339408533E+02  0.68228496133E+02 -0.66770675605E+02  0.12521539221E+03  0.79748510989E+02 0.  0.
         -6    2    1    2    0  502 -0.14357852071E+02 -0.14155293877E+03  0.29063676763E+03  0.36641662969E+03  0.17189541420E+03 0.  0.
        -24    2    5    5    0    0  0.25660538874E+02 -0.11446932211E+03  0.29067197685E+03  0.31786680842E+03  0.52796030264E+02 0.  0.
          5    1    3    3  501    0  0.28697260604E+02  0.73324442639E+02 -0.25209041017E+03  0.26414327845E+03  0.47000000000E+01 0. -1.
        -11    1    4    4    0    0 -0.16135620765E+02 -0.11866707780E+02  0.13209696749E+01  0.20072916377E+02  0.00000000000E+00 0.  1.
         12    1    4    4    0    0  0.17962122314E+01  0.80095203913E+02 -0.68091645280E+02  0.10514247584E+03  0.00000000000E+00 0. -1.
         -5    1    5    5    0  502 -0.40018390944E+02 -0.27083616664E+02 -0.35209221835E-01  0.48549821267E+02  0.47000000000E+01 0.  1.
         13    1    6    6    0    0  0.35143648895E+02 -0.10984456585E+03  0.24215978972E+03  0.26822055936E+03  0.00000000000E+00 0. -1.
        -14    1    6    6    0    0 -0.94831100218E+01 -0.46247562579E+01  0.48512187131E+02  0.49646249066E+02  0.00000000000E+00 0.  1.
</event>
<event>
12    1  0.8421768E-002  0.2089713E+03  0.7818608E-02  0.1142710E+00
         21   -1    0    0  501  502  0.00000000000E+00  0.00000000000E+00  0.42162383516E+02  0.42162383516E+02  0.00000000000E+00 0.  1.
         21   -1    0    0  502  503 -0.00000000000E+00 -0.00000000000E+00 -0.12131351438E+04  0.12131351438E+04  0.00000000000E+00 0. -1.
         -6    2    1    2    0  503  0.41732221316E+02  0.10840084173E+03 -0.83284854405E+03  0.85866508120E+03  0.17371443108E+03 0.  0.
        -24    2    3    3    0    0  0.92132497030E+02  0.80111307576E+02 -0.50946156524E+03  0.53012023860E+03  0.81056537730E+02 0.  0.
          6    2    1    2  501    0 -0.41732221316E+02 -0.10840084173E+03 -0.33812421624E+03  0.39663244612E+03  0.17174688039E+03 0.  0.
         24    2    5    5    0    0 -0.29801572459E+02 -0.68640600332E+02 -0.33650200165E+03  0.35482408860E+03  0.84064683445E+02 0.  0.
          5    1    5    5  501    0 -0.11930648856E+02 -0.39760241399E+02 -0.16222145907E+01  0.41808357519E+02  0.47000000000E+01 0. -1.
        -11    1    6    6    0    0 -0.54290543845E+02 -0.67987483368E+02 -0.24078398340E+03  0.25602087358E+03  0.00000000000E+00 0.  1.
         12    1    6    6    0    0  0.24488971386E+02 -0.65311696367E+00 -0.95718018246E+02  0.98803215020E+02  0.00000000000E+00 0. -1.
         -5    1    3    3    0  503 -0.50400275714E+02  0.28289534155E+02 -0.32338697881E+03  0.32854484260E+03  0.47000000000E+01 0.  1.
         11    1    4    4    0    0  0.75415907527E+02  0.41725524709E+02 -0.19920080145E+03  0.21704731701E+03  0.00000000000E+00 0. -1.
        -12    1    4    4    0    0  0.16716589503E+02  0.38385782866E+02 -0.31026076378E+03  0.31307292159E+03  0.00000000000E+00 0.  1.
</event>
<event>
12    1  0.8421768E-002  0.2202551E+03  0.7818608E-02  0.1133813E+00
         21   -1    0    0  501  502  0.00000000000E+00  0.00000000000E+00  0.77738105751E+02  0.77738105751E+02  0.00000000000E+00 0.  1.
         21   -1    0    0  502  503 -0.00000000000E+00 -0.00000000000E+00 -0.64580832113E+03  0.64580832113E+03  0.00000000000E+00 0. -1.
         -6    2    1    2    0  503 -0.74408741694E+02 -0.11582629516E+03 -0.21530842989E+03  0.30800978469E+03  0.17192997409E+03 0.  0.
        -24    2    3    3    0    0  0.25305461787E+02 -0.68670778800E+02 -0.13775317593E+03  0.17308953967E+03  0.75020057362E+02 0.  0.
          6    2    1    2  501    0  0.74408741694E+02  0.11582629516E+03 -0.35276178548E+03  0.41553664219E+03  0.17110649378E+03 0.  0.
         24    2    5    5    0    0  0.36289008570E+02  0.12505061285E+03 -0.17017135802E+03  0.22872241283E+03  0.80006894226E+02 0.  0.
          5    1    5    5  501    0  0.38119733124E+02 -0.92243176894E+01 -0.18259042746E+03  0.18681422936E+03  0.47000000000E+01 0. -1.
        -11    1    6    6    0    0  0.51554283518E+02  0.11705276605E+03 -0.16830215869E+03  0.21138782086E+03  0.00000000000E+00 0.  1.
         12    1    6    6    0    0 -0.15265274948E+02  0.79978468022E+01 -0.18691993325E+01  0.17334591972E+02  0.00000000000E+00 0. -1.
         -5    1    3    3    0  503 -0.99714203482E+02 -0.47155516360E+02 -0.77555253965E+02  0.13492024502E+03  0.47000000000E+01 0.  1.
         13    1    4    4    0    0 -0.21825751771E+02 -0.13940474098E+02 -0.67641142540E+02  0.72429444445E+02  0.00000000000E+00 0. -1.
        -14    1    4    4    0    0  0.47131213559E+02 -0.54730304702E+02 -0.70112033387E+02  0.10066009522E+03  0.00000000000E+00 0.  1.
</event>
<event>
12    1  0.8421768E-002  0.1867641E+03  0.7818608E-02  0.1161855E+00
         21   -1    0    0  501  502  0.00000000000E+00  0.00000000000E+00  0.22786612470E+03  0.22786612470E+03  0.00000000000E+00 0.  1.
         21   -1    0    0  502  503 -0.00000000000E+00 -0.00000000000E+00 -0.15974184749E+03  0.15974184749E+03  0.00000000000E+00 0.  1.
         -6    2    1    2    0  503 -0.48693914147E+02  0.51724411992E+02 -0.97495092880E+01  0.18701835710E+03  0.17272608631E+03 0.  0.
        -24    2    3    3    0    0 -0.30769469036E+02  0.35694844689E+02  0.59401720760E+02  0.11365477365E+03  0.84663811520E+02 0.  0.
          6    2    1    2  501    0  0.48693914147E+02 -0.51724411992E+02  0.77873786495E+02  0.20058961509E+03  0.17066152170E+03 0.  0.
         24    2    5    5    0    0  0.45999767435E+02 -0.82975981307E+02  0.77571532330E+01  0.12363280077E+03  0.78891722769E+02 0.  0.
          5    1    5    5  501    0  0.26941467121E+01  0.31251569316E+02  0.70116633262E+02  0.76956814326E+02  0.47000000000E+01 0. -1.
        -13    1    6    6    0    0  0.39513799769E+02 -0.16325379275E+02  0.30932983230E+02  0.52770330984E+02  0.00000000000E+00 0.  1.
         14    1    6    6    0    0  0.64859676662E+01 -0.66650602032E+02 -0.23175829997E+02  0.70862469784E+02  0.00000000000E+00 0. -1.
         -5    1    3    3    0  503 -0.17924445111E+02  0.16029567302E+02 -0.69151230048E+02  0.73363583457E+02  0.47000000000E+01 0.  1.
         13    1    4    4    0    0 -0.11191480269E+02  0.39288821303E+02 -0.94946897108E+01  0.41940551292E+02  0.00000000000E+00 0. -1.
        -14    1    4    4    0    0 -0.19577988767E+02 -0.35939766135E+01  0.68896410471E+02  0.71714222354E+02  0.00000000000E+00 0.  1.
</event>
<event>
12    1  0.8421768E-002  0.2417807E+03  0.7818608E-02  0.1118694E+00
         21   -1    0    0  501  502  0.00000000000E+00  0.00000000000E+00  0.11065154372E+04  0.11065154372E+04  0.00000000000E+00 0.  1.
         21   -1    0    0  502  503 -0.00000000000E+00 -0.00000000000E+00 -0.66113545126E+02  0.66113545126E+02  0.00000000000E+00 0. -1.
         -6    2    1    2    0  503  0.41132364944E+02 -0.16427259153E+03  0.25675462569E+03  0.35267669094E+03  0.17257043415E+03 0.  0.
        -24    2    3    3    0    0 -0.26138971979E+02 -0.90726202914E+02  0.20601168672E+03  0.24073277683E+03  0.81221702920E+02 0.  0.
          6    2    1    2  501    0 -0.41132364944E+02  0.16427259153E+03  0.78364726638E+03  0.81995229138E+03  0.17187602006E+03 0.  0.
         24    2    5    5    0    0 -0.16111720317E+02  0.51749760878E+02  0.55095173139E+03  0.56022797201E+03  0.85848383846E+02 0.  0.
          5    1    5    5  501    0 -0.25020644627E+02  0.11252283065E+03  0.23269553499E+03  0.25972431938E+03  0.47000000000E+01 0. -1.
        -13    1    6    6    0    0 -0.24215257801E+02  0.21159552371E+02  0.58462431838E+02  0.66723019291E+02  0.00000000000E+00 0.  1.
         14    1    6    6    0    0  0.81035374847E+01  0.30590208506E+02  0.49248929956E+03  0.49350495271E+03  0.00000000000E+00 0. -1.
         -5    1    3    3    0  503  0.67271336923E+02 -0.73546388612E+02  0.50742938969E+02  0.11194391410E+03  0.47000000000E+01 0.  1.
         13    1    4    4    0    0 -0.44244583818E+02 -0.92141718238E+02  0.14740271920E+03  0.17937458311E+03  0.00000000000E+00 0. -1.
        -14    1    4    4    0    0  0.18105611839E+02  0.14155153241E+01  0.58608967517E+02  0.61358193724E+02  0.00000000000E+00 0.  1.
</event>
<event>
12    1  0.8421768E-002  0.1821714E+03  0.7818608E-02  0.1165841E+00
         21   -1    0    0  503  502  0.00000000000E+00  0.00000000000E+00  0.56437475603E+03  0.56437475603E+03  0.00000000000E+00 0.  1.
         21   -1    0    0  501  503 -0.00000000000E+00 -0.00000000000E+00 -0.90479420566E+02  0.90479420566E+02  0.00000000000E+00 0.  1.
          6    2    1    2  501    0  0.49708641333E+02  0.33883179840E+02  0.42919217006E+02  0.18715898526E+03  0.17195175973E+03 0.  0.
         24    2    3    3    0    0  0.47680913063E+01 -0.31087066426E+02 -0.29289464255E+02  0.80028365984E+02  0.67509453058E+02 0.  0.
         -6    2    1    2    0  502 -0.49708641333E+02 -0.33883179840E+02  0.43097611846E+03  0.46769519134E+03  0.17140407936E+03 0.  0.
        -24    2    5    5    0    0 -0.86073115205E+02 -0.27842185556E+02  0.19362461391E+03  0.22745219918E+03  0.77847564769E+02 0.  0.
          5    1    3    3  501    0  0.44940550027E+02  0.64970246266E+02  0.72208681261E+02  0.10713061927E+03  0.47000000000E+01 0. -1.
        -11    1    4    4    0    0  0.21180519875E+02 -0.28985326777E+02  0.10109710147E+02  0.37295707927E+02  0.00000000000E+00 0.  1.
         12    1    4    4    0    0 -0.16412428569E+02 -0.21017396492E+01 -0.39399174402E+02  0.42732658057E+02  0.00000000000E+00 0. -1.
         -5    1    5    5    0  502  0.36364473872E+02 -0.60409942848E+01  0.23735150454E+03  0.24024299216E+03  0.47000000000E+01 0.  1.
         13    1    6    6    0    0 -0.34371445039E+00  0.20154560017E+02  0.23191458517E+02  0.30727319721E+02  0.00000000000E+00 0. -1.
        -14    1    6    6    0    0 -0.85729400755E+02 -0.47996745572E+02  0.17043315540E+03  0.19672487946E+03  0.00000000000E+00 0.  1.
</event>
<event>
12    1  0.8421768E-002  0.1728658E+03  0.7818608E-02  0.1175571E+00
         21   -1    0    0  501  502  0.00000000000E+00  0.00000000000E+00  0.14642861875E+03  0.14642861875E+03  0.00000000000E+00 0. -1.
         21   -1    0    0  502  503 -0.00000000000E+00 -0.00000000000E+00 -0.33787834766E+03  0.33787834766E+03  0.00000000000E+00 0. -1.
         -6    2    1    2    0  503  0.14113979262E+02 -0.47296044287E+01 -0.25030410003E+03  0.30419519860E+03  0.17222369985E+03 0.  0.
        -24    2    3    3    0    0 -0.34711265074E+01 -0.44026118452E+02 -0.70467088409E+02  0.11921711150E+03  0.85421082289E+02 0.  0.
          6    2    1    2  501    0 -0.14113979262E+02  0.47296044287E+01  0.58854371121E+02  0.18011176781E+03  0.16957251645E+03 0.  0.
         24    2    5    5    0    0  0.42526532167E+02  0.37780557190E+02  0.10033089958E+02  0.98220861672E+02  0.79440533317E+02 0.  0.
          5    1    5    5  501    0 -0.56640511429E+02 -0.33050952761E+02  0.48821281164E+02  0.81890906137E+02  0.47000000000E+01 0. -1.
        -13    1    6    6    0    0  0.52525795349E+01  0.10776056698E+02 -0.33061262702E+02  0.35167599878E+02  0.00000000000E+00 0.  1.
         14    1    6    6    0    0  0.37273952633E+02  0.27004500492E+02  0.43094352660E+02  0.63053261794E+02  0.00000000000E+00 0. -1.
         -5    1    3    3    0  503  0.17585105769E+02  0.39296514024E+02 -0.17983701162E+03  0.18497808710E+03  0.47000000000E+01 0.  1.
         13    1    4    4    0    0 -0.11511311563E+02  0.24043057943E+02 -0.12466410259E+02  0.29427713365E+02  0.00000000000E+00 0. -1.
        -14    1    4    4    0    0  0.80401850555E+01 -0.68069176395E+02 -0.58000678150E+02  0.89789398131E+02  0.00000000000E+00 0.  1.
</event>
<event>
12    1  0.8421768E-002  0.3177715E+03  0.7818608E-02  0.1076739E+00
         21   -1    0    0  503  502  0.00000000000E+00  0.00000000000E+00  0.12494331552E+04  0.12494331552E+04  0.00000000000E+00 0.  1.
         21   -1    0    0  501  503 -0.00000000000E+00 -0.00000000000E+00 -0.10970013904E+03  0.10970013904E+03  0.00000000000E+00 0. -1.
          6    2    1    2  501    0  0.26632307671E+03 -0.49240762281E+01  0.22005588081E+03  0.38610463253E+03  0.17233678908E+03 0.  0.
         24    2    3    3    0    0  0.85161431961E+02 -0.20337132850E+02  0.14998617733E+03  0.19119707191E+03  0.79964982653E+02 0.  0.
         -6    2    1    2    0  502 -0.26632307671E+03  0.49240762281E+01  0.91967713536E+03  0.97302866171E+03  0.17328160750E+03 0.  0.
        -24    2    5    5    0    0 -0.12998657050E+03 -0.51799987597E+02  0.59630829404E+03  0.61750825459E+03  0.78441798321E+02 0.  0.
          5    1    3    3  501    0  0.18116164475E+03  0.15413056622E+02  0.70069703481E+02  0.19490756062E+03  0.47000000000E+01 0. -1.
        -13    1    4    4    0    0  0.10015789592E+03 -0.20844377178E+02  0.13904976396E+03  0.17262945587E+03  0.00000000000E+00 0.  1.
         14    1    4    4    0    0 -0.14996463961E+02  0.50724432865E+00  0.10936413368E+02  0.18567616042E+02  0.00000000000E+00 0. -1.
         -5    1    5    5    0  502 -0.13633650621E+03  0.56724063825E+02  0.32336884131E+03  0.35552040711E+03  0.47000000000E+01 0.  1.
         13    1    6    6    0    0  0.46818608467E+01 -0.17886424575E+01  0.99779037265E+00  0.51102493537E+01  0.00000000000E+00 0. -1.
        -14    1    6    6    0    0 -0.13466843135E+03 -0.50011345139E+02  0.59531050367E+03  0.61239800524E+03  0.00000000000E+00 0.  1.
</event>
<event>
12    1  0.8421768E-002  0.1879085E+03  0.7818608E-02  0.1160694E+00
         21   -1    0    0  501  502  0.00000000000E+00  0.00000000000E+00  0.93495120375E+02  0.93495120375E+02  0.00000000000E+00 0. -1.
         21   -1    0    0  502  503 -0.00000000000E+00 -0.00000000000E+00 -0.77331813278E+03  0.77331813278E+03  0.00000000000E+00 0. -1.
         -6    2    1    2    0  503  0.67818814152E+02 -0.15170309010E+02 -0.65041811190E+03  0.67661799579E+03  0.17302792293E+03 0.  0.
        -24    2    3    3    0    0 -0.20240789119E+02 -0.29120860878E+02 -0.44849796914E+03  0.45583994961E+03  0.73361551586E+02 0.  0.
          6    2    1    2  501    0 -0.67818814152E+02  0.15170309010E+02 -0.29404900505E+02  0.19019525736E+03  0.17458538862E+03 0.  0.
         24    2    5    5    0    0 -0.95880043070E+02 -0.21388741361E+02 -0.52628533843E+02  0.13837418175E+03  0.82019453082E+02 0.  0.
          5    1    5    5  501    0  0.28061228918E+02  0.36559050371E+02  0.23223633338E+02  0.51821075615E+02  0.47000000000E+01 0. -1.
        -13    1    6    6    0    0 -0.40806684045E+02  0.45337877154E+01  0.18262823806E+02  0.44936304111E+02  0.00000000000E+00 0.  1.
         14    1    6    6    0    0 -0.55073359025E+02 -0.25922529076E+02 -0.70891357649E+02  0.93437877637E+02  0.00000000000E+00 0. -1.
         -5    1    3    3    0  503  0.88059603272E+02  0.13950551867E+02 -0.20192014276E+03  0.22077804618E+03  0.47000000000E+01 0.  1.
         11    1    4    4    0    0 -0.38958188151E+01  0.18148126804E+02 -0.37838728281E+02  0.42146189255E+02  0.00000000000E+00 0. -1.
        -12    1    4    4    0    0 -0.16344970304E+02 -0.47268987682E+02 -0.41065924086E+03  0.41369376035E+03  0.00000000000E+00 0.  1.
</event>
<event>
12    1  0.8421768E-002  0.2887997E+03  0.7818608E-02  0.1091466E+00
         21   -1    0    0  503  502  0.00000000000E+00  0.00000000000E+00  0.44270482881E+03  0.44270482881E+03  0.00000000000E+00 0. -1.
         21   -1    0    0  501  503 -0.00000000000E+00 -0.00000000000E+00 -0.25265644197E+03  0.25265644197E+03  0.00000000000E+00 0.  1.
          6    2    1    2  501    0  0.16480391127E+03  0.16348505950E+03 -0.83111171199E+02  0.30052081056E+03  0.17180685944E+03 0.  0.
         24    2    3    3    0    0  0.18811439445E+03  0.12320339966E+03 -0.87757804418E+02  0.25351366274E+03  0.77470264426E+02 0.  0.
         -6    2    1    2    0  502 -0.16480391127E+03 -0.16348505950E+03  0.27315955804E+03  0.39484046022E+03  0.16551480607E+03 0.  0.
        -24    2    5    5    0    0 -0.13771615384E+03 -0.96354983091E+02  0.26206773355E+03  0.32145577290E+03  0.80026840333E+02 0.  0.
          5    1    3    3  501    0 -0.23310483183E+02  0.40281659842E+02  0.46466332186E+01  0.47007147819E+02  0.47000000000E+01 0. -1.
        -11    1    4    4    0    0  0.13051946983E+03  0.62490951297E+02 -0.88875166640E+02  0.16982121847E+03  0.00000000000E+00 0.  1.
         12    1    4    4    0    0  0.57594924628E+02  0.60712448362E+02  0.11173622224E+01  0.83692444266E+02  0.00000000000E+00 0. -1.
         -5    1    5    5    0  502 -0.27087757436E+02 -0.67130076409E+02  0.11091824491E+02  0.73384687313E+02  0.47000000000E+01 0.  1.
         13    1    6    6    0    0 -0.64701352197E+02 -0.27786354535E+02  0.17538152992E+03  0.18898949048E+03  0.00000000000E+00 0. -1.
        -14    1    6    6    0    0 -0.73014801638E+02 -0.68568628556E+02  0.86686203625E+02  0.13246628242E+03  0.00000000000E+00 0.  1.
</event>
<event>
12    1  0.8421768E-002  0.2392237E+03  0.7818608E-02  0.1120431E+00
         21   -1    0    0  501  502  0.00000000000E+00  0.00000000000E+00  0.75693995171E+02  0.75693995171E+02  0.00000000000E+00 0. -1.
         21   -1    0    0  502  503 -0.00000000000E+00 -0.00000000000E+00 -0.75908799044E+03  0.75908799044E+03  0.00000000000E+00 0. -1.
         -6    2    1    2    0  503  0.11862284602E+03 -0.11618312704E+03 -0.30629730356E+03  0.38820621690E+03  0.17121953763E+03 0.  0.
        -24    2    3    3    0    0  0.12065195571E+03 -0.44318131595E+02 -0.13333080781E+03  0.20083441137E+03  0.77694049166E+02 0.  0.
          6    2    1    2  501    0 -0.11862284602E+03  0.11618312704E+03 -0.37709669172E+03  0.44657576871E+03  0.17221528298E+03 0.  0.
         24    2    5    5    0    0 -0.30827592814E+00  0.73617618106E+02 -0.13373816807E+03  0.17261295905E+03  0.80558595468E+02 0.  0.
          5    1    5    5  501    0 -0.11831457009E+03  0.42565508933E+02 -0.24335852365E+03  0.27396280966E+03  0.47000000000E+01 0. -1.
        -11    1    6    6    0    0 -0.31849802520E+02  0.37947427645E+01 -0.32631914730E+02  0.45756440554E+02  0.00000000000E+00 0.  1.
         12    1    6    6    0    0  0.31541526592E+02  0.69822875341E+02 -0.10110625334E+03  0.12685651850E+03  0.00000000000E+00 0. -1.
         -5    1    3    3    0  503 -0.20291096851E+01 -0.71864995444E+02 -0.17296649575E+03  0.18737180553E+03  0.47000000000E+01 0.  1.
         13    1    4    4    0    0  0.27456098668E+01 -0.28128434022E+02 -0.42857082588E+02  0.51336894160E+02  0.00000000000E+00 0. -1.
        -14    1    4    4    0    0  0.11790634584E+03 -0.16189697573E+02 -0.90473725222E+02  0.14949751721E+03  0.00000000000E+00 0.  1.
</event>
<event>
12    1  0.8421768E-002  0.2018867E+03  0.7818608E-02  0.1150086E+00
         21   -1    0    0  503  502  0.00000000000E+00  0.00000000000E+00  0.26550126840E+03  0.26550126840E+03  0.00000000000E+00 0. -1.
         21   -1    0    0  501  503 -0.00000000000E+00 -0.00000000000E+00 -0.27276747612E+03  0.27276747612E+03  0.00000000000E+00 0. -1.
          6    2    1    2  501    0  0.10513208551E+03 -0.86283685908E+00 -0.18660331795E+03  0.27491641456E+03  0.17235062180E+03 0.  0.
         24    2    3    3    0    0  0.24005084505E+02  0.31801498218E+02 -0.31718480572E+02  0.96983978150E+02  0.82536359485E+02 0.  0.
         -6    2    1    2    0  502 -0.10513208551E+03  0.86283685908E+00  0.17933711022E+03  0.26335232997E+03  0.16167606721E+03 0.  0.
        -24    2    5    5    0    0 -0.80917553972E+02  0.20923740665E+02  0.19567131338E+03  0.22760768573E+03  0.80824144037E+02 0.  0.
          5    1    3    3  501    0  0.81127001000E+02 -0.32664335077E+02 -0.15488483737E+03  0.17793243641E+03  0.47000000000E+01 0. -1.
        -11    1    4    4    0    0 -0.29879124703E+02  0.36180149948E+01 -0.47799852070E+01  0.30474585873E+02  0.00000000000E+00 0.  1.
         12    1    4    4    0    0  0.53884209208E+02  0.28183483223E+02 -0.26938495365E+02  0.66509392277E+02  0.00000000000E+00 0. -1.
         -5    1    5    5    0  502 -0.24214531533E+02 -0.20060903806E+02 -0.16334203159E+02  0.35744644238E+02  0.47000000000E+01 0.  1.
         11    1    6    6    0    0 -0.78534142000E+02 -0.15081865530E+02  0.12831515701E+03  0.15119475403E+03  0.00000000000E+00 0. -1.
        -12    1    6    6    0    0 -0.23834119725E+01  0.36005606195E+02  0.67356156375E+02  0.76412931705E+02  0.00000000000E+00 0.  1.
</event>
<event>
12    1  0.8421768E-002  0.2258860E+03  0.7818608E-02  0.1130276E+00
         21   -1    0    0  501  502  0.00000000000E+00  0.00000000000E+00  0.54702583916E+03  0.54702583916E+03  0.00000000000E+00 0. -1.
         21   -1    0    0  502  503 -0.00000000000E+00 -0.00000000000E+00 -0.91731056046E+02  0.91731056046E+02  0.00000000000E+00 0.  1.
         -6    2    1    2    0  503 -0.10333216808E+03 -0.10240276748E+03  0.23728849531E+03  0.32761305305E+03  0.17280225339E+03 0.  0.
        -24    2    3    3    0    0 -0.74626778942E+02 -0.15460507399E+02  0.20155706234E+03  0.22921701016E+03  0.78147328461E+02 0.  0.
          6    2    1    2  501    0  0.10333216808E+03  0.10240276748E+03  0.21800628781E+03  0.31114384216E+03  0.16768984836E+03 0.  0.
         24    2    5    5    0    0 -0.12415897271E+02  0.25843635418E+02  0.88195826366E+02  0.12106027834E+03  0.77814132439E+02 0.  0.
          5    1    5    5  501    0  0.11574806535E+03  0.76559132061E+02  0.12981046144E+03  0.19008356382E+03  0.47000000000E+01 0. -1.
        -13    1    6    6    0    0 -0.29976946278E+01  0.33442690939E+02  0.99184699841E+02  0.10471391709E+03  0.00000000000E+00 0.  1.
         14    1    6    6    0    0 -0.94182026434E+01 -0.75990555210E+01 -0.10988873475E+02  0.16346361249E+02  0.00000000000E+00 0. -1.
         -5    1    3    3    0  503 -0.28705389133E+02 -0.86942260080E+02  0.35731432969E+02  0.98396042883E+02  0.47000000000E+01 0.  1.
         13    1    4    4    0    0 -0.36274905167E+02  0.18550757912E+02  0.15398245793E+03  0.15928150148E+03  0.00000000000E+00 0. -1.
        -14    1    4    4    0    0 -0.38351873776E+02 -0.34011265311E+02  0.47574604412E+02  0.69935508686E+02  0.00000000000E+00 0.  1.
</event>
<event>
12    1  0.8421768E-002  0.2185148E+03  0.7818608E-02  0.1135068E+00
         21   -1    0    0  501  502  0.00000000000E+00  0.00000000000E+00  0.15237304654E+04  0.15237304654E+04  0.00000000000E+00 0.  1.
         21   -1    0    0  502  503 -0.00000000000E+00 -0.00000000000E+00 -0.36824802479E+02  0.36824802479E+02  0.00000000000E+00 0. -1.
         -6    2    1    2    0  503 -0.88188548547E+02 -0.10236045833E+03  0.44127524649E+03  0.49241501328E+03  0.17173764473E+03 0.  0.
        -24    2    3    3    0    0 -0.11419213311E+03 -0.68041004626E+02  0.23268673680E+03  0.27937682965E+03  0.78986542423E+02 0.  0.
          6    2    1    2  501    0  0.88188548547E+02  0.10236045833E+03  0.10456304164E+04  0.10681402546E+04  0.17124763414E+03 0.  0.
         24    2    5    5    0    0  0.11532184860E+03  0.11619935952E+03  0.79510931447E+03  0.81573058029E+03  0.80100797361E+02 0.  0.
          5    1    5    5  501    0 -0.27133300053E+02 -0.13838901190E+02  0.25052110195E+03  0.25240967430E+03  0.47000000000E+01 0. -1.
        -11    1    6    6    0    0  0.95648977409E+02  0.53893831799E+02  0.38115023373E+03  0.39664691182E+03  0.00000000000E+00 0.  1.
         12    1    6    6    0    0  0.19672871192E+02  0.62305527725E+02  0.41395908074E+03  0.41908366847E+03  0.00000000000E+00 0. -1.
         -5    1    3    3    0  503  0.26003584567E+02 -0.34319453708E+02  0.20858850969E+03  0.21303818364E+03  0.47000000000E+01 0.  1.
         11    1    4    4    0    0 -0.67264863841E+02 -0.75689489487E+02  0.19082978217E+03  0.21603117018E+03  0.00000000000E+00 0. -1.
        -12    1    4    4    0    0 -0.46927269274E+02  0.76484848605E+01  0.41856954631E+02  0.63345659466E+02  0.00000000000E+00 0.  1.
</event>
<event>
12    1  0.8421768E-002  0.2697727E+03  0.7818608E-02  0.1101655E+00
         21   -1    0    0  501  502  0.00000000000E+00  0.00000000000E+00  0.25852671523E+03  0.25852671523E+03  0.00000000000E+00 0.  1.
         21   -1    0    0  502  503 -0.00000000000E+00 -0.00000000000E+00 -0.33647509260E+03  0.33647509260E+03  0.00000000000E+00 0.  1.
         -6    2    1    2    0  503 -0.16321791569E+03 -0.12900288276E+03  0.83094684540E+02  0.28228011358E+03  0.17174255199E+03 0.  0.
        -24    2    3    3    0    0 -0.59366247049E+02  0.48243217815E+01  0.29515388473E+02  0.10455076676E+03  0.80697455379E+02 0.  0.
          6    2    1    2  501    0  0.16321791569E+03  0.12900288276E+03 -0.16104306191E+03  0.31272169424E+03  0.16905075716E+03 0.  0.
         24    2    5    5    0    0  0.14903150444E+03  0.37600587436E+02 -0.12541559281E+03  0.21348943936E+03  0.78895350349E+02 0.  0.
          5    1    5    5  501    0  0.14186411247E+02  0.91402295320E+02 -0.35627469102E+02  0.99232254880E+02  0.47000000000E+01 0. -1.
        -11    1    6    6    0    0  0.67716766438E+02  0.54347248044E+02 -0.83597021474E+02  0.12053068417E+03  0.00000000000E+00 0.  1.
         12    1    6    6    0    0  0.81314738004E+02 -0.16746660608E+02 -0.41818571334E+02  0.92958755191E+02  0.00000000000E+00 0. -1.
         -5    1    3    3    0  503 -0.10385166864E+03 -0.13382720454E+03  0.53579296067E+02  0.17772934682E+03  0.47000000000E+01 0.  1.
         13    1    4    4    0    0  0.82552319206E+01 -0.16349067641E+02 -0.12497992875E+02  0.22172972121E+02  0.00000000000E+00 0. -1.
        -14    1    4    4    0    0 -0.67621478969E+02  0.21173389423E+02  0.42013381348E+02  0.82377794641E+02  0.00000000000E+00 0.  1.
</event>
<event>
12    1  0.8421768E-002  0.1839393E+03  0.7818608E-02  0.1164727E+00
         21   -1    0    0  503  502  0.00000000000E+00  0.00000000000E+00  0.76916087268E+03  0.76916087268E+03  0.00000000000E+00 0.  1.
         21   -1    0    0  501  503 -0.00000000000E+00 -0.00000000000E+00 -0.54303521115E+02  0.54303521115E+02  0.00000000000E+00 0.  1.
          6    2    1    2  501    0  0.88208806771E+00  0.67105735913E+02  0.16986554303E+03  0.24826900275E+03  0.16816431591E+03 0.  0.
         24    2    3    3    0    0  0.50440578288E+02  0.34764966969E+02  0.15730089890E+03  0.18759009726E+03  0.81814527623E+02 0.  0.
         -6    2    1    2    0  502 -0.88208806771E+00 -0.67105735913E+02  0.54499180854E+03  0.57519539104E+03  0.17125918555E+03 0.  0.
        -24    2    5    5    0    0  0.45669971584E+02 -0.91852803833E+02  0.36860363749E+03  0.39103679496E+03  0.80736915732E+02 0.  0.
          5    1    3    3  501    0 -0.49558490220E+02  0.32340768945E+02  0.12564644126E+02  0.60678905485E+02  0.47000000000E+01 0. -1.
        -11    1    4    4    0    0  0.43552198329E+02  0.38522237084E+02  0.41288536567E+02  0.71312691585E+02  0.00000000000E+00 0.  1.
         12    1    4    4    0    0  0.68883799585E+01 -0.37572701152E+01  0.11601236233E+03  0.11627740568E+03  0.00000000000E+00 0. -1.
         -5    1    5    5    0  502 -0.46552059651E+02  0.24747067920E+02  0.17638817104E+03  0.18415859609E+03  0.47000000000E+01 0.  1.
         13    1    6    6    0    0 -0.14870928440E+02  0.51656502428E+01  0.56065718878E+02  0.58233953054E+02  0.00000000000E+00 0. -1.
        -14    1    6    6    0    0  0.60540900024E+02 -0.97018454076E+02  0.31253791861E+03  0.33280284190E+03  0.00000000000E+00 0.  1.
</event>
<event>
12    1  0.8421768E-002  0.1815392E+03  0.7818608E-02  0.1166432E+00
         21   -1    0    0  501  502  0.00000000000E+00  0.00000000000E+00  0.10114149946E+04  0.10114149946E+04  0.00000000000E+00 0. -1.
         21   -1    0    0  502  503 -0.00000000000E+00 -0.00000000000E+00 -0.62094934636E+02  0.62094934636E+02  0.00000000000E+00 0. -1.
         -6    2    1    2    0  503  0.32972152435E+01  0.57663631787E+02  0.10442930817E+03  0.20943251360E+03  0.17210616284E+03 0.  0.
        -24    2    3    3    0    0 -0.32024275096E+02  0.47814632307E+01 -0.80781416857E+00  0.86383444727E+02  0.80081398422E+02 0.  0.
          6    2    1    2  501    0 -0.32972152435E+01 -0.57663631787E+02  0.84489075182E+03  0.86407741567E+03  0.17162002126E+03 0.  0.
         24    2    5    5    0    0 -0.55166786729E+02 -0.36353599543E+02  0.31897344468E+03  0.33515807033E+03  0.78879117262E+02 0.  0.
          5    1    5    5  501    0  0.51869571485E+02 -0.21310032243E+02  0.52591730714E+03  0.52891934533E+03  0.47000000000E+01 0. -1.
        -13    1    6    6    0    0  0.67202233847E+01 -0.40017546917E+02  0.11348976291E+03  0.12052589659E+03  0.00000000000E+00 0.  1.
         14    1    6    6    0    0 -0.61887010114E+02  0.36639473743E+01  0.20548368177E+03  0.21463217374E+03  0.00000000000E+00 0. -1.
         -5    1    3    3    0  503  0.35321490339E+02  0.52882168556E+02  0.10523712234E+03  0.12304906887E+03  0.47000000000E+01 0.  1.
         11    1    4    4    0    0 -0.92386370608E+01  0.23398203348E+02  0.33044898957E+02  0.41530635460E+02  0.00000000000E+00 0. -1.
        -12    1    4    4    0    0 -0.22785638035E+02 -0.18616740117E+02 -0.33852713125E+02  0.44852809267E+02  0.00000000000E+00 0.  1.
</event>
<event>
12    1  0.8421768E-002  0.1999552E+03  0.7818608E-02  0.1149963E+00
         21   -1    0    0  503  502  0.00000000000E+00  0.00000000000E+00  0.11768366155E+03  0.11768366155E+03  0.00000000000E+00 0. -1.
         21   -1    0    0  501  503 -0.00000000000E+00 -0.00000000000E+00 -0.89115808663E+03  0.89115808663E+03  0.00000000000E+00 0. -1.
          6    2    1    2  501    0 -0.58223352174E+02  0.81923879102E+02 -0.78373531117E+03  0.80862347045E+03  0.17184120077E+03 0.  0.
         24    2    3    3    0    0 -0.60667283797E+02 -0.16772467642E+02 -0.29635794670E+03  0.31132504188E+03  0.71647848071E+02 0.  0.
         -6    2    1    2    0  502  0.58223352174E+02 -0.81923879102E+02  0.10260886102E+02  0.20021827773E+03  0.17286003658E+03 0.  0.
        -24    2    5    5    0    0  0.32132382483E+01 -0.96929577797E+02 -0.35231844668E+02  0.12712270891E+03  0.74251143362E+02 0.  0.
          5    1    3    3  501    0  0.24439316236E+01  0.98696346744E+02 -0.48737736447E+03  0.49729842858E+03  0.47000000000E+01 0. -1.
        -13    1    4    4    0    0 -0.10524316861E+02 -0.11204240887E+02 -0.21530495563E+03  0.21585300595E+03  0.00000000000E+00 0.  1.
         14    1    4    4    0    0 -0.50142966937E+02 -0.55682267553E+01 -0.81052991069E+02  0.95472035925E+02  0.00000000000E+00 0. -1.
         -5    1    5    5    0  502  0.55010113925E+02  0.15005698695E+02  0.45492730770E+02  0.73095568815E+02  0.47000000000E+01 0.  1.
         13    1    6    6    0    0  0.23276338520E+02 -0.55477600796E+02  0.11788749207E+02  0.61306824521E+02  0.00000000000E+00 0. -1.
        -14    1    6    6    0    0 -0.20063100272E+02 -0.41451977001E+02 -0.47020593875E+02  0.65815884391E+02  0.00000000000E+00 0.  1.
</event>
<event>
12    1  0.8421768E-002  0.1726678E+03  0.7818608E-02  0.1175146E+00
         21   -1    0    0  503  502  0.00000000000E+00  0.00000000000E+00  0.17855206672E+03  0.17855206672E+03  0.00000000000E+00 0. -1.
         21   -1    0    0  501  503 -0.00000000000E+00 -0.00000000000E+00 -0.19297496039E+03  0.19297496039E+03  0.00000000000E+00 0. -1.
          6    2    1    2  501    0 -0.72049171086E+01  0.25933193830E+01 -0.75649357996E+02  0.18832532049E+03  0.17229325244E+03 0.  0.
         24    2    3    3    0    0  0.40038050496E+02 -0.27591444026E+02 -0.93954283448E+02  0.12916301639E+03  0.74103604193E+02 0.  0.
         -6    2    1    2    0  502  0.72049171086E+01 -0.25933193830E+01  0.61226464333E+02  0.18320170662E+03  0.17249796879E+03 0.  0.
        -24    2    5    5    0    0  0.65236213411E+02  0.29594473638E+02  0.35263871017E+02  0.11178860123E+03  0.78240362698E+02 0.  0.
          5    1    3    3  501    0 -0.47242967605E+02  0.30184763409E+02  0.18304925452E+02  0.59162304096E+02  0.47000000000E+01 0. -1.
        -13    1    4    4    0    0  0.28690564108E+02  0.20332802029E+02 -0.20431779002E+02  0.40669754122E+02  0.00000000000E+00 0.  1.
         14    1    4    4    0    0  0.11347486389E+02 -0.47924246055E+02 -0.73522504446E+02  0.88493262271E+02  0.00000000000E+00 0. -1.
         -5    1    5    5    0  502 -0.58031296302E+02 -0.32187793021E+02  0.25962593316E+02  0.71413105392E+02  0.47000000000E+01 0.  1.
         13    1    6    6    0    0  0.22060795157E+02  0.47029959030E+02 -0.22472742507E+01  0.51995634152E+02  0.00000000000E+00 0. -1.
        -14    1    6    6    0    0  0.43175418254E+02 -0.17435485393E+02  0.37511145268E+02  0.59792967075E+02  0.00000000000E+00 0.  1.
</event>
<event>
12    1  0.8421768E-002  0.2082404E+03  0.7818608E-02  0.1143901E+00
         21   -1    0    0  503  502  0.00000000000E+00  0.00000000000E+00  0.15693217036E+03  0.15693217036E+03  0.00000000000E+00 0. -1.
         21   -1    0    0  501  503 -0.00000000000E+00 -0.00000000000E+00 -0.29142890145E+03  0.29142890145E+03  0.00000000000E+00 0. -1.
          6    2    1    2  501    0 -0.97091064575E+02  0.50614414634E+02 -0.12838906606E+03  0.24463812060E+03  0.17713148782E+03 0.  0.
         24    2    3    3    0    0 -0.40206610313E+02 -0.36971467325E+02 -0.92941325317E+02  0.13424898989E+03  0.80007752289E+02 0.  0.
         -6    2    1    2    0  502  0.97091064575E+02 -0.50614414634E+02 -0.61076650310E+01  0.20372295120E+03  0.17168938082E+03 0.  0.
        -24    2    5    5    0    0  0.98153325647E+02 -0.56628716166E+02  0.50065111324E+02  0.14702400038E+03  0.79174834921E+02 0.  0.
          5    1    3    3  501    0 -0.56884454261E+02  0.87585881959E+02 -0.35447740745E+02  0.11038913071E+03  0.47000000000E+01 0. -1.
        -13    1    4    4    0    0 -0.24148836497E+02  0.10098050003E+02 -0.78068223258E+02  0.82339446201E+02  0.00000000000E+00 0.  1.
         14    1    4    4    0    0 -0.16057773816E+02 -0.47069517327E+02 -0.14873102059E+02  0.51909543691E+02  0.00000000000E+00 0. -1.
         -5    1    5    5    0  502 -0.10622610729E+01  0.60143015317E+01 -0.56172776355E+02  0.56698950827E+02  0.47000000000E+01 0.  1.
         11    1    6    6    0    0  0.66947716954E+02 -0.45852839966E+01  0.54116569272E+02  0.86206871562E+02  0.00000000000E+00 0. -1.
        -12    1    6    6    0    0  0.31205608693E+02 -0.52043432169E+02 -0.40514579480E+01  0.60817128816E+02  0.00000000000E+00 0.  1.
</event>
<event>
12    1  0.8421768E-002  0.2042209E+03  0.7818608E-02  0.1146689E+00
         21   -1    0    0  501  502  0.00000000000E+00  0.00000000000E+00  0.44955374132E+03  0.44955374132E+03  0.00000000000E+00 0. -1.
         21   -1    0    0  502  503 -0.00000000000E+00 -0.00000000000E+00 -0.10118774485E+03  0.10118774485E+03  0.00000000000E+00 0.  1.
         -6    2    1    2    0  503  0.10549469887E+03 -0.43697659393E+02  0.25737765595E+03  0.32716808215E+03  0.16660455957E+03 0.  0.
        -24    2    3    3    0    0  0.10102063545E+03 -0.77846737614E+02  0.24980898628E+03  0.29159349083E+03  0.79730489315E+02 0.  0.
          6    2    1    2  501    0 -0.10549469887E+03  0.43697659393E+02  0.90988340527E+02  0.22357340402E+03  0.16931500803E+03 0.  0.
         24    2    5    5    0    0 -0.84923750765E+02 -0.35229293451E+02  0.53559374291E+02  0.13370880974E+03  0.80970937174E+02 0.  0.
          5    1    5    5  501    0 -0.20570948109E+02  0.78926952844E+02  0.37428966236E+02  0.89864594278E+02  0.47000000000E+01 0. -1.
        -11    1    6    6    0    0 -0.15086706059E+02  0.22084648143E+02  0.30305370630E+02  0.40419746070E+02  0.00000000000E+00 0.  1.
         12    1    6    6    0    0 -0.69837044705E+02 -0.57313941594E+02  0.23254003661E+02  0.93289063670E+02  0.00000000000E+00 0. -1.
         -5    1    3    3    0  503  0.44740634230E+01  0.34149078221E+02  0.75686696730E+01  0.35574591319E+02  0.47000000000E+01 0.  1.
         11    1    4    4    0    0 -0.10753843598E+02  0.31410238691E+01  0.30170219956E+02  0.32183122211E+02  0.00000000000E+00 0. -1.
        -12    1    4    4    0    0  0.11177447905E+03 -0.80987761483E+02  0.21963876632E+03  0.25941036862E+03  0.00000000000E+00 0.  1.
</event>
<event>
12    1  0.8421768E-002  0.1802921E+03  0.7818608E-02  0.1167560E+00
         21   -1    0    0  501  502  0.00000000000E+00  0.00000000000E+00  0.31761328810E+02  0.31761328810E+02  0.00000000000E+00 0. -1.
         21   -1    0    0  502  503 -0.00000000000E+00 -0.00000000000E+00 -0.10425479182E+04  0.10425479182E+04  0.00000000000E+00 0. -1.
         -6    2    1    2    0  503 -0.14602013924E+02 -0.52804778403E+02 -0.58012145182E+03  0.60749167682E+03  0.17176633872E+03 0.  0.
        -24    2    3    3    0    0  0.26555792636E+02  0.26368374383E+02 -0.34114789391E+03  0.35235876139E+03  0.79839275501E+02 0.  0.
          6    2    1    2  501    0  0.14602013924E+02  0.52804778403E+02 -0.43066513757E+03  0.46681757018E+03  0.17159434630E+03 0.  0.
         24    2    5    5    0    0 -0.18908976048E+02 -0.33723646256E+01 -0.10017680121E+03  0.12988510171E+03  0.80410359565E+02 0.  0.
          5    1    5    5  501    0  0.33510989972E+02  0.56177143029E+02 -0.33048833635E+03  0.33693246848E+03  0.47000000000E+01 0. -1.
        -11    1    6    6    0    0  0.48444889554E+01  0.33781743987E+02 -0.65231306710E+02  0.73619281952E+02  0.00000000000E+00 0.  1.
         12    1    6    6    0    0 -0.23753465004E+02 -0.37154108613E+02 -0.34945494504E+02  0.56265819754E+02  0.00000000000E+00 0. -1.
         -5    1    3    3    0  503 -0.41157806560E+02 -0.79173152786E+02 -0.23897355790E+03  0.25513291544E+03  0.47000000000E+01 0.  1.
         11    1    4    4    0    0  0.27356065163E+02  0.86773525308E+01 -0.33129313526E+02  0.43831520197E+02  0.00000000000E+00 0. -1.
        -12    1    4    4    0    0 -0.80027252646E+00  0.17691021852E+02 -0.30801858039E+03  0.30852724119E+03  0.00000000000E+00 0.  1.
</event>
<event>
12    1  0.8421768E-002  0.2045102E+03  0.7818608E-02  0.1145989E+00
         21   -1    0    0  503  502  0.00000000000E+00  0.00000000000E+00  0.18778324290E+03  0.18778324290E+03  0.00000000000E+00 0.  1.
         21   -1    0    0  501  503 -0.00000000000E+00 -0.00000000000E+00 -0.69640634239E+03  0.69640634239E+03  0.00000000000E+00 0. -1.
          6    2    1    2  501    0 -0.80566554257E+00  0.11408578484E+03 -0.61892048227E+03  0.65183356431E+03  0.16972983470E+03 0.  0.
         24    2    3    3    0    0 -0.58734564750E+02  0.54411619623E+02 -0.26077435268E+03  0.28412783482E+03  0.79466911722E+02 0.  0.
         -6    2    1    2    0  502  0.80566554257E+00 -0.11408578484E+03  0.11029738279E+03  0.23235602098E+03  0.16972799545E+03 0.  0.
        -24    2    5    5    0    0  0.17715421100E+02 -0.39203246478E+02 -0.63001129625E+01  0.92676386106E+02  0.81844306088E+02 0.  0.
          5    1    3    3  501    0  0.57928899208E+02  0.59674165215E+02 -0.35814612959E+03  0.36770572949E+03  0.47000000000E+01 0. -1.
        -13    1    4    4    0    0 -0.14842652743E+01  0.54858977921E+02 -0.14318271062E+03  0.15333948977E+03  0.00000000000E+00 0.  1.
         14    1    4    4    0    0 -0.57250299476E+02 -0.44735829834E+00 -0.11759164206E+03  0.13078834505E+03  0.00000000000E+00 0. -1.
         -5    1    5    5    0  502 -0.16909755558E+02 -0.74882538360E+02  0.11659749575E+03  0.13967963488E+03  0.47000000000E+01 0.  1.
         13    1    6    6    0    0 -0.13567897065E+02 -0.25633384760E+02 -0.36849334260E+02  0.46893834141E+02  0.00000000000E+00 0. -1.
        -14    1    6    6    0    0  0.31283318165E+02 -0.13569861719E+02  0.30549221298E+02  0.45782551965E+02  0.00000000000E+00 0.  1.
</event>
<event>
12    1  0.8421768E-002  0.2251799E+03  0.7818608E-02  0.1133024E+00
         21   -1    0    0  501  502  0.00000000000E+00  0.00000000000E+00  0.76583552545E+02  0.76583552545E+02  0.00000000000E+00 0.  1.
         21   -1    0    0  502  503 -0.00000000000E+00 -0.00000000000E+00 -0.62257579259E+03  0.62257579259E+03  0.00000000000E+00 0.  1.
         -6    2    1    2    0  503 -0.42032597425E+02  0.10904856054E+03 -0.31632650923E+03  0.38828911356E+03  0.19247765446E+03 0.  0.
        -24    2    3    3    0    0 -0.10530132933E+03  0.80165893316E+02 -0.23218793762E+03  0.27902553255E+03  0.80181475585E+02 0.  0.
          6    2    1    2  501    0  0.42032597425E+02 -0.10904856054E+03 -0.22966573082E+03  0.31087023158E+03  0.17388394165E+03 0.  0.
         24    2    5    5    0    0  0.55493791121E+02 -0.14292475906E+03 -0.18680888812E+03  0.25441140119E+03  0.79501904192E+02 0.  0.
          5    1    5    5  501    0 -0.13461193696E+02  0.33876198523E+02 -0.42856842696E+02  0.56458830381E+02  0.47000000000E+01 0. -1.
        -11    1    6    6    0    0  0.27262222230E+02 -0.26461196711E+02 -0.98436747575E+02  0.10551406051E+03  0.00000000000E+00 0.  1.
         12    1    6    6    0    0  0.28231568891E+02 -0.11646356235E+03 -0.88372140546E+02  0.14889734068E+03  0.00000000000E+00 0. -1.
         -5    1    3    3    0  503  0.63268731908E+02  0.28882667225E+02 -0.84138571609E+02  0.10926358101E+03  0.47000000000E+01 0.  1.
         11    1    4    4    0    0 -0.71724943341E+02  0.43940645551E+01 -0.10838029898E+03  0.13003870388E+03  0.00000000000E+00 0. -1.
        -12    1    4    4    0    0 -0.33576385992E+02  0.75771828761E+02 -0.12380763864E+03  0.14898682867E+03  0.00000000000E+00 0.  1.
</event>
<event>
12    1  0.8421768E-002  0.1815287E+03  0.7818608E-02  0.1166404E+00
         21   -1    0    0  501  502  0.00000000000E+00  0.00000000000E+00  0.38726676910E+02  0.38726676910E+02  0.00000000000E+00 0. -1.
         21   -1    0    0  502  503 -0.00000000000E+00 -0.00000000000E+00 -0.11953618395E+04  0.11953618395E+04  0.00000000000E+00 0. -1.
         -6    2    1    2    0  503  0.30230910420E+01 -0.60393071636E+02 -0.91056634078E+03  0.92848464779E+03  0.17116138010E+03 0.  0.
        -24    2    3    3    0    0 -0.28954585458E+02 -0.69624225071E+02 -0.86017347828E+03  0.86790976373E+03  0.87652977726E+02 0.  0.
          6    2    1    2  501    0 -0.30230910420E+01  0.60393071636E+02 -0.24606882183E+03  0.30560386864E+03  0.17084319498E+03 0.  0.
         24    2    5    5    0    0  0.18717529968E+02 -0.30023892435E+02 -0.10698063424E+03  0.13822556682E+03  0.80060422024E+02 0.  0.
          5    1    5    5  501    0 -0.21740621010E+02  0.90416964071E+02 -0.13908818758E+03  0.16737830182E+03  0.47000000000E+01 0. -1.
        -11    1    6    6    0    0  0.39644359190E+02 -0.24552528879E+02 -0.10686389011E+03  0.11659499518E+03  0.00000000000E+00 0.  1.
         12    1    6    6    0    0 -0.20926829222E+02 -0.54713635563E+01 -0.11674412935E+00  0.21630571644E+02  0.00000000000E+00 0. -1.
         -5    1    3    3    0  503  0.31977676500E+02  0.92311534355E+01 -0.50392862501E+02  0.60574884062E+02  0.47000000000E+01 0.  1.
         13    1    4    4    0    0 -0.57989510775E+02 -0.38202405523E+02 -0.42469830466E+03  0.43033807306E+03  0.00000000000E+00 0. -1.
        -14    1    4    4    0    0  0.29034925317E+02 -0.31421819548E+02 -0.43547517362E+03  0.43757169066E+03  0.00000000000E+00 0.  1.
</event>
<event>
12    1  0.8421768E-002  0.2086678E+03  0.7818608E-02  0.1142691E+00
         21   -1    0    0  503  502  0.00000000000E+00  0.00000000000E+00  0.40738639714E+03  0.40738639714E+03  0.00000000000E+00 0.  1.
         21   -1    0    0  501  503 -0.00000000000E+00 -0.00000000000E+00 -0.12071371293E+03  0.12071371293E+03  0.00000000000E+00 0. -1.
          6    2    1    2  501    0 -0.10056206712E+03 -0.60409582165E+02  0.53514348119E+02  0.21542063160E+03  0.17256945299E+03 0.  0.
         24    2    3    3    0    0 -0.13032680676E+03 -0.14765228602E+02  0.41034511230E+02  0.15932087165E+03  0.80599134588E+02 0.  0.
         -6    2    1    2    0  502  0.10056206712E+03  0.60409582165E+02  0.23315833609E+03  0.31267947847E+03  0.17217316749E+03 0.  0.
        -24    2    5    5    0    0  0.12094821030E+03  0.34083691326E+02  0.10799452846E+03  0.18307733302E+03  0.77873770303E+02 0.  0.
          5    1    3    3  501    0  0.29764739638E+02 -0.45644353563E+02  0.12479836889E+02  0.56099759952E+02  0.47000000000E+01 0. -1.
        -13    1    4    4    0    0 -0.52305796096E+02 -0.63005067498E+01  0.58703364545E+02  0.78877612156E+02  0.00000000000E+00 0.  1.
         14    1    4    4    0    0 -0.78021010661E+02 -0.84647218524E+01 -0.17668853315E+02  0.80443259495E+02  0.00000000000E+00 0. -1.
         -5    1    5    5    0  502 -0.20386143180E+02  0.26325890839E+02  0.12516380763E+03  0.12960214544E+03  0.47000000000E+01 0.  1.
         13    1    6    6    0    0  0.24412710578E+02  0.22254686907E+02 -0.56325193055E+01  0.33510846017E+02  0.00000000000E+00 0. -1.
        -14    1    6    6    0    0  0.96535499722E+02  0.11829004419E+02  0.11362704776E+03  0.14956648700E+03  0.00000000000E+00 0.  1.
</event>
<event>
12    1  0.8421768E-002  0.1822228E+03  0.7818608E-02  0.1165901E+00
         21   -1    0    0  503  502  0.00000000000E+00  0.00000000000E+00  0.26787298620E+03  0.26787298620E+03  0.00000000000E+00 0.  1.
         21   -1    0    0  501  503 -0.00000000000E+00 -0.00000000000E+00 -0.16935739505E+03  0.16935739505E+03  0.00000000000E+00 0.  1.
          6    2    1    2  501    0 -0.49265802527E+02  0.33416155762E+02 -0.64653632568E+02  0.19335258712E+03  0.17222477167E+03 0.  0.
         24    2    3    3    0    0 -0.94243480838E+02  0.26965372519E+02 -0.79760941249E+02  0.14523892039E+03  0.71579125806E+02 0.  0.
         -6    2    1    2    0  502  0.49265802527E+02 -0.33416155762E+02  0.16316922373E+03  0.24387779413E+03  0.17119703308E+03 0.  0.
        -24    2    5    5    0    0  0.48085176693E+02 -0.77992184989E+02  0.14332419923E+03  0.19484381351E+03  0.95012212049E+02 0.  0.
          5    1    3    3  501    0  0.44977678310E+02  0.64507832432E+01  0.15107308680E+02  0.48113666730E+02  0.47000000000E+01 0. -1.
        -13    1    4    4    0    0 -0.55034169369E+02 -0.20288131392E+02 -0.49667616981E+02  0.76858573042E+02  0.00000000000E+00 0.  1.
         14    1    4    4    0    0 -0.39209311469E+02  0.47253503911E+02 -0.30093324268E+02  0.68380347346E+02  0.00000000000E+00 0. -1.
         -5    1    5    5    0  502  0.11806258347E+01  0.44576029226E+02  0.19845024492E+02  0.49033980626E+02  0.47000000000E+01 0.  1.
         13    1    6    6    0    0  0.47538737254E+01  0.13059722825E+02  0.66873109410E+02  0.68302038314E+02  0.00000000000E+00 0. -1.
        -14    1    6    6    0    0  0.43331302967E+02 -0.91051907814E+02  0.76451089824E+02  0.12654177519E+03  0.00000000000E+00 0.  1.
</event>
<event>
12    1  0.8421768E-002  0.2009927E+03  0.7818608E-02  0.1149583E+00
         21   -1    0    0  503  502  0.00000000000E+00  0.00000000000E+00  0.15553632303E+03  0.15553632303E+03  0.00000000000E+00 0.  1.
         21   -1    0    0  501  503 -0.00000000000E+00 -0.00000000000E+00 -0.26167401760E+03  0.26167401760E+03  0.00000000000E+00 0.  1.
          6    2    1    2  501    0 -0.87284399047E+02 -0.43215489775E+02 -0.84429538263E+02  0.21504870603E+03  0.17213789287E+03 0.  0.
         24    2    3    3    0    0 -0.38973833756E+02 -0.68356567071E+01  0.22479171012E+02  0.92130175730E+02  0.80105993723E+02 0.  0.
         -6    2    1    2    0  502  0.87284399047E+02  0.43215489775E+02 -0.21708156303E+02  0.20216163459E+03  0.17581791029E+03 0.  0.
        -24    2    5    5    0    0  0.17908158263E+02  0.81830408423E+02  0.98957916470E+01  0.11657498696E+03  0.80466657792E+02 0.  0.
          5    1    3    3  501    0 -0.48310565291E+02 -0.36379833068E+02 -0.10690870928E+03  0.12291853030E+03  0.47000000000E+01 0. -1.
        -13    1    4    4    0    0 -0.60689559797E+02 -0.37920848382E+01  0.31424494102E+02  0.68447800588E+02  0.00000000000E+00 0.  1.
         14    1    4    4    0    0  0.21715726041E+02 -0.30435718689E+01 -0.89453230894E+01  0.23682375142E+02  0.00000000000E+00 0. -1.
         -5    1    5    5    0  502  0.69376240784E+02 -0.38614918649E+02 -0.31603947950E+02  0.85586647637E+02  0.47000000000E+01 0.  1.
         13    1    6    6    0    0  0.24240821474E+02  0.67081819104E+02 -0.27057090151E+02  0.76286787896E+02  0.00000000000E+00 0. -1.
        -14    1    6    6    0    0 -0.63326632110E+01  0.14748589319E+02  0.36952881798E+02  0.40288199059E+02  0.00000000000E+00 0.  1.
</event>
<event>
12    1  0.8421768E-002  0.2615145E+03  0.7818608E-02  0.1106250E+00
         21   -1    0    0  503  502  0.00000000000E+00  0.00000000000E+00  0.81374539014E+02  0.81374539014E+02  0.00000000000E+00 0.  1.
         21   -1    0    0  501  503 -0.00000000000E+00 -0.00000000000E+00 -0.92619079657E+03  0.92619079657E+03  0.00000000000E+00 0. -1.
          6    2    1    2  501    0  0.19481205283E+03  0.23249029589E+02 -0.57602713748E+03  0.63261134764E+03  0.17290922690E+03 0.  0.
         24    2    3    3    0    0  0.40201238285E+02  0.36363276022E+02 -0.14238668869E+03  0.17202192499E+03  0.79869557141E+02 0.  0.
         -6    2    1    2    0  502 -0.19481205283E+03 -0.23249029589E+02 -0.26878912008E+03  0.37495398794E+03  0.17277340276E+03 0.  0.
        -24    2    5    5    0    0 -0.20498778543E+03 -0.43479662455E+02 -0.27126799765E+03  0.35169331568E+03  0.78685376788E+02 0.  0.
          5    1    3    3  501    0  0.15461081454E+03 -0.13114246433E+02 -0.43364044879E+03  0.46058942265E+03  0.47000000000E+01 0. -1.
        -11    1    4    4    0    0 -0.10619014473E+02  0.35014810219E+02 -0.97732262704E+02  0.10435705810E+03  0.00000000000E+00 0.  1.
         12    1    4    4    0    0  0.50820252757E+02  0.13484658040E+01 -0.44654425988E+02  0.67664866886E+02  0.00000000000E+00 0. -1.
         -5    1    5    5    0  502  0.10175732602E+02  0.20230632866E+02  0.24788775775E+01  0.23260672264E+02  0.47000000000E+01 0.  1.
         13    1    6    6    0    0 -0.13461380770E+03  0.10671135605E+02 -0.16436485165E+03  0.21272177795E+03  0.00000000000E+00 0. -1.
        -14    1    6    6    0    0 -0.70373977730E+02 -0.54150798060E+02 -0.10690314601E+03  0.13897153773E+03  0.00000000000E+00 0.  1.
</event>
<event>
12    1  0.8421768E-002  0.1721216E+03  0.7818608E-02  0.1176005E+00
         21   -1    0    0  501  502  0.00000000000E+00  0.00000000000E+00  0.81004140500E+02  0.81004140500E+02  0.00000000000E+00 0.  1.
         21   -1    0    0  502  503 -0.00000000000E+00 -0.00000000000E+00 -0.46883019183E+03  0.46883019183E+03  0.00000000000E+00 0.  1.
         -6    2    1    2    0  503 -0.71615733075E+01  0.75674354427E+00 -0.32522962047E+03  0.36796757808E+03  0.17197084547E+03 0.  0.
        -24    2    3    3    0    0 -0.66390355547E+01 -0.41948096050E+02 -0.78504363422E+02  0.11752912489E+03  0.76462020411E+02 0.  0.
          6    2    1    2  501    0  0.71615733075E+01 -0.75674354427E+00 -0.62596430856E+02  0.18186675425E+03  0.17060287908E+03 0.  0.
         24    2    5    5    0    0 -0.50421302081E+01  0.40810881140E+02 -0.91963330548E+02  0.12931865629E+03  0.81087049537E+02 0.  0.
          5    1    5    5  501    0  0.12203703516E+02 -0.41567624685E+02  0.29366899692E+02  0.52548097958E+02  0.47000000000E+01 0. -1.
        -11    1    6    6    0    0 -0.96350594710E+01 -0.14143333039E+02  0.49493466523E+01  0.17814720676E+02  0.00000000000E+00 0.  1.
         12    1    6    6    0    0  0.45929292628E+01  0.54954214179E+02 -0.96912677201E+02  0.11150393561E+03  0.00000000000E+00 0. -1.
         -5    1    3    3    0  503 -0.52253775282E+00  0.42704839594E+02 -0.24672525705E+03  0.25043845319E+03  0.47000000000E+01 0.  1.
         11    1    4    4    0    0  0.13957411942E+02 -0.58901719239E+02 -0.50260534424E+02  0.78678734090E+02  0.00000000000E+00 0. -1.
        -12    1    4    4    0    0 -0.20596447497E+02  0.16953623189E+02 -0.28243828997E+02  0.38850390798E+02  0.00000000000E+00 0.  1.
</event>
<event>
12    1  0.8421768E-002  0.1842087E+03  0.7818608E-02  0.1163898E+00
         21   -1    0    0  503  502  0.00000000000E+00  0.00000000000E+00  0.66772077089E+03  0.66772077089E+03  0.00000000000E+00 0.  1.
         21   -1    0    0  501  503 -0.00000000000E+00 -0.00000000000E+00 -0.11918354081E+03  0.11918354081E+03  0.00000000000E+00 0.  1.
          6    2    1    2  501    0 -0.14642383986E+02  0.62997667861E+02 -0.23848765107E+02  0.18574608459E+03  0.17248112586E+03 0.  0.
         24    2    3    3    0    0 -0.50454698781E+00  0.10678413297E+03  0.27470751120E+00  0.13358129865E+03  0.80254484376E+02 0.  0.
         -6    2    1    2    0  502  0.14642383986E+02 -0.62997667861E+02  0.57238599518E+03  0.60115822711E+03  0.17199529346E+03 0.  0.
        -24    2    5    5    0    0 -0.50436307664E+02 -0.78019163867E+01  0.23928085204E+03  0.25726444484E+03  0.79529726520E+02 0.  0.
          5    1    3    3  501    0 -0.14137836999E+02 -0.43786465107E+02 -0.24123472619E+02  0.52164785945E+02  0.47000000000E+01 0. -1.
        -13    1    4    4    0    0  0.25970286459E+02  0.35165224168E+02 -0.28275080674E+02  0.52062740580E+02  0.00000000000E+00 0.  1.
         14    1    4    4    0    0 -0.26474833447E+02  0.71618908800E+02  0.28549788186E+02  0.81518558066E+02  0.00000000000E+00 0. -1.
         -5    1    5    5    0  502  0.65078691650E+02 -0.55195751474E+02  0.33310514315E+03  0.34389378226E+03  0.47000000000E+01 0.  1.
         13    1    6    6    0    0 -0.43427868138E+02  0.21572947197E+02  0.69051001054E+02  0.84376611264E+02  0.00000000000E+00 0. -1.
        -14    1    6    6    0    0 -0.70084395257E+01 -0.29374863584E+02  0.17022985098E+03  0.17288783358E+03  0.00000000000E+00 0.  1.
</event>
<event>
12    1  0.8421768E-002  0.2185515E+03  0.7818608E-02  0.1137108E+00
         21   -1    0    0  503  502  0.00000000000E+00  0.00000000000E+00  0.63706795090E+02  0.63706795090E+02  0.00000000000E+00 0.  1.
         21   -1    0    0  501  503 -0.00000000000E+00 -0.00000000000E+00 -0.71790919009E+03  0.71790919009E+03  0.00000000000E+00 0.  1.
          6    2    1    2  501    0  0.92774892100E+02 -0.70696175563E+02 -0.30083425734E+03  0.37184137123E+03  0.18482322670E+03 0.  0.
         24    2    3    3    0    0  0.12057928329E+03 -0.18364133569E+02 -0.26393829538E+03  0.30187617418E+03  0.81173861637E+02 0.  0.
         -6    2    1    2    0  502 -0.92774892100E+02  0.70696175563E+02 -0.35336813766E+03  0.40977461395E+03  0.17158398433E+03 0.  0.
        -24    2    5    5    0    0 -0.31809980760E+02 -0.14843070311E+02 -0.23634091312E+03  0.25244964999E+03  0.81496054839E+02 0.  0.
          5    1    3    3  501    0 -0.27804391192E+02 -0.52332041994E+02 -0.36895961960E+02  0.69965197047E+02  0.47000000000E+01 0. -1.
        -11    1    4    4    0    0  0.97115434820E+02  0.10436014976E+02 -0.23593939172E+03  0.25535801270E+03  0.00000000000E+00 0.  1.
         12    1    4    4    0    0  0.23463848472E+02 -0.28800148545E+02 -0.27998903661E+02  0.46518161481E+02  0.00000000000E+00 0. -1.
         -5    1    5    5    0  502 -0.60964911341E+02  0.85539245874E+02 -0.11702722454E+03  0.15732496395E+03  0.47000000000E+01 0.  1.
         13    1    6    6    0    0  0.13874725919E+02  0.14183696420E+02 -0.15799891158E+02  0.25363789623E+02  0.00000000000E+00 0. -1.
        -14    1    6    6    0    0 -0.45684706678E+02 -0.29026766731E+02 -0.22054102196E+03  0.22708586037E+03  0.00000000000E+00 0.  1.
</event>
<event>
12    1  0.8421768E-002  0.2017073E+03  0.7818608E-02  0.1149071E+00
         21   -1    0    0  501  502  0.00000000000E+00  0.00000000000E+00  0.19521308323E+03  0.19521308323E+03  0.00000000000E+00 0.  1.
         21   -1    0    0  502  503 -0.00000000000E+00 -0.00000000000E+00 -0.30554584192E+03  0.30554584192E+03  0.00000000000E+00 0.  1.
         -6    2    1    2    0  503  0.24707926071E+02  0.86296069801E+02 -0.19868039780E+03  0.28055187749E+03  0.17657282413E+03 0.  0.
        -24    2    3    3    0    0 -0.10925398141E+01  0.33076795867E+02 -0.20263420532E+03  0.22109031216E+03  0.82006322301E+02 0.  0.
          6    2    1    2  501    0 -0.24707926071E+02 -0.86296069801E+02  0.88347639107E+02  0.22020704765E+03  0.18063317864E+03 0.  0.
         24    2    5    5    0    0 -0.84082979876E+02 -0.35206218992E+02  0.74849144254E+02  0.14058375186E+03  0.76498179916E+02 0.  0.
          5    1    5    5  501    0  0.59375053804E+02 -0.51089850809E+02  0.13498494853E+02  0.79623295795E+02  0.47000000000E+01 0. -1.
        -13    1    6    6    0    0  0.14151027682E+02  0.12807090660E+01  0.87085149053E+01  0.16665234232E+02  0.00000000000E+00 0.  1.
         14    1    6    6    0    0 -0.98234007558E+02 -0.36486928058E+02  0.66140629349E+02  0.12391851763E+03  0.00000000000E+00 0. -1.
         -5    1    3    3    0  503  0.25800465886E+02  0.53219273934E+02  0.39538075189E+01  0.59461565333E+02  0.47000000000E+01 0.  1.
         11    1    4    4    0    0 -0.38903286496E+02  0.80032069788E+01 -0.65030365821E+02  0.76200167329E+02  0.00000000000E+00 0. -1.
        -12    1    4    4    0    0  0.37810746682E+02  0.25073588889E+02 -0.13760383950E+03  0.14489014483E+03  0.00000000000E+00 0.  1.
</event>
<event>
12    1  0.8421768E-002  0.3887843E+03  0.7818608E-02  0.1047808E+00
         21   -1    0    0  501  502  0.00000000000E+00  0.00000000000E+00  0.77458452904E+03  0.77458452904E+03  0.00000000000E+00 0.  1.
         21   -1    0    0  502  503 -0.00000000000E+00 -0.00000000000E+00 -0.30870151688E+03  0.30870151688E+03  0.00000000000E+00 0. -1.
         -6    2    1    2    0  503 -0.34606864965E+03 -0.37163767281E+02 -0.96015425372E+02  0.40046494697E+03  0.17322977797E+03 0.  0.
        -24    2    3    3    0    0 -0.21430069766E+03  0.24152117969E+02 -0.70067846954E+01  0.22997430479E+03  0.79567405469E+02 0.  0.
          6    2    1    2  501    0  0.34606864965E+03  0.37163767281E+02  0.56189843753E+03  0.68282109894E+03  0.17137719567E+03 0.  0.
         24    2    5    5    0    0  0.13513070158E+03  0.41808045429E+02  0.16332742368E+03  0.23182516732E+03  0.84016913222E+02 0.  0.
          5    1    5    5  501    0  0.21093794807E+03 -0.46442781485E+01  0.39857101385E+03  0.45099593162E+03  0.47000000000E+01 0. -1.
        -11    1    6    6    0    0  0.14052368228E+03  0.38583369594E+02  0.12208291138E+03  0.19010475781E+03  0.00000000000E+00 0.  1.
         12    1    6    6    0    0 -0.53929807046E+01  0.32246758354E+01  0.41244512299E+02  0.41720409513E+02  0.00000000000E+00 0. -1.
         -5    1    3    3    0  503 -0.13176795199E+03 -0.61315885250E+02 -0.89008640676E+02  0.17049064218E+03  0.47000000000E+01 0.  1.
         11    1    4    4    0    0 -0.18018873934E+03 -0.36895366445E+01 -0.25867245189E+02  0.18207336115E+03  0.00000000000E+00 0. -1.
        -12    1    4    4    0    0 -0.34111958317E+02  0.27841654614E+02  0.18860460494E+02  0.47900943643E+02  0.00000000000E+00 0.  1.
</event>
<event>
12    1  0.8421768E-002  0.2703059E+03  0.7818608E-02  0.1101130E+00
         21   -1    0    0  501  502  0.00000000000E+00  0.00000000000E+00  0.61125130000E+02  0.61125130000E+02  0.00000000000E+00 0. -1.
         21   -1    0    0  502  503 -0.00000000000E+00 -0.00000000000E+00 -0.11997306496E+04  0.11997306496E+04  0.00000000000E+00 0. -1.
         -6    2    1    2    0  503  0.17752616992E+03  0.10916098792E+03 -0.52807332520E+03  0.59323411941E+03  0.17214418769E+03 0.  0.
        -24    2    3    3    0    0  0.14122850302E+03  0.10227055825E+03 -0.26186158706E+03  0.32442977018E+03  0.79236531044E+02 0.  0.
          6    2    1    2  501    0 -0.17752616992E+03 -0.10916098792E+03 -0.61053219439E+03  0.66762166018E+03  0.17186465159E+03 0.  0.
         24    2    5    5    0    0 -0.39507393425E+02 -0.96390645249E+02 -0.35752184986E+03  0.37909334483E+03  0.70978168086E+02 0.  0.
          5    1    5    5  501    0 -0.13801877649E+03 -0.12770342672E+02 -0.25301034453E+03  0.28852831534E+03  0.47000000000E+01 0. -1.
        -13    1    6    6    0    0 -0.30870729476E+02 -0.68296806252E+01 -0.14323268643E+03  0.14668077221E+03  0.00000000000E+00 0.  1.
         14    1    6    6    0    0 -0.86366639491E+01 -0.89560964623E+02 -0.21428916343E+03  0.23241257262E+03  0.00000000000E+00 0. -1.
         -5    1    3    3    0  503  0.36297666899E+02  0.68904296755E+01 -0.26621173814E+03  0.26880434923E+03  0.47000000000E+01 0.  1.
         11    1    4    4    0    0  0.47352048816E+02  0.73911567390E+01 -0.28966545941E+02  0.55999165251E+02  0.00000000000E+00 0. -1.
        -12    1    4    4    0    0  0.93876454201E+02  0.94879401506E+02 -0.23289504112E+03  0.26843060493E+03  0.00000000000E+00 0.  1.
</event>
<event>
12    1  0.8421768E-002  0.1923459E+03  0.7818608E-02  0.1156530E+00
         21   -1    0    0  503  502  0.00000000000E+00  0.00000000000E+00  0.15292547509E+04  0.15292547509E+04  0.00000000000E+00 0.  1.
         21   -1    0    0  501  503 -0.00000000000E+00 -0.00000000000E+00 -0.30248006935E+02  0.30248006935E+02  0.00000000000E+00 0. -1.
          6    2    1    2  501    0  0.31309695572E+02  0.79278302926E+02  0.39673417856E+03  0.44057391959E+03  0.17158678224E+03 0.  0.
         24    2    3    3    0    0  0.34053530681E+02  0.20530525420E+02  0.36025446550E+03  0.37120757719E+03  0.80191271530E+02 0.  0.
         -6    2    1    2    0  502 -0.31309695572E+02 -0.79278302926E+02  0.11022725655E+04  0.11189288383E+04  0.17242850764E+03 0.  0.
        -24    2    5    5    0    0 -0.84669103371E+02 -0.70864107559E+02  0.84329361917E+03  0.85433441336E+03  0.80948025995E+02 0.  0.
          5    1    3    3  501    0 -0.27438351089E+01  0.58747777506E+02  0.36479713060E+02  0.69366342400E+02  0.47000000000E+01 0. -1.
        -11    1    4    4    0    0  0.28157465527E+02  0.51035056861E+02  0.24511066928E+03  0.25194574831E+03  0.00000000000E+00 0.  1.
         12    1    4    4    0    0  0.58960651539E+01 -0.30504531441E+02  0.11514379622E+03  0.11926182889E+03  0.00000000000E+00 0. -1.
         -5    1    5    5    0  502  0.53359407799E+02 -0.84141953674E+01  0.25897894628E+03  0.26459442492E+03  0.47000000000E+01 0.  1.
         11    1    6    6    0    0 -0.19029610309E+02 -0.44417887050E+02  0.15365149739E+03  0.16107097010E+03  0.00000000000E+00 0. -1.
        -12    1    6    6    0    0 -0.65639493063E+02 -0.26446220509E+02  0.68964212178E+03  0.69326344326E+03  0.00000000000E+00 0.  1.
</event>
<event>
12    1  0.8421768E-002  0.2037980E+03  0.7818608E-02  0.1146696E+00
         21   -1    0    0  501  502  0.00000000000E+00  0.00000000000E+00  0.59442265282E+03  0.59442265282E+03  0.00000000000E+00 0. -1.
         21   -1    0    0  502  503 -0.00000000000E+00 -0.00000000000E+00 -0.86727496743E+02  0.86727496743E+02  0.00000000000E+00 0. -1.
         -6    2    1    2    0  503 -0.55927565500E+02 -0.92504476718E+02  0.40518804291E+03  0.45355372310E+03  0.17276764403E+03 0.  0.
        -24    2    3    3    0    0 -0.86293033036E+01  0.20811906806E+02  0.16994970102E+03  0.18815422069E+03  0.77533925144E+02 0.  0.
          6    2    1    2  501    0  0.55927565500E+02  0.92504476718E+02  0.10250711316E+03  0.22759642646E+03  0.17206816757E+03 0.  0.
         24    2    5    5    0    0  0.14941405149E+02 -0.13765171016E+02  0.73874988535E+02  0.11005923264E+03  0.79011361447E+02 0.  0.
          5    1    5    5  501    0  0.40986160352E+02  0.10626964773E+03  0.28632124626E+02  0.11753719382E+03  0.47000000000E+01 0. -1.
        -11    1    6    6    0    0  0.22775904230E+02  0.18997151039E+01 -0.95833215377E+01  0.24782872769E+02  0.00000000000E+00 0.  1.
         12    1    6    6    0    0 -0.78344990812E+01 -0.15664886120E+02  0.83458310072E+02  0.85276359873E+02  0.00000000000E+00 0. -1.
         -5    1    3    3    0  503 -0.47298262197E+02 -0.11331638352E+03  0.23523834190E+03  0.26539950241E+03  0.47000000000E+01 0.  1.
         13    1    4    4    0    0 -0.38568335657E+02  0.10132265993E+02  0.13565153663E+03  0.14139136720E+03  0.00000000000E+00 0. -1.
        -14    1    4    4    0    0  0.29939032354E+02  0.10679640813E+02  0.34298164389E+02  0.46762853491E+02  0.00000000000E+00 0.  1.
</event>
<event>
12    1  0.8421768E-002  0.2183955E+03  0.7818608E-02  0.1135497E+00
         21   -1    0    0  503  502  0.00000000000E+00  0.00000000000E+00  0.22660134142E+03  0.22660134142E+03  0.00000000000E+00 0. -1.
         21   -1    0    0  501  503 -0.00000000000E+00 -0.00000000000E+00 -0.20916201969E+03  0.20916201969E+03  0.00000000000E+00 0.  1.
          6    2    1    2  501    0 -0.84489882732E+02 -0.10156683282E+03  0.21983296828E+02  0.21949906238E+03  0.17390287874E+03 0.  0.
         24    2    3    3    0    0 -0.11031421846E+02  0.77883660358E+01 -0.15690828730E+02  0.82400066290E+02  0.79757243589E+02 0.  0.
         -6    2    1    2    0  502  0.84489882732E+02  0.10156683282E+03 -0.45439750960E+01  0.21626429872E+03  0.17115851535E+03 0.  0.
        -24    2    5    5    0    0  0.12519997721E+03  0.87758751018E+02  0.85419439915E+01  0.17108348207E+03  0.76288664659E+02 0.  0.
          5    1    3    3  501    0 -0.73458460886E+02 -0.10935519886E+03  0.37674125558E+02  0.13709899609E+03  0.47000000000E+01 0. -1.
        -13    1    4    4    0    0  0.14814725873E+02 -0.13358861487E+02  0.23556212658E+02  0.30867951628E+02  0.00000000000E+00 0.  1.
         14    1    4    4    0    0 -0.25846147719E+02  0.21147227523E+02 -0.39247041388E+02  0.51532114662E+02  0.00000000000E+00 0. -1.
         -5    1    5    5    0  502 -0.40710094475E+02  0.13808081804E+02 -0.13085919088E+02  0.45180816655E+02  0.47000000000E+01 0.  1.
         11    1    6    6    0    0  0.26757613761E+02  0.43648473563E+02  0.32420518952E+02  0.60599085700E+02  0.00000000000E+00 0. -1.
        -12    1    6    6    0    0  0.98442363446E+02  0.44110277455E+02 -0.23878574960E+02  0.11048439637E+03  0.00000000000E+00 0.  1.
</event>
<event>
12    1  0.8421768E-002  0.1810909E+03  0.7818608E-02  0.1167118E+00
         21   -1    0    0  503  502  0.00000000000E+00  0.00000000000E+00  0.71317436939E+03  0.71317436939E+03  0.00000000000E+00 0. -1.
         21   -1    0    0  501  503 -0.00000000000E+00 -0.00000000000E+00 -0.93516663580E+02  0.93516663580E+02  0.00000000000E+00 0. -1.
          6    2    1    2  501    0 -0.32733844343E+02  0.26090821177E+02  0.21740946122E+02  0.18239129674E+03  0.17618649458E+03 0.  0.
         24    2    3    3    0    0  0.50315544573E+01  0.50756897968E+02 -0.43289540003E+02  0.10310892281E+03  0.78459457413E+02 0.  0.
         -6    2    1    2    0  502  0.32733844343E+02 -0.26090821177E+02  0.59791675969E+03  0.62429973623E+03  0.17462380601E+03 0.  0.
        -24    2    5    5    0    0  0.48539777630E+02 -0.52587374962E+02  0.22050294681E+03  0.24559778080E+03  0.81087473553E+02 0.  0.
          5    1    3    3  501    0 -0.37765398800E+02 -0.24666076790E+02  0.65030486125E+02  0.79282373933E+02  0.47000000000E+01 0. -1.
        -11    1    4    4    0    0 -0.23840004817E+02  0.43808374453E+01 -0.41967046245E+02  0.48464115972E+02  0.00000000000E+00 0.  1.
         12    1    4    4    0    0  0.28871559275E+02  0.46376060522E+02 -0.13224937583E+01  0.54644806837E+02  0.00000000000E+00 0. -1.
         -5    1    5    5    0  502 -0.15805933287E+02  0.26496553785E+02  0.37741381288E+03  0.37870195542E+03  0.47000000000E+01 0.  1.
         13    1    6    6    0    0 -0.11222696652E+02 -0.44435896799E+02  0.11907922554E+03  0.12759451321E+03  0.00000000000E+00 0. -1.
        -14    1    6    6    0    0  0.59762474282E+02 -0.81514781627E+01  0.10142372127E+03  0.11800326760E+03  0.00000000000E+00 0.  1.
</event>
<event>
12    1  0.8421768E-002  0.1824479E+03  0.7818608E-02  0.1166253E+00
         21   -1    0    0  501  502  0.00000000000E+00  0.00000000000E+00  0.18628517152E+03  0.18628517152E+03  0.00000000000E+00 0.  1.
         21   -1    0    0  502  503 -0.00000000000E+00 -0.00000000000E+00 -0.21161767953E+03  0.21161767953E+03  0.00000000000E+00 0.  1.
         -6    2    1    2    0  503  0.23121679312E+02  0.56541842969E+02 -0.95011720513E+02  0.20570475631E+03  0.17191750252E+03 0.  0.
        -24    2    3    3    0    0  0.61609865999E+02  0.47396104615E+02 -0.11549706830E+03  0.16090827745E+03  0.80682926593E+02 0.  0.
          6    2    1    2  501    0 -0.23121679312E+02 -0.56541842969E+02  0.69679212506E+02  0.19219809473E+03  0.16838444971E+03 0.  0.
         24    2    5    5    0    0 -0.26796027208E+02 -0.18731979982E+02 -0.25649941515E+02  0.89471154848E+02  0.79235433374E+02 0.  0.
          5    1    5    5  501    0  0.36743478960E+01 -0.37809862987E+02  0.95329154021E+02  0.10272693988E+03  0.47000000000E+01 0. -1.
        -13    1    6    6    0    0 -0.28966957362E+02 -0.48123355628E+02 -0.15034381738E+02  0.58146148711E+02  0.00000000000E+00 0.  1.
         14    1    6    6    0    0  0.21709301539E+01  0.29391375646E+02 -0.10615559777E+02  0.31325006137E+02  0.00000000000E+00 0. -1.
         -5    1    3    3    0  503 -0.38488186687E+02  0.91457383541E+01  0.20485347790E+02  0.44796478863E+02  0.47000000000E+01 0.  1.
         11    1    4    4    0    0  0.93662152184E+01  0.31379573824E+02  0.42757109979E+00  0.32750365768E+02  0.00000000000E+00 0. -1.
        -12    1    4    4    0    0  0.52243650781E+02  0.16016530790E+02 -0.11592463940E+03  0.12815791168E+03  0.00000000000E+00 0.  1.
</event>
<event>
12    1  0.8421768E-002  0.1963701E+03  0.7818608E-02  0.1153250E+00
         21   -1    0    0  501  502  0.00000000000E+00  0.00000000000E+00  0.44486994542E+02  0.44486994542E+02  0.00000000000E+00 0. -1.
         21   -1    0    0  502  503 -0.00000000000E+00 -0.00000000000E+00 -0.16723151118E+04  0.16723151118E+04  0.00000000000E+00 0. -1.
         -6    2    1    2    0  503  0.62677706369E+02 -0.64764667206E+02 -0.14147734067E+04  0.14283364420E+04  0.17446559108E+03 0.  0.
        -24    2    3    3    0    0  0.11073136563E+03 -0.42162673148E+02 -0.10128184965E+04  0.10228616043E+04  0.80033919012E+02 0.  0.
          6    2    1    2  501    0 -0.62677706369E+02  0.64764667206E+02 -0.21305471062E+03  0.28846566433E+03  0.17232867661E+03 0.  0.
         24    2    5    5    0    0 -0.50436348059E+02  0.12994514016E+02 -0.21451213586E+03  0.23504082270E+03  0.80722049686E+02 0.  0.
          5    1    5    5  501    0 -0.12241358310E+02  0.51770153190E+02  0.14574252335E+01  0.53424841627E+02  0.47000000000E+01 0. -1.
        -11    1    6    6    0    0 -0.80353186981E+01 -0.22211490677E+02 -0.14205821167E+03  0.14400851422E+03  0.00000000000E+00 0.  1.
         12    1    6    6    0    0 -0.42401029361E+02  0.35206004693E+02 -0.72453924188E+02  0.91032308482E+02  0.00000000000E+00 0. -1.
         -5    1    3    3    0  503 -0.48053659260E+02 -0.22601994058E+02 -0.40195491013E+03  0.40547483779E+03  0.47000000000E+01 0.  1.
         11    1    4    4    0    0  0.92561690396E+02 -0.48133193779E+02 -0.55975010258E+03  0.56938971558E+03  0.00000000000E+00 0. -1.
        -12    1    4    4    0    0  0.18169675234E+02  0.59705206314E+01 -0.45306839396E+03  0.45347188867E+03  0.00000000000E+00 0.  1.
</event>
<event>
12    1  0.8421768E-002  0.2670397E+03  0.7818608E-02  0.1103193E+00
         21   -1    0    0  503  502  0.00000000000E+00  0.00000000000E+00  0.10283691045E+03  0.10283691045E+03  0.00000000000E+00 0.  1.
         21   -1    0    0  501  503 -0.00000000000E+00 -0.00000000000E+00 -0.73963482960E+03  0.73963482960E+03  0.00000000000E+00 0. -1.
          6    2    1    2  501    0  0.15189666539E+03  0.13417035303E+03 -0.42859214158E+03  0.50497665841E+03  0.17388479270E+03 0.  0.
         24    2    3    3    0    0  0.16816999954E+03  0.94278823596E+02 -0.27348742460E+03  0.34393095449E+03  0.79520341529E+02 0.  0.
         -6    2    1    2    0  502 -0.15189666539E+03 -0.13417035303E+03 -0.20820577758E+03  0.33749508164E+03  0.17169450697E+03 0.  0.
        -24    2    5    5    0    0 -0.69079259071E+02 -0.14168698131E+03 -0.10561762524E+03  0.20535257716E+03  0.78533136181E+02 0.  0.
          5    1    3    3  501    0 -0.16273334145E+02  0.39891529430E+02 -0.15510471698E+03  0.16104570393E+03  0.47000000000E+01 0. -1.
        -13    1    4    4    0    0  0.20196577007E+02  0.34338193242E+01 -0.61101621955E+00  0.20495516065E+02  0.00000000000E+00 0.  1.
         14    1    4    4    0    0  0.14797342253E+03  0.90845004272E+02 -0.27287640838E+03  0.32343543842E+03  0.00000000000E+00 0. -1.
         -5    1    5    5    0  502 -0.82817406319E+02  0.75166282794E+01 -0.10258815234E+03  0.13214250448E+03  0.47000000000E+01 0.  1.
         11    1    6    6    0    0 -0.73311491240E+01 -0.83902984363E+02 -0.23417696160E+02  0.87417647108E+02  0.00000000000E+00 0. -1.
        -12    1    6    6    0    0 -0.61748109947E+02 -0.57783996943E+02 -0.82199929085E+02  0.11793493005E+03  0.00000000000E+00 0.  1.
</event>
<event>
12    1  0.8421768E-002  0.1840380E+03  0.7818608E-02  0.1164255E+00
         21   -1    0    0  501  502  0.00000000000E+00  0.00000000000E+00  0.50057734934E+03  0.50057734934E+03  0.00000000000E+00 0.  1.
         21   -1    0    0  502  503 -0.00000000000E+00 -0.00000000000E+00 -0.71139805173E+02  0.71139805173E+02  0.00000000000E+00 0.  1.
         -6    2    1    2    0  503 -0.25271023731E+02 -0.59182173529E+02  0.14664822835E+03  0.23431565189E+03  0.17104668234E+03 0.  0.
        -24    2    3    3    0    0  0.13425377447E+02 -0.86256037677E+02  0.58015582052E+02  0.13377590068E+03  0.83125441634E+02 0.  0.
          6    2    1    2  501    0  0.25271023731E+02  0.59182173529E+02  0.28278931582E+03  0.33740150262E+03  0.17242048175E+03 0.  0.
         24    2    5    5    0    0 -0.32951001724E+02  0.12781108674E+02  0.22850730991E+03  0.24514376998E+03  0.81429429701E+02 0.  0.
          5    1    5    5  501    0  0.58222025455E+02  0.46401064855E+02  0.54282005910E+02  0.92257732648E+02  0.47000000000E+01 0. -1.
        -11    1    6    6    0    0  0.23824089779E+02  0.46387808442E+01  0.11979272860E+03  0.12222685207E+03  0.00000000000E+00 0.  1.
         12    1    6    6    0    0 -0.56775091503E+02  0.81423278299E+01  0.10871458131E+03  0.12291691790E+03  0.00000000000E+00 0. -1.
         -5    1    3    3    0  503 -0.38696401178E+02  0.27073864148E+02  0.88632646297E+02  0.10053975121E+03  0.47000000000E+01 0.  1.
         11    1    4    4    0    0  0.29009446346E+01  0.65705941007E+01 -0.14056124324E+02  0.15784892069E+02  0.00000000000E+00 0. -1.
        -12    1    4    4    0    0  0.10524432812E+02 -0.92826631778E+02  0.72071706376E+02  0.11799100861E+03  0.00000000000E+00 0.  1.
</event>
<event>
12    1  0.8421768E-002  0.2321660E+03  0.7818608E-02  0.1125311E+00
         21   -1    0    0  501  502  0.00000000000E+00  0.00000000000E+00  0.41892861568E+02  0.41892861568E+02  0.00000000000E+00 0.  1.
         21   -1    0    0  502  503 -0.00000000000E+00 -0.00000000000E+00 -0.15371138209E+04  0.15371138209E+04  0.00000000000E+00 0.  1.
         -6    2    1    2    0  503 -0.11415951143E+03  0.10645920845E+03 -0.10715040837E+04  0.10963676620E+04  0.17185776602E+03 0.  0.
        -24    2    3    3    0    0 -0.22063608919E+02  0.77478254447E+02 -0.80343447319E+03  0.81140282725E+03  0.79861834499E+02 0.  0.
          6    2    1    2  501    0  0.11415951143E+03 -0.10645920845E+03 -0.42371687558E+03  0.48263902044E+03  0.17040679646E+03 0.  0.
         24    2    5    5    0    0  0.12809135791E+03 -0.81157176212E+02 -0.41933852204E+03  0.45304934046E+03  0.80093854943E+02 0.  0.
          5    1    5    5  501    0 -0.13931846475E+02 -0.25302032237E+02 -0.43783535423E+01  0.29589679980E+02  0.47000000000E+01 0. -1.
        -13    1    6    6    0    0  0.11243276879E+03 -0.94557074657E+02 -0.39329937698E+03  0.41984112209E+03  0.00000000000E+00 0.  1.
         14    1    6    6    0    0  0.15658589123E+02  0.13399898446E+02 -0.26039145064E+02  0.33208218370E+02  0.00000000000E+00 0. -1.
         -5    1    3    3    0  503 -0.92095902515E+02  0.28980954002E+02 -0.26806961053E+03  0.28496483475E+03  0.47000000000E+01 0.  1.
         11    1    4    4    0    0  0.16846228157E+02 -0.27120983025E+00 -0.45883111405E+02  0.48878715921E+02  0.00000000000E+00 0. -1.
        -12    1    4    4    0    0 -0.38909837076E+02  0.77749464278E+02 -0.75755136178E+03  0.76252411133E+03  0.00000000000E+00 0.  1.
</event>
<event>
12    1  0.8421768E-002  0.2532024E+03  0.7818608E-02  0.1111955E+00
         21   -1    0    0  503  502  0.00000000000E+00  0.00000000000E+00  0.79426939280E+02  0.79426939280E+02  0.00000000000E+00 0.  1.
         21   -1    0    0  501  503 -0.00000000000E+00 -0.00000000000E+00 -0.92215977883E+03  0.92215977883E+03  0.00000000000E+00 0.  1.
          6    2    1    2  501    0  0.15463186016E+03  0.92121337445E+02 -0.61118669476E+03  0.66155923472E+03  0.17808450859E+03 0.  0.
         24    2    3    3    0    0  0.15210598733E+03  0.45773324974E+02 -0.57806157809E+03  0.60434139093E+03  0.76432323411E+02 0.  0.
         -6    2    1    2    0  502 -0.15463186016E+03 -0.92121337445E+02 -0.23154614478E+03  0.34002748339E+03  0.17206893766E+03 0.  0.
        -24    2    5    5    0    0 -0.13926687007E+03 -0.12895174932E+03 -0.21132717061E+03  0.29504460802E+03  0.79801835412E+02 0.  0.
          5    1    3    3  501    0  0.25258728284E+01  0.46348012472E+02 -0.33125116670E+02  0.57217843790E+02  0.47000000000E+01 0. -1.
        -13    1    4    4    0    0  0.10832227926E+03  0.44891624648E+02 -0.28739997010E+03  0.31039928634E+03  0.00000000000E+00 0.  1.
         14    1    4    4    0    0  0.43783708064E+02  0.88170032600E+00 -0.29066160800E+03  0.29394210459E+03  0.00000000000E+00 0. -1.
         -5    1    5    5    0  502 -0.15364990086E+02  0.36830411877E+02 -0.20218974178E+02  0.44982875366E+02  0.47000000000E+01 0.  1.
         11    1    6    6    0    0 -0.15794504532E+02 -0.58631049472E+02 -0.87877538047E+02  0.10681539228E+03  0.00000000000E+00 0. -1.
        -12    1    6    6    0    0 -0.12347236554E+03 -0.70320699850E+02 -0.12344963256E+03  0.18822921574E+03  0.00000000000E+00 0.  1.
</event>
<event>
12    1  0.8421768E-002  0.2306252E+03  0.7818608E-02  0.1126276E+00
         21   -1    0    0  503  502  0.00000000000E+00  0.00000000000E+00  0.35289434335E+02  0.35289434335E+02  0.00000000000E+00 0. -1.
         21   -1    0    0  501  503 -0.00000000000E+00 -0.00000000000E+00 -0.29037366683E+04  0.29037366683E+04  0.00000000000E+00 0. -1.
          6    2    1    2  501    0  0.11024265268E+03 -0.10571871577E+03 -0.24536684375E+04  0.24644426598E+04  0.17221769090E+03 0.  0.
         24    2    3    3    0    0  0.40786958720E+02 -0.82572485370E+02 -0.81225435306E+03  0.82138997412E+03  0.80265585292E+02 0.  0.
         -6    2    1    2    0  502 -0.11024265268E+03  0.10571871577E+03 -0.41477879649E+03  0.47458344283E+03  0.17279497926E+03 0.  0.
        -24    2    5    5    0    0 -0.85987225596E+02  0.27288750373E+02 -0.12503535668E+03  0.17339755982E+03  0.79337219934E+02 0.  0.
          5    1    3    3  501    0  0.69455693960E+02 -0.23146230404E+02 -0.16414140844E+04  0.16430526857E+04  0.47000000000E+01 0. -1.
        -13    1    4    4    0    0  0.33748959015E+01 -0.84412885298E+02 -0.53902962643E+03  0.54560962537E+03  0.00000000000E+00 0.  1.
         14    1    4    4    0    0  0.37412062819E+02  0.18403999278E+01 -0.27322472663E+03  0.27578034875E+03  0.00000000000E+00 0. -1.
         -5    1    5    5    0  502 -0.24255427084E+02  0.78429965401E+02 -0.28974343981E+03  0.30118588302E+03  0.47000000000E+01 0.  1.
         11    1    6    6    0    0 -0.25750348499E+02  0.39204692252E+02 -0.92953807561E+02  0.10411771551E+03  0.00000000000E+00 0. -1.
        -12    1    6    6    0    0 -0.60236877097E+02 -0.11915941880E+02 -0.32081549119E+02  0.69279844307E+02  0.00000000000E+00 0.  1.
</event>
<event>
12    1  0.8421768E-002  0.1763238E+03  0.7818608E-02  0.1171441E+00
         21   -1    0    0  501  502  0.00000000000E+00  0.00000000000E+00  0.22184630727E+04  0.22184630727E+04  0.00000000000E+00 0.  1.
         21   -1    0    0  502  503 -0.00000000000E+00 -0.00000000000E+00 -0.14005973452E+02  0.14005973452E+02  0.00000000000E+00 0.  1.
         -6    2    1    2    0  503 -0.29969714597E+02  0.55908594968E+01  0.10891204917E+04  0.11033011937E+04  0.17366818097E+03 0.  0.
        -24    2    3    3    0    0 -0.51943095556E+02  0.32267058912E+02  0.10291818764E+04  0.10339529659E+04  0.78129078126E+02 0.  0.
          6    2    1    2  501    0  0.29969714597E+02 -0.55908594968E+01  0.11153366076E+04  0.11291678525E+04  0.17353630561E+03 0.  0.
         24    2    5    5    0    0 -0.17711426456E+02  0.33881947325E+02  0.92173209466E+03  0.92585432339E+03  0.78450575663E+02 0.  0.
          5    1    5    5  501    0  0.47681141052E+02 -0.39472806821E+02  0.19360451291E+03  0.20331352908E+03  0.47000000000E+01 0. -1.
        -13    1    6    6    0    0  0.24334580560E+02  0.36110315740E+02  0.55712787313E+03  0.55882698014E+03  0.00000000000E+00 0.  1.
         14    1    6    6    0    0 -0.42046007016E+02 -0.22283684152E+01  0.36460422154E+03  0.36702734325E+03  0.00000000000E+00 0. -1.
         -5    1    3    3    0  503  0.21973380959E+02 -0.26676199415E+02  0.59938615275E+02  0.69348227714E+02  0.47000000000E+01 0.  1.
         13    1    4    4    0    0  0.16983548183E+02  0.92477437204E+01  0.94959320651E+02  0.96908380707E+02  0.00000000000E+00 0. -1.
        -14    1    4    4    0    0 -0.68926643739E+02  0.23019315192E+02  0.93422255573E+03  0.93704458524E+03  0.00000000000E+00 0.  1.
</event>
<event>
12    1  0.8421768E-002  0.1920101E+03  0.7818608E-02  0.1157599E+00
         21   -1    0    0  501  502  0.00000000000E+00  0.00000000000E+00  0.18933515277E+03  0.18933515277E+03  0.00000000000E+00 0.  1.
         21   -1    0    0  502  503 -0.00000000000E+00 -0.00000000000E+00 -0.41296006676E+03  0.41296006676E+03  0.00000000000E+00 0.  1.
         -6    2    1    2    0  503 -0.65545552025E+02 -0.53885303472E+02 -0.33339497167E+03  0.38473376805E+03  0.17224407051E+03 0.  0.
        -24    2    3    3    0    0 -0.12084940746E+02 -0.10331870304E+03 -0.20869821750E+03  0.24025861983E+03  0.57865864084E+02 0.  0.
          6    2    1    2  501    0  0.65545552025E+02  0.53885303472E+02  0.10977005768E+03  0.21756145148E+03  0.16758184355E+03 0.  0.
         24    2    5    5    0    0  0.62295893638E+02  0.98418678116E+02  0.92461025165E+02  0.16944207551E+03  0.81206903728E+02 0.  0.
          5    1    5    5  501    0  0.32496583873E+01 -0.44533374644E+02  0.17309032511E+02  0.48119375965E+02  0.47000000000E+01 0. -1.
        -11    1    6    6    0    0  0.33055143086E+02 -0.51797645276E+01  0.14165387839E+02  0.36333602321E+02  0.00000000000E+00 0.  1.
         12    1    6    6    0    0  0.29240750552E+02  0.10359844264E+03  0.78295637326E+02  0.13310847319E+03  0.00000000000E+00 0. -1.
         -5    1    3    3    0  503 -0.53460611280E+02  0.49433399573E+02 -0.12469675417E+03  0.14447514822E+03  0.47000000000E+01 0.  1.
         11    1    4    4    0    0  0.92933813521E+01 -0.61076283774E+02 -0.16358674763E+03  0.17486367083E+03  0.00000000000E+00 0. -1.
        -12    1    4    4    0    0 -0.21378322098E+02 -0.42242419271E+02 -0.45111469873E+02  0.65394949007E+02  0.00000000000E+00 0.  1.
</event>
<event>
12    1  0.8421768E-002  0.2137694E+03  0.7818608E-02  0.1139132E+00
         21   -1    0    0  503  502  0.00000000000E+00  0.00000000000E+00  0.65047818101E+03  0.65047818101E+03  0.00000000000E+00 0.  1.
         21   -1    0    0  501  503 -0.00000000000E+00 -0.00000000000E+00 -0.33765216547E+03  0.33765216547E+03  0.00000000000E+00 0.  1.
          6    2    1    2  501    0 -0.21684861622E+02  0.12130128662E+03 -0.28417267649E+03  0.35401299735E+03  0.17142595157E+03 0.  0.
         24    2    3    3    0    0 -0.78635990790E+02  0.94496650674E+02 -0.16773734571E+03  0.22156981755E+03  0.76446915360E+02 0.  0.
         -6    2    1    2    0  502  0.21684861622E+02 -0.12130128662E+03  0.59699869202E+03  0.63411734913E+03  0.17468010427E+03 0.  0.
        -24    2    5    5    0    0 -0.11686612719E+02 -0.23403615726E+02  0.12215258619E+03  0.14811475295E+03  0.79576501445E+02 0.  0.
          5    1    3    3  501    0  0.56951129168E+02  0.26804635946E+02 -0.11643533078E+03  0.13244317980E+03  0.47000000000E+01 0. -1.
        -13    1    4    4    0    0 -0.61475806319E+01  0.30260403960E+02 -0.37359247961E+01  0.31103728548E+02  0.00000000000E+00 0.  1.
         14    1    4    4    0    0 -0.72488410158E+02  0.64236246714E+02 -0.16400142091E+03  0.19046608900E+03  0.00000000000E+00 0. -1.
         -5    1    5    5    0  502  0.33371474341E+02 -0.97897670894E+02  0.47484610584E+03  0.48600259618E+03  0.47000000000E+01 0.  1.
         11    1    6    6    0    0  0.25243090092E+01 -0.51209104838E+02  0.63005899832E+02  0.81231077599E+02  0.00000000000E+00 0. -1.
        -12    1    6    6    0    0 -0.14210921728E+02  0.27805489112E+02  0.59146686356E+02  0.66883675348E+02  0.00000000000E+00 0.  1.
</event>
<event>
12    1  0.8421768E-002  0.1764454E+03  0.7818608E-02  0.1171353E+00
         21   -1    0    0  503  502  0.00000000000E+00  0.00000000000E+00  0.28635839219E+03  0.28635839219E+03  0.00000000000E+00 0. -1.
         21   -1    0    0  501  503 -0.00000000000E+00 -0.00000000000E+00 -0.34048168569E+03  0.34048168569E+03  0.00000000000E+00 0. -1.
          6    2    1    2  501    0  0.12495080865E+02 -0.36444696215E+02 -0.28574070370E+03  0.33582843809E+03  0.17218782521E+03 0.  0.
         24    2    3    3    0    0 -0.54716801224E+02 -0.45430868719E+02 -0.15535036640E+03  0.18878450435E+03  0.80299194084E+02 0.  0.
         -6    2    1    2    0  502 -0.12495080865E+02  0.36444696215E+02  0.23161741021E+03  0.29101163978E+03  0.17192093197E+03 0.  0.
        -24    2    5    5    0    0  0.32791480009E+02  0.24980877852E+02  0.50592075133E+02  0.10399679100E+03  0.80971902856E+02 0.  0.
          5    1    3    3  501    0  0.67211882089E+02  0.89861725038E+01 -0.13039033730E+03  0.14704393375E+03  0.47000000000E+01 0. -1.
        -13    1    4    4    0    0 -0.33894899653E+02  0.68578259303E+01 -0.15236865280E+02  0.37789629034E+02  0.00000000000E+00 0.  1.
         14    1    4    4    0    0 -0.20821901571E+02 -0.52288694649E+02 -0.14011350113E+03  0.15099487531E+03  0.00000000000E+00 0. -1.
         -5    1    5    5    0  502 -0.45286560874E+02  0.11463818363E+02  0.18102533507E+03  0.18701484878E+03  0.47000000000E+01 0.  1.
         11    1    6    6    0    0 -0.10302440964E+02  0.22071397778E+02  0.55419329789E+02  0.60535848916E+02  0.00000000000E+00 0. -1.
        -12    1    6    6    0    0  0.43093920973E+02  0.29094800748E+01 -0.48272546569E+01  0.43460942082E+02  0.00000000000E+00 0.  1.
</event>
<event>
12    1  0.8421768E-002  0.1954728E+03  0.7818608E-02  0.1155536E+00
         21   -1    0    0  503  502  0.00000000000E+00  0.00000000000E+00  0.12879499242E+04  0.12879499242E+04  0.00000000000E+00 0.  1.
         21   -1    0    0  501  503 -0.00000000000E+00 -0.00000000000E+00 -0.10622302580E+03  0.10622302580E+03  0.00000000000E+00 0.  1.
          6    2    1    2  501    0 -0.68477130430E+02  0.25179220991E+02 -0.23072035427E+01  0.19548642885E+03  0.18134638159E+03 0.  0.
         24    2    3    3    0    0 -0.32726361391E+02  0.27013265512E+02 -0.73759769493E+02  0.11542994637E+03  0.77992548877E+02 0.  0.
         -6    2    1    2    0  502  0.68477130430E+02 -0.25179220991E+02  0.11840341019E+04  0.11986865211E+04  0.17201601916E+03 0.  0.
        -24    2    5    5    0    0 -0.74618707683E+01 -0.49601533310E+01  0.30105922450E+03  0.31220907259E+03  0.82204414203E+02 0.  0.
          5    1    3    3  501    0 -0.35750769039E+02 -0.18340445205E+01  0.71452565951E+02  0.80056482481E+02  0.47000000000E+01 0. -1.
        -11    1    4    4    0    0 -0.91435763246E+01  0.28506711466E+02  0.74515462735E+01  0.30850658477E+02  0.00000000000E+00 0.  1.
         12    1    4    4    0    0 -0.23582785066E+02 -0.14934459539E+01 -0.81211315767E+02  0.84579287895E+02  0.00000000000E+00 0. -1.
         -5    1    5    5    0  502  0.75939001198E+02 -0.20219067660E+02  0.88297487741E+03  0.88647744852E+03  0.47000000000E+01 0.  1.
         11    1    6    6    0    0 -0.11214872716E+02 -0.32826179094E+02  0.58395404159E+02  0.67921680124E+02  0.00000000000E+00 0. -1.
        -12    1    6    6    0    0  0.37530019476E+01  0.27866025763E+02  0.24266382034E+03  0.24428739246E+03  0.00000000000E+00 0.  1.
</event>
<event>
12    1  0.8421768E-002  0.1890388E+03  0.7818608E-02  0.1159492E+00
         21   -1    0    0  501  502  0.00000000000E+00  0.00000000000E+00  0.32975974562E+03  0.32975974562E+03  0.00000000000E+00 0. -1.
         21   -1    0    0  502  503 -0.00000000000E+00 -0.00000000000E+00 -0.10841659107E+03  0.10841659107E+03  0.00000000000E+00 0. -1.
         -6    2    1    2    0  503  0.72638037049E+02 -0.32363050623E+02  0.12503185882E+03  0.22664648697E+03  0.17149930864E+03 0.  0.
        -24    2    3    3    0    0  0.74776651025E+02 -0.66592878882E+02  0.38283512445E+02  0.13324616357E+03  0.79137562033E+02 0.  0.
          6    2    1    2  501    0 -0.72638037049E+02  0.32363050623E+02  0.96311295724E+02  0.21152984972E+03  0.17072012232E+03 0.  0.
         24    2    5    5    0    0 -0.85975579122E+01  0.28911333145E+02 -0.14479078479E+02  0.83429520531E+02  0.76426814641E+02 0.  0.
          5    1    5    5  501    0 -0.64040479136E+02  0.34517174785E+01  0.11079037420E+03  0.12810032919E+03  0.47000000000E+01 0. -1.
        -11    1    6    6    0    0  0.10606603767E+02 -0.23774082931E+02 -0.31817255723E+01  0.26226521697E+02  0.00000000000E+00 0.  1.
         12    1    6    6    0    0 -0.19204161679E+02  0.52685416076E+02 -0.11297352907E+02  0.57202998834E+02  0.00000000000E+00 0. -1.
         -5    1    3    3    0  503 -0.21386139767E+01  0.34229828259E+02  0.86748346379E+02  0.93400323403E+02  0.47000000000E+01 0.  1.
         11    1    4    4    0    0 -0.20035559738E+01 -0.44449149433E+02  0.28260305836E+02  0.52710397531E+02  0.00000000000E+00 0. -1.
        -12    1    4    4    0    0  0.76780206999E+02 -0.22143729449E+02  0.10023206608E+02  0.80535766039E+02  0.00000000000E+00 0.  1.
</event>
<event>
12    1  0.8421768E-002  0.1806867E+03  0.7818608E-02  0.1167330E+00
         21   -1    0    0  501  502  0.00000000000E+00  0.00000000000E+00  0.22329118542E+03  0.22329118542E+03  0.00000000000E+00 0. -1.
         21   -1    0    0  502  503 -0.00000000000E+00 -0.00000000000E+00 -0.16415763016E+03  0.16415763016E+03  0.00000000000E+00 0. -1.
         -6    2    1    2    0  503  0.49800556976E+02  0.43532533768E+01  0.94801439479E+02  0.20404658478E+03  0.17363366477E+03 0.  0.
        -24    2    3    3    0    0  0.65098848917E+02  0.61749621175E+02  0.54035837073E+02  0.13185028908E+03  0.80085898869E+02 0.  0.
          6    2    1    2  501    0 -0.49800556976E+02 -0.43532533768E+01 -0.35667884215E+02  0.18340223080E+03  0.17281531763E+03 0.  0.
         24    2    5    5    0    0  0.51390207229E+01 -0.35227267822E+02 -0.73125837792E+02  0.10993965358E+03  0.73972760822E+02 0.  0.
          5    1    5    5  501    0 -0.54939577699E+02  0.30874014445E+02  0.37457953577E+02  0.73462577221E+02  0.47000000000E+01 0. -1.
        -11    1    6    6    0    0  0.25740314501E+02 -0.23947486679E+02 -0.22001710235E+01  0.35226221220E+02  0.00000000000E+00 0.  1.
         12    1    6    6    0    0 -0.20601293778E+02 -0.11279781142E+02 -0.70925666769E+02  0.74713432357E+02  0.00000000000E+00 0. -1.
         -5    1    3    3    0  503 -0.15298291940E+02 -0.57396367799E+02  0.40765602406E+02  0.72196295696E+02  0.47000000000E+01 0.  1.
         11    1    4    4    0    0  0.31901597170E+02  0.30992628801E+02  0.70781656676E+02  0.83596039761E+02  0.00000000000E+00 0. -1.
        -12    1    4    4    0    0  0.33197251747E+02  0.30756992375E+02 -0.16745819603E+02  0.48254249322E+02  0.00000000000E+00 0.  1.
</event>
<event>
12    1  0.8421768E-002  0.2092254E+03  0.7818608E-02  0.1142293E+00
         21   -1    0    0  501  502  0.00000000000E+00  0.00000000000E+00  0.29456248990E+03  0.29456248990E+03  0.00000000000E+00 0. -1.
         21   -1    0    0  502  503 -0.00000000000E+00 -0.00000000000E+00 -0.50037410485E+03  0.50037410485E+03  0.00000000000E+00 0.  1.
         -6    2    1    2    0  503  0.11147056165E+03  0.42725493297E+02 -0.43631153496E+03  0.48364011008E+03  0.17113984527E+03 0.  0.
        -24    2    3    3    0    0  0.91338116603E+02  0.41950069942E+01 -0.14266578385E+03  0.18675657927E+03  0.78512702091E+02 0.  0.
          6    2    1    2  501    0 -0.11147056165E+03 -0.42725493297E+02  0.23049992002E+03  0.31129648468E+03  0.17182588383E+03 0.  0.
         24    2    5    5    0    0 -0.78019436140E+02 -0.85553970493E+02  0.10907304886E+03  0.17818062802E+03  0.80280084259E+02 0.  0.
          5    1    5    5  501    0 -0.33451125508E+02  0.42828477196E+02  0.12142687115E+03  0.13311585666E+03  0.47000000000E+01 0. -1.
        -13    1    6    6    0    0  0.16167022255E+02 -0.11419315811E+02  0.78435896180E+01  0.21290732263E+02  0.00000000000E+00 0.  1.
         14    1    6    6    0    0 -0.94186458395E+02 -0.74134654682E+02  0.10122945925E+03  0.15688989575E+03  0.00000000000E+00 0. -1.
         -5    1    3    3    0  503  0.20132445044E+02  0.38530486303E+02 -0.29364575111E+03  0.29688353081E+03  0.47000000000E+01 0.  1.
         11    1    4    4    0    0  0.94466764740E+02  0.20649391924E+02 -0.92294606031E+02  0.13367371219E+03  0.00000000000E+00 0. -1.
        -12    1    4    4    0    0 -0.31286481368E+01 -0.16454384930E+02 -0.50371177820E+02  0.53082867081E+02  0.00000000000E+00 0.  1.
</event>
<event>
12    1  0.8421768E-002  0.1781401E+03  0.7818608E-02  0.1169644E+00
         21   -1    0    0  501  502  0.00000000000E+00  0.00000000000E+00  0.83370066283E+02  0.83370066283E+02  0.00000000000E+00 0. -1.
         21   -1    0    0  502  503 -0.00000000000E+00 -0.00000000000E+00 -0.87086395036E+03  0.87086395036E+03  0.00000000000E+00 0. -1.
         -6    2    1    2    0  503 -0.44764488668E+02 -0.96597646770E+00 -0.75175272736E+03  0.77254384682E+03  0.17229927337E+03 0.  0.
        -24    2    3    3    0    0 -0.91418421748E+02 -0.15630813454E+02 -0.42490516575E+03  0.44202445942E+03  0.78990965802E+02 0.  0.
          6    2    1    2  501    0  0.44764488668E+02  0.96597646770E+00 -0.35741156716E+02  0.18169016983E+03  0.17242127181E+03 0.  0.
         24    2    5    5    0    0  0.93877855739E+02  0.48871633711E+01 -0.44724752532E+02  0.13138814675E+03  0.80159874332E+02 0.  0.
          5    1    5    5  501    0 -0.49113367072E+02 -0.39211869034E+01  0.89835958160E+01  0.50302023077E+02  0.47000000000E+01 0. -1.
        -13    1    6    6    0    0 -0.76435311299E+01  0.23716804659E+01  0.12484894799E+02  0.14829734809E+02  0.00000000000E+00 0.  1.
         14    1    6    6    0    0  0.10152138687E+03  0.25154829052E+01 -0.57209647331E+02  0.11655841194E+03  0.00000000000E+00 0. -1.
         -5    1    3    3    0  503  0.46653933081E+02  0.14664836987E+02 -0.32684756161E+03  0.33051938739E+03  0.47000000000E+01 0.  1.
         13    1    4    4    0    0 -0.25978665256E+02 -0.43030640990E+02 -0.19843823372E+03  0.20470529967E+03  0.00000000000E+00 0. -1.
        -14    1    4    4    0    0 -0.65439756492E+02  0.27399827535E+02 -0.22646693203E+03  0.23731915975E+03  0.00000000000E+00 0.  1.
</event>
<event>
12    1  0.8421768E-002  0.1886278E+03  0.7818608E-02  0.1160750E+00
         21   -1    0    0  501  502  0.00000000000E+00  0.00000000000E+00  0.32139084620E+03  0.32139084620E+03  0.00000000000E+00 0. -1.
         21   -1    0    0  502  503 -0.00000000000E+00 -0.00000000000E+00 -0.11351500595E+03  0.11351500595E+03  0.00000000000E+00 0. -1.
         -6    2    1    2    0  503 -0.15382705267E+02 -0.63324082821E+02  0.57488002188E+02  0.19719361735E+03  0.17701379958E+03 0.  0.
        -24    2    3    3    0    0 -0.78895629841E+02 -0.54577514739E+02  0.39528474285E+02  0.13044761609E+03  0.79062347180E+02 0.  0.
          6    2    1    2  501    0  0.15382705267E+02  0.63324082821E+02  0.15038783806E+03  0.23771223480E+03  0.17217443961E+03 0.  0.
         24    2    5    5    0    0 -0.21106017425E+02  0.59065740313E+02  0.21386132692E+02  0.10349938016E+03  0.79501757037E+02 0.  0.
          5    1    5    5  501    0  0.36488722692E+02  0.42583425087E+01  0.12900170536E+03  0.13421285464E+03  0.47000000000E+01 0. -1.
        -11    1    6    6    0    0 -0.18260875295E+01  0.16049476654E+02 -0.29810907508E+02  0.33905906609E+02  0.00000000000E+00 0.  1.
         12    1    6    6    0    0 -0.19279929895E+02  0.43016263659E+02  0.51197040199E+02  0.69593473552E+02  0.00000000000E+00 0. -1.
         -5    1    3    3    0  503  0.63512924573E+02 -0.87465680819E+01  0.17959527904E+02  0.66746001256E+02  0.47000000000E+01 0.  1.
         11    1    4    4    0    0 -0.43911316686E+02 -0.36526335949E+02 -0.18752502090E+02  0.60116830302E+02  0.00000000000E+00 0. -1.
        -12    1    4    4    0    0 -0.34984313154E+02 -0.18051178791E+02  0.58280976374E+02  0.70330785789E+02  0.00000000000E+00 0.  1.
</event>
<event>
12    1  0.8421768E-002  0.1813817E+03  0.7818608E-02  0.1168505E+00
         21   -1    0    0  501  502  0.00000000000E+00  0.00000000000E+00  0.17127534751E+03  0.17127534751E+03  0.00000000000E+00 0.  1.
         21   -1    0    0  502  503 -0.00000000000E+00 -0.00000000000E+00 -0.25115278958E+03  0.25115278958E+03  0.00000000000E+00 0.  1.
         -6    2    1    2    0  503 -0.38311691571E+02 -0.46333141163E+02 -0.14892054873E+03  0.22835015968E+03  0.16233274442E+03 0.  0.
        -24    2    3    3    0    0 -0.22098512360E+02  0.19399822928E+02 -0.24251571001E+02  0.86406037727E+02  0.77544614781E+02 0.  0.
          6    2    1    2  501    0  0.38311691571E+02  0.46333141163E+02  0.69043106661E+02  0.19407797741E+03  0.17112792015E+03 0.  0.
         24    2    5    5    0    0  0.16133743163E+02  0.74324172930E+02 -0.64461633852E+01  0.11043540961E+03  0.79812569963E+02 0.  0.
          5    1    5    5  501    0  0.22177948407E+02 -0.27991031768E+02  0.75489270046E+02  0.83642567793E+02  0.47000000000E+01 0. -1.
        -11    1    6    6    0    0  0.34819619785E+02  0.55548881385E+02  0.24240080640E+02  0.69897536828E+02  0.00000000000E+00 0.  1.
         12    1    6    6    0    0 -0.18685876622E+02  0.18775291545E+02 -0.30686244025E+02  0.40537872787E+02  0.00000000000E+00 0. -1.
         -5    1    3    3    0  503 -0.16213179210E+02 -0.65732964091E+02 -0.12466897773E+03  0.14194412195E+03  0.47000000000E+01 0.  1.
         11    1    4    4    0    0  0.86068175102E+01  0.12857996853E+02 -0.45789996941E+02  0.48333520568E+02  0.00000000000E+00 0. -1.
        -12    1    4    4    0    0 -0.30705329870E+02  0.65418260754E+01  0.21538425940E+02  0.38072517159E+02  0.00000000000E+00 0.  1.
</event>
<event>
12    1  0.8421768E-002  0.2124194E+03  0.7818608E-02  0.1142161E+00
         21   -1    0    0  501  502  0.00000000000E+00  0.00000000000E+00  0.78267746385E+02  0.78267746385E+02  0.00000000000E+00 0. -1.
         21   -1    0    0  502  503 -0.00000000000E+00 -0.00000000000E+00 -0.10826426977E+04  0.10826426977E+04  0.00000000000E+00 0. -1.
         -6    2    1    2    0  503  0.27257049281E+02 -0.99849337737E+02 -0.90419144958E+03  0.92605147820E+03  0.17116169488E+03 0.  0.
        -24    2    3    3    0    0 -0.89863039764E+00 -0.26650391106E+02 -0.72190351339E+03  0.72755258710E+03  0.86469841384E+02 0.  0.
          6    2    1    2  501    0 -0.27257049281E+02  0.99849337737E+02 -0.10018350173E+03  0.23485896589E+03  0.18549706967E+03 0.  0.
         24    2    5    5    0    0 -0.54113437910E+02  0.16464924907E+02  0.39021893049E+01  0.98733483364E+02  0.80831403187E+02 0.  0.
          5    1    5    5  501    0  0.26856388628E+02  0.83384412830E+02 -0.10408569104E+03  0.13612548252E+03  0.47000000000E+01 0. -1.
        -13    1    6    6    0    0  0.90925681069E+01 -0.21817351958E+01 -0.25062335977E+02  0.26749868184E+02  0.00000000000E+00 0.  1.
         14    1    6    6    0    0 -0.63206006016E+02  0.18646660103E+02  0.28964525282E+02  0.71983615180E+02  0.00000000000E+00 0. -1.
         -5    1    3    3    0  503  0.28155679679E+02 -0.73198946631E+02 -0.18228793620E+03  0.19849889110E+03  0.47000000000E+01 0.  1.
         13    1    4    4    0    0  0.12489396037E+02 -0.55575174316E+02 -0.52571707106E+03  0.52879393323E+03  0.00000000000E+00 0. -1.
        -14    1    4    4    0    0 -0.13388026434E+02  0.28924783210E+02 -0.19618644232E+03  0.19875865387E+03  0.00000000000E+00 0.  1.
</event>
<event>
12    1  0.8421768E-002  0.2088926E+03  0.7818608E-02  0.1143430E+00
         21   -1    0    0  503  502  0.00000000000E+00  0.00000000000E+00  0.57461554244E+02  0.57461554244E+02  0.00000000000E+00 0. -1.
         21   -1    0    0  501  503 -0.00000000000E+00 -0.00000000000E+00 -0.86195446205E+03  0.86195446205E+03  0.00000000000E+00 0.  1.
          6    2    1    2  501    0 -0.69702068596E+02  0.96136737967E+02 -0.57797229138E+03  0.61456331816E+03  0.17185881319E+03 0.  0.
         24    2    3    3    0    0 -0.87840753300E+02  0.74320256996E+01 -0.34417958607E+03  0.36380714791E+03  0.78261232152E+02 0.  0.
         -6    2    1    2    0  502  0.69702068596E+02 -0.96136737967E+02 -0.22652061643E+03  0.30485269814E+03  0.16590035305E+03 0.  0.
        -24    2    5    5    0    0 -0.21607398032E+02 -0.72078745855E+02 -0.11737876410E+03  0.16045657765E+03  0.79412302560E+02 0.  0.
          5    1    3    3  501    0  0.18138684704E+02  0.88704712267E+02 -0.23379270531E+03  0.25075617025E+03  0.47000000000E+01 0. -1.
        -11    1    4    4    0    0 -0.42331603486E+02 -0.24404000016E+02 -0.79124377269E+02  0.92995628653E+02  0.00000000000E+00 0.  1.
         12    1    4    4    0    0 -0.45509149814E+02  0.31836025716E+02 -0.26505520880E+03  0.27081151926E+03  0.00000000000E+00 0. -1.
         -5    1    5    5    0  502  0.91309466628E+02 -0.24057992112E+02 -0.10914185233E+03  0.14439612048E+03  0.47000000000E+01 0.  1.
         13    1    6    6    0    0 -0.15121537853E+02 -0.88866409923E+02 -0.10607469632E+03  0.13920395439E+03  0.00000000000E+00 0. -1.
        -14    1    6    6    0    0 -0.64858601790E+01  0.16787664068E+02 -0.11304067778E+02  0.21252623261E+02  0.00000000000E+00 0.  1.
</event>
<event>
12    1  0.8421768E-002  0.1735914E+03  0.7818608E-02  0.1174853E+00
         21   -1    0    0  503  502  0.00000000000E+00  0.00000000000E+00  0.20420952966E+03  0.20420952966E+03  0.00000000000E+00 0.  1.
         21   -1    0    0  501  503 -0.00000000000E+00 -0.00000000000E+00 -0.14525724110E+03  0.14525724110E+03  0.00000000000E+00 0.  1.
          6    2    1    2  501    0  0.98897920949E+01 -0.29597257754E+02  0.27929662845E+02  0.17312516627E+03  0.16798348572E+03 0.  0.
         24    2    3    3    0    0 -0.88224527037E+01  0.44697170676E+02  0.18742985438E+02  0.95818664326E+02  0.82184208897E+02 0.  0.
         -6    2    1    2    0  502 -0.98897920949E+01  0.29597257754E+02  0.31022625719E+02  0.17634160449E+03  0.17076344021E+03 0.  0.
        -24    2    5    5    0    0 -0.45760914360E+01  0.12042875575E+02  0.86549703939E+02  0.11767527544E+03  0.78680669374E+02 0.  0.
          5    1    3    3  501    0  0.18712244799E+02 -0.74294428429E+02  0.91866774071E+01  0.77306501944E+02  0.47000000000E+01 0. -1.
        -11    1    4    4    0    0 -0.43592211689E+02  0.39305488285E+02  0.97244970858E+01  0.59495950894E+02  0.00000000000E+00 0.  1.
         12    1    4    4    0    0  0.34769758985E+02  0.53916823905E+01  0.90184883519E+01  0.36322713432E+02  0.00000000000E+00 0. -1.
         -5    1    5    5    0  502 -0.53137006589E+01  0.17554382178E+02 -0.55527078220E+02  0.58666329049E+02  0.47000000000E+01 0.  1.
         13    1    6    6    0    0  0.29741988031E+02 -0.17437624047E+02  0.36527892241E+02  0.50228910958E+02  0.00000000000E+00 0. -1.
        -14    1    6    6    0    0 -0.34318079467E+02  0.29480499623E+02  0.50021811698E+02  0.67446364483E+02  0.00000000000E+00 0.  1.
</event>
<event>
12    1  0.8421768E-002  0.1840247E+03  0.7818608E-02  0.1164305E+00
         21   -1    0    0  501  502  0.00000000000E+00  0.00000000000E+00  0.66471313933E+02  0.66471313933E+02  0.00000000000E+00 0.  1.
         21   -1    0    0  502  503 -0.00000000000E+00 -0.00000000000E+00 -0.53018414752E+03  0.53018414752E+03  0.00000000000E+00 0.  1.
         -6    2    1    2    0  503 -0.62997645331E+02  0.14438482956E+02 -0.16657373416E+03  0.24714616264E+03  0.17075492288E+03 0.  0.
        -24    2    3    3    0    0 -0.82832847000E+02  0.59796376065E+02 -0.97531539445E+02  0.16205980449E+03  0.79461260440E+02 0.  0.
          6    2    1    2  501    0  0.62997645331E+02 -0.14438482956E+02 -0.29713909942E+03  0.34950929881E+03  0.17230186430E+03 0.  0.
         24    2    5    5    0    0  0.24118301266E+02  0.57229358890E+02 -0.15020579498E+03  0.18140406718E+03  0.80552856974E+02 0.  0.
          5    1    5    5  501    0  0.38879344065E+02 -0.71667841845E+02 -0.14693330444E+03  0.16810523163E+03  0.47000000000E+01 0. -1.
        -11    1    6    6    0    0 -0.18401240004E+02  0.21583722802E+02 -0.91088142425E+01  0.29789817397E+02  0.00000000000E+00 0.  1.
         12    1    6    6    0    0  0.42519541270E+02  0.35645636088E+02 -0.14109698074E+03  0.15161424978E+03  0.00000000000E+00 0. -1.
         -5    1    3    3    0  503  0.19835201669E+02 -0.45357893109E+02 -0.69042194719E+02  0.85086358156E+02  0.47000000000E+01 0.  1.
         13    1    4    4    0    0 -0.18455338437E+02  0.60527912477E+02 -0.61691597822E+02  0.88374662362E+02  0.00000000000E+00 0. -1.
        -14    1    4    4    0    0 -0.64377508563E+02 -0.73153641227E+00 -0.35839941623E+02  0.73685142124E+02  0.00000000000E+00 0.  1.
</event>
<event>
12    1  0.8421768E-002  0.3331042E+03  0.7818608E-02  0.1069796E+00
         21   -1    0    0  503  502  0.00000000000E+00  0.00000000000E+00  0.11062669046E+04  0.11062669046E+04  0.00000000000E+00 0. -1.
         21   -1    0    0  501  503 -0.00000000000E+00 -0.00000000000E+00 -0.21830669441E+03  0.21830669441E+03  0.00000000000E+00 0. -1.
          6    2    1    2  501    0  0.44847111371E+01  0.28578449036E+03  0.93098152323E+03  0.98870277487E+03  0.17062735085E+03 0.  0.
         24    2    3    3    0    0 -0.36750147164E+02  0.25302282294E+03  0.65517008959E+03  0.70786887855E+03  0.80370272379E+02 0.  0.
         -6    2    1    2    0  502 -0.44847111371E+01 -0.28578449036E+03 -0.43021313037E+02  0.33587082414E+03  0.17107159194E+03 0.  0.
        -24    2    5    5    0    0 -0.35893046965E+02 -0.67661497399E+02 -0.29586933440E+02  0.11503899633E+03  0.80574158361E+02 0.  0.
          5    1    3    3  501    0  0.41234858301E+02  0.32761667425E+02  0.27581143364E+03  0.28083389631E+03  0.47000000000E+01 0. -1.
        -11    1    4    4    0    0 -0.38886159810E+02  0.93019950951E+02  0.33650158464E+03  0.35128074408E+03  0.00000000000E+00 0.  1.
         12    1    4    4    0    0  0.21360126463E+01  0.16000287199E+03  0.31866850495E+03  0.35658813447E+03  0.00000000000E+00 0. -1.
         -5    1    5    5    0  502  0.31408335828E+02 -0.21812299297E+03 -0.13434379597E+02  0.22083182781E+03  0.47000000000E+01 0.  1.
         11    1    6    6    0    0  0.36621322087E+01 -0.11862896445E+02 -0.43503973742E+02  0.45240858255E+02  0.00000000000E+00 0. -1.
        -12    1    6    6    0    0 -0.39555179173E+02 -0.55798600955E+02  0.13917040302E+02  0.69798138075E+02  0.00000000000E+00 0.  1.
</event>
<event>
12    1  0.8421768E-002  0.1892778E+03  0.7818608E-02  0.1159287E+00
         21   -1    0    0  501  502  0.00000000000E+00  0.00000000000E+00  0.80039595397E+02  0.80039595397E+02  0.00000000000E+00 0.  1.
         21   -1    0    0  502  503 -0.00000000000E+00 -0.00000000000E+00 -0.18293148064E+04  0.18293148064E+04  0.00000000000E+00 0.  1.
         -6    2    1    2    0  503 -0.63953306311E+02 -0.44922197083E+02 -0.17053067312E+04  0.17157788697E+04  0.17238924899E+03 0.  0.
        -24    2    3    3    0    0  0.27425033367E+02  0.37474770977E+01 -0.58867265687E+03  0.59434564207E+03  0.77104275263E+02 0.  0.
          6    2    1    2  501    0  0.63953306311E+02  0.44922197083E+02 -0.43968479827E+02  0.19357553209E+03  0.17155241248E+03 0.  0.
         24    2    5    5    0    0  0.17445900255E+02  0.90126110399E+02 -0.32391545466E+02  0.12752670162E+03  0.82381868132E+02 0.  0.
          5    1    5    5  501    0  0.46507406056E+02 -0.45203913316E+02 -0.11576934361E+02  0.66048830470E+02  0.47000000000E+01 0. -1.
        -13    1    6    6    0    0  0.40469656351E+02  0.15814041097E+02 -0.51602333507E+00  0.43452770465E+02  0.00000000000E+00 0.  1.
         14    1    6    6    0    0 -0.23023756096E+02  0.74312069302E+02 -0.31875522131E+02  0.84073931155E+02  0.00000000000E+00 0. -1.
         -5    1    3    3    0  503 -0.91378339678E+02 -0.48669674180E+02 -0.11166340743E+04  0.11214332276E+04  0.47000000000E+01 0.  1.
         13    1    4    4    0    0  0.43024644024E+02 -0.35862461492E+00 -0.16993271288E+03  0.17529510978E+03  0.00000000000E+00 0. -1.
        -14    1    4    4    0    0 -0.15599610657E+02  0.41061017127E+01 -0.41873994399E+03  0.41905053230E+03  0.00000000000E+00 0.  1.
</event>
<event>
12    1  0.8421768E-002  0.1965868E+03  0.7818608E-02  0.1152755E+00
         21   -1    0    0  503  502  0.00000000000E+00  0.00000000000E+00  0.71120178377E+03  0.71120178377E+03  0.00000000000E+00 0. -1.
         21   -1    0    0  501  503 -0.00000000000E+00 -0.00000000000E+00 -0.73333722401E+02  0.73333722401E+02  0.00000000000E+00 0. -1.
          6    2    1    2  501    0 -0.22341513258E+02 -0.92148294411E+02  0.11831102312E+03  0.22903043556E+03  0.17165952010E+03 0.  0.
         24    2    3    3    0    0 -0.23240004219E+02 -0.85080459678E+02  0.15272357483E+03  0.19357517799E+03  0.79800230644E+02 0.  0.
         -6    2    1    2    0  502  0.22341513258E+02  0.92148294411E+02  0.51955703824E+03  0.55550507061E+03  0.17220893155E+03 0.  0.
        -24    2    5    5    0    0  0.22260541790E+02  0.13523361140E+03  0.36484269361E+03  0.39483469521E+03  0.63250170639E+02 0.  0.
          5    1    3    3  501    0  0.89849096032E+00 -0.70678347326E+01 -0.34412551709E+02  0.35455257564E+02  0.47000000000E+01 0. -1.
        -13    1    4    4    0    0 -0.27654378815E+02  0.43103810639E+01  0.24445935765E+02  0.37161106388E+02  0.00000000000E+00 0.  1.
         14    1    4    4    0    0  0.44143745967E+01 -0.89390840742E+02  0.12827763907E+03  0.15641407161E+03  0.00000000000E+00 0. -1.
         -5    1    5    5    0  502  0.80971468333E-01 -0.43085316990E+02  0.15471434463E+03  0.16067037540E+03  0.47000000000E+01 0.  1.
         13    1    6    6    0    0  0.80551607930E+01  0.78448214449E+02  0.28578221211E+03  0.29646328732E+03  0.00000000000E+00 0. -1.
        -14    1    6    6    0    0  0.14205380997E+02  0.56785396952E+02  0.79060481501E+02  0.98371407896E+02  0.00000000000E+00 0.  1.
</event>
<event>
12    1  0.8421768E-002  0.1908805E+03  0.7818608E-02  0.1157840E+00
         21   -1    0    0  503  502  0.00000000000E+00  0.00000000000E+00  0.41912642437E+03  0.41912642437E+03  0.00000000000E+00 0.  1.
         21   -1    0    0  501  503 -0.00000000000E+00 -0.00000000000E+00 -0.89387482166E+02  0.89387482166E+02  0.00000000000E+00 0.  1.
          6    2    1    2  501    0 -0.81655957804E+02 -0.15758382555E+02  0.11954194145E+03  0.22458054457E+03  0.17096819344E+03 0.  0.
         24    2    3    3    0    0 -0.87235149807E+02 -0.28735764674E+02  0.20617453738E+02  0.12454213145E+03  0.81547210705E+02 0.  0.
         -6    2    1    2    0  502  0.81655957804E+02  0.15758382555E+02  0.21019700075E+03  0.28393336196E+03  0.17181196945E+03 0.  0.
        -24    2    5    5    0    0  0.95896931660E+02  0.48346036551E+01  0.58280411556E+02  0.13088802766E+03  0.67197280585E+02 0.  0.
          5    1    3    3  501    0  0.55791920026E+01  0.12977382119E+02  0.98924487716E+02  0.10003841312E+03  0.47000000000E+01 0. -1.
        -11    1    4    4    0    0 -0.47800143754E+02  0.71133323369E+01  0.44910037599E+02  0.65972454229E+02  0.00000000000E+00 0.  1.
         12    1    4    4    0    0 -0.39435006053E+02 -0.35849097011E+02 -0.24292583861E+02  0.58569677219E+02  0.00000000000E+00 0. -1.
         -5    1    5    5    0  502 -0.14240973856E+02  0.10923778900E+02  0.15191658919E+03  0.15304533431E+03  0.47000000000E+01 0.  1.
         11    1    6    6    0    0 -0.63339111887E+01  0.13110155722E+02  0.87803231813E+01  0.17002608305E+02  0.00000000000E+00 0. -1.
        -12    1    6    6    0    0  0.10223084285E+03 -0.82755520665E+01  0.49500088374E+02  0.11388541935E+03  0.00000000000E+00 0.  1.
</event>
<event>
12    1  0.8421768E-002  0.1862101E+03  0.7818608E-02  0.1163145E+00
         21   -1    0    0  501  502  0.00000000000E+00  0.00000000000E+00  0.37215804010E+03  0.37215804010E+03  0.00000000000E+00 0. -1.
         21   -1    0    0  502  503 -0.00000000000E+00 -0.00000000000E+00 -0.91290821492E+02  0.91290821492E+02  0.00000000000E+00 0. -1.
         -6    2    1    2    0  503 -0.23401518671E+02  0.68785213424E+02  0.16268876903E+03  0.24726876859E+03  0.17145020178E+03 0.  0.
        -24    2    3    3    0    0 -0.48636207498E+02  0.68725519264E+02  0.42548752288E+02  0.12441720488E+03  0.81120693232E+02 0.  0.
          6    2    1    2  501    0  0.23401518671E+02 -0.68785213424E+02  0.11817844958E+03  0.21618009301E+03  0.16579701446E+03 0.  0.
         24    2    5    5    0    0  0.43839668771E+02  0.20304823213E+02  0.57847843421E+02  0.10655972698E+03  0.75328613570E+02 0.  0.
          5    1    5    5  501    0 -0.20438150100E+02 -0.89090036637E+02  0.60330606159E+02  0.10962036602E+03  0.47000000000E+01 0. -1.
        -13    1    6    6    0    0  0.33515093813E+02  0.29142848354E+02  0.73471330450E+02  0.85852219083E+02  0.00000000000E+00 0.  1.
         14    1    6    6    0    0  0.10324574959E+02 -0.88380251412E+01 -0.15623487028E+02  0.20707507899E+02  0.00000000000E+00 0. -1.
         -5    1    3    3    0  503  0.25234688827E+02  0.59694160454E-01  0.12014001674E+03  0.12285156371E+03  0.47000000000E+01 0.  1.
         13    1    4    4    0    0  0.12035402962E+02  0.52279968948E+02  0.14432615632E+02  0.55554896018E+02  0.00000000000E+00 0. -1.
        -14    1    4    4    0    0 -0.60671610460E+02  0.16445550316E+02  0.28116136656E+02  0.68862308859E+02  0.00000000000E+00 0.  1.
</event>
<event>
12    1  0.8421768E-002  0.2822212E+03  0.7818608E-02  0.1094814E+00
         21   -1    0    0  501  502  0.00000000000E+00  0.00000000000E+00  0.16630926563E+03  0.16630926563E+03  0.00000000000E+00 0.  1.
         21   -1    0    0  502  503 -0.00000000000E+00 -0.00000000000E+00 -0.64775049934E+03  0.64775049934E+03  0.00000000000E+00 0.  1.
         -6    2    1    2    0  503  0.17101688439E+03 -0.14389915879E+03 -0.45182130851E+03  0.53272065472E+03  0.17232254204E+03 0.  0.
        -24    2    3    3    0    0  0.13453414952E+03 -0.78213251744E+02 -0.41582688357E+03  0.44927416315E+03  0.68691531082E+02 0.  0.
          6    2    1    2  501    0 -0.17101688439E+03  0.14389915879E+03 -0.29619925203E+02  0.28133911025E+03  0.16828729107E+03 0.  0.
         24    2    5    5    0    0 -0.17000134791E+03  0.62252560632E+02 -0.24858218209E+02  0.19941254460E+03  0.79822254632E+02 0.  0.
          5    1    5    5  501    0 -0.10155364840E+01  0.81646598160E+02 -0.47617069942E+01  0.81926565649E+02  0.47000000000E+01 0. -1.
        -11    1    6    6    0    0 -0.33046418635E+02 -0.17780280996E+02 -0.15219527876E+02  0.40494915800E+02  0.00000000000E+00 0.  1.
         12    1    6    6    0    0 -0.13695492928E+03  0.80032841628E+02 -0.96386903333E+01  0.15891762880E+03  0.00000000000E+00 0. -1.
         -5    1    3    3    0  503  0.36482734873E+02 -0.65685907048E+02 -0.35994424942E+02  0.83446491571E+02  0.47000000000E+01 0.  1.
         11    1    4    4    0    0  0.38038296608E+02 -0.13062473845E+02 -0.43848321861E+02  0.59499710603E+02  0.00000000000E+00 0. -1.
        -12    1    4    4    0    0  0.96495852913E+02 -0.65150777899E+02 -0.37197856171E+03  0.38977445255E+03  0.00000000000E+00 0.  1.
</event>
<event>
12    1  0.8421768E-002  0.1822896E+03  0.7818608E-02  0.1165859E+00
         21   -1    0    0  503  502  0.00000000000E+00  0.00000000000E+00  0.19214465330E+02  0.19214465330E+02  0.00000000000E+00 0. -1.
         21   -1    0    0  501  503 -0.00000000000E+00 -0.00000000000E+00 -0.17532033726E+04  0.17532033726E+04  0.00000000000E+00 0. -1.
          6    2    1    2  501    0 -0.57000499185E+02 -0.11504129939E+02 -0.99263572611E+03  0.10092349502E+04  0.17276602096E+03 0.  0.
         24    2    3    3    0    0 -0.90939977419E+02  0.97458348948E+01 -0.90285508239E+03  0.91081694789E+03  0.77943261209E+02 0.  0.
         -6    2    1    2    0  502  0.57000499185E+02  0.11504129939E+02 -0.74135318112E+03  0.76318288771E+03  0.17164550395E+03 0.  0.
        -24    2    5    5    0    0  0.32246035777E+01 -0.35588114315E+02 -0.23827589570E+03  0.25503096995E+03  0.83597136402E+02 0.  0.
          5    1    3    3  501    0  0.33939478234E+02 -0.21249964834E+02 -0.89780643717E+02  0.98418002288E+02  0.47000000000E+01 0. -1.
        -13    1    4    4    0    0  0.98008308707E+01  0.10628170956E+02 -0.50499240512E+02  0.52527969653E+02  0.00000000000E+00 0.  1.
         14    1    4    4    0    0 -0.10074080829E+03 -0.88233606099E+00 -0.85235584188E+03  0.85828897824E+03  0.00000000000E+00 0. -1.
         -5    1    5    5    0  502  0.53775895607E+02  0.47092244255E+02 -0.50307728542E+03  0.50815191776E+03  0.47000000000E+01 0.  1.
         13    1    6    6    0    0  0.37916650623E+02 -0.30789384055E+02 -0.87187418937E+02  0.99936502770E+02  0.00000000000E+00 0. -1.
        -14    1    6    6    0    0 -0.34692047045E+02 -0.47987302607E+01 -0.15108847676E+03  0.15509446718E+03  0.00000000000E+00 0.  1.
</event>
<event>
12    1  0.8421768E-002  0.2942519E+03  0.7818608E-02  0.1088639E+00
         21   -1    0    0  503  502  0.00000000000E+00  0.00000000000E+00  0.84251760926E+02  0.84251760926E+02  0.00000000000E+00 0. -1.
         21   -1    0    0  501  503 -0.00000000000E+00 -0.00000000000E+00 -0.10969302428E+04  0.10969302428E+04  0.00000000000E+00 0.  1.
          6    2    1    2  501    0  0.22345167111E+03  0.84973437930E+02 -0.66521704990E+03  0.72586493592E+03  0.16496983737E+03 0.  0.
         24    2    3    3    0    0  0.19381260559E+03  0.11876142692E+03 -0.56632105864E+03  0.61713311219E+03  0.92011597549E+02 0.  0.
         -6    2    1    2    0  502 -0.22345167111E+03 -0.84973437930E+02 -0.34746143193E+03  0.45531706776E+03  0.17156063373E+03 0.  0.
        -24    2    5    5    0    0 -0.13145584326E+03 -0.15726496411E+01 -0.26392247624E+03  0.30558473677E+03  0.80273569285E+02 0.  0.
          5    1    3    3  501    0  0.29639065515E+02 -0.33787988993E+02 -0.98895991258E+02  0.10873182373E+03  0.47000000000E+01 0. -1.
        -13    1    4    4    0    0  0.18936719721E+03  0.79359156979E+02 -0.48445677347E+03  0.52617124259E+03  0.00000000000E+00 0.  1.
         14    1    4    4    0    0  0.44454083845E+01  0.39402269944E+02 -0.81864285176E+02  0.90961869593E+02  0.00000000000E+00 0. -1.
         -5    1    5    5    0  502 -0.91995827845E+02 -0.83400788289E+02 -0.83538955685E+02  0.14973233099E+03  0.47000000000E+01 0.  1.
         13    1    6    6    0    0 -0.85309185169E+02 -0.17689453085E+02 -0.91401089865E+02  0.12627245564E+03  0.00000000000E+00 0. -1.
        -14    1    6    6    0    0 -0.46146658092E+02  0.16116803444E+02 -0.17252138638E+03  0.17931228113E+03  0.00000000000E+00 0.  1.
</event>
<event>
12    1  0.8421768E-002  0.1865237E+03  0.7818608E-02  0.1162372E+00
         21   -1    0    0  501  502  0.00000000000E+00  0.00000000000E+00  0.18176687724E+03  0.18176687724E+03  0.00000000000E+00 0. -1.
         21   -1    0    0  502  503 -0.00000000000E+00 -0.00000000000E+00 -0.38381762537E+03  0.38381762537E+03  0.00000000000E+00 0. -1.
         -6    2    1    2    0  503 -0.44506611884E+02  0.45578230647E+02 -0.30334548883E+03  0.35610334551E+03  0.17530799604E+03 0.  0.
        -24    2    3    3    0    0 -0.41622728229E+02  0.79092343919E+02 -0.29778169438E+03  0.32168593157E+03  0.82582387294E+02 0.  0.
          6    2    1    2  501    0  0.44506611884E+02 -0.45578230647E+02  0.10129474071E+03  0.20948115710E+03  0.17194044630E+03 0.  0.
         24    2    5    5    0    0  0.94115964160E+02 -0.41877518560E+02  0.48996729150E+02  0.13714890208E+03  0.76141976617E+02 0.  0.
          5    1    5    5  501    0 -0.49609352276E+02 -0.37007120867E+01  0.52298011556E+02  0.72332255018E+02  0.47000000000E+01 0. -1.
        -13    1    6    6    0    0 -0.39631273043E+01 -0.21944023567E+02 -0.58064939682E+01  0.23042610975E+02  0.00000000000E+00 0.  1.
         14    1    6    6    0    0  0.98079091464E+02 -0.19933494993E+02  0.54803223118E+02  0.11410629110E+03  0.00000000000E+00 0. -1.
         -5    1    3    3    0  503 -0.28838836548E+01 -0.33514113272E+02 -0.55637944514E+01  0.34417413936E+02  0.47000000000E+01 0.  1.
         13    1    4    4    0    0  0.21357312721E+02  0.13786566090E+02 -0.32137914500E+02  0.40976209679E+02  0.00000000000E+00 0. -1.
        -14    1    4    4    0    0 -0.62980040950E+02  0.65305777828E+02 -0.26564377988E+03  0.28070972189E+03  0.00000000000E+00 0.  1.
</event>
<event>
12    1  0.8421768E-002  0.2636902E+03  0.7818608E-02  0.1105232E+00
         21   -1    0    0  501  502  0.00000000000E+00  0.00000000000E+00  0.79502814625E+03  0.79502814625E+03  0.00000000000E+00 0.  1.
         21   -1    0    0  502  503 -0.00000000000E+00 -0.00000000000E+00 -0.34659564156E+03  0.34659564156E+03  0.00000000000E+00 0.  1.
         -6    2    1    2    0  503  0.82349428985E+02 -0.17950287602E+03 -0.26975160557E+03  0.37722463936E+03  0.17472775648E+03 0.  0.
        -24    2    3    3    0    0  0.25794227765E+02 -0.15904692333E+03 -0.11924096818E+03  0.21507508262E+03  0.77959070453E+02 0.  0.
          6    2    1    2  501    0 -0.82349428985E+02  0.17950287602E+03  0.71818411025E+03  0.76439914844E+03  0.17179910060E+03 0.  0.
         24    2    5    5    0    0 -0.20202247293E+02  0.17350746186E+03  0.60760713634E+03  0.63732604215E+03  0.80530005290E+02 0.  0.
          5    1    5    5  501    0 -0.62147181692E+02  0.59954141547E+01  0.11057697391E+03  0.12707310629E+03  0.47000000000E+01 0. -1.
        -11    1    6    6    0    0  0.24418144185E+02  0.94653799132E+02  0.25031161606E+03  0.26872196149E+03  0.00000000000E+00 0.  1.
         12    1    6    6    0    0 -0.44620391478E+02  0.78853662729E+02  0.35729552028E+03  0.36860408066E+03  0.00000000000E+00 0. -1.
         -5    1    3    3    0  503  0.56555201221E+02 -0.20455952691E+02 -0.15051063739E+03  0.16214955675E+03  0.47000000000E+01 0.  1.
         13    1    4    4    0    0  0.32988057490E+02 -0.30587419038E+02 -0.95209375894E+01  0.45983153360E+02  0.00000000000E+00 0. -1.
        -14    1    4    4    0    0 -0.71938297250E+01 -0.12845950429E+03 -0.10972003059E+03  0.16909192926E+03  0.00000000000E+00 0.  1.
</event>
<event>
12    1  0.8421768E-002  0.1746037E+03  0.7818608E-02  0.1175120E+00
         21   -1    0    0  503  502  0.00000000000E+00  0.00000000000E+00  0.22564546303E+03  0.22564546303E+03  0.00000000000E+00 0.  1.
         21   -1    0    0  501  503 -0.00000000000E+00 -0.00000000000E+00 -0.13074572773E+03  0.13074572773E+03  0.00000000000E+00 0.  1.
          6    2    1    2  501    0 -0.23455641742E+02 -0.20310232602E+02  0.27044502450E+02  0.16906583662E+03  0.16397920393E+03 0.  0.
         24    2    3    3    0    0 -0.66787107059E+02 -0.41147854156E+02 -0.79925367590E+00  0.11330575131E+03  0.81755066530E+02 0.  0.
         -6    2    1    2    0  502  0.23455641742E+02  0.20310232602E+02  0.67855232854E+02  0.18732535413E+03  0.17182486141E+03 0.  0.
        -24    2    5    5    0    0  0.54583510216E+01 -0.38551421229E+02  0.85005346379E+02  0.12325653833E+03  0.80313508530E+02 0.  0.
          5    1    3    3  501    0  0.43331465317E+02  0.20837621554E+02  0.27843756126E+02  0.55760085310E+02  0.47000000000E+01 0. -1.
        -11    1    4    4    0    0  0.67171662161E+01  0.17345827728E+02  0.47690156503E+01  0.19202644918E+02  0.00000000000E+00 0.  1.
         12    1    4    4    0    0 -0.73504273275E+02 -0.58493681884E+02 -0.55682693262E+01  0.94103106396E+02  0.00000000000E+00 0. -1.
         -5    1    5    5    0  502  0.17997290720E+02  0.58861653831E+02 -0.17150113525E+02  0.64068815807E+02  0.47000000000E+01 0.  1.
         11    1    6    6    0    0 -0.12472273021E+02  0.22442987968E+02  0.24012437126E+02  0.35154550772E+02  0.00000000000E+00 0. -1.
        -12    1    6    6    0    0  0.17930624043E+02 -0.60994409196E+02  0.60992909254E+02  0.88101987554E+02  0.00000000000E+00 0.  1.
</event>
<event>
12    1  0.8421768E-002  0.1871784E+03  0.7818608E-02  0.1163352E+00
         21   -1    0    0  503  502  0.00000000000E+00  0.00000000000E+00  0.42722458688E+03  0.42722458688E+03  0.00000000000E+00 0. -1.
         21   -1    0    0  501  503 -0.00000000000E+00 -0.00000000000E+00 -0.42812198179E+03  0.42812198179E+03  0.00000000000E+00 0. -1.
          6    2    1    2  501    0  0.21917839556E+02  0.89141895735E+01 -0.38731095598E+03  0.43016916790E+03  0.18567682120E+03 0.  0.
         24    2    3    3    0    0  0.32752622617E+02  0.21383823135E+02 -0.76927579306E+02  0.11931097709E+03  0.82384796022E+02 0.  0.
         -6    2    1    2    0  502 -0.21917839556E+02 -0.89141895735E+01  0.38641356106E+03  0.42517740076E+03  0.17578545866E+03 0.  0.
        -24    2    5    5    0    0  0.28518648017E+01  0.39191727114E+02  0.34670937921E+03  0.35790014211E+03  0.79630355306E+02 0.  0.
          5    1    3    3  501    0 -0.10834783061E+02 -0.12469633561E+02 -0.31038337667E+03  0.31085819082E+03  0.47000000000E+01 0. -1.
        -13    1    4    4    0    0  0.57654795706E+02  0.29265633646E+02 -0.59837643604E+02  0.88097084928E+02  0.00000000000E+00 0.  1.
         14    1    4    4    0    0 -0.24902173089E+02 -0.78818105119E+01 -0.17089935702E+02  0.31213892160E+02  0.00000000000E+00 0. -1.
         -5    1    5    5    0  502 -0.24769704358E+02 -0.48105916688E+02  0.39704181858E+02  0.67277258649E+02  0.47000000000E+01 0.  1.
         11    1    6    6    0    0  0.17492547866E+02 -0.16038353365E+01  0.26344611834E+03  0.26403109435E+03  0.00000000000E+00 0. -1.
        -12    1    6    6    0    0 -0.14640683064E+02  0.40795562450E+02  0.83263260868E+02  0.93869047756E+02  0.00000000000E+00 0.  1.
</event>
<event>
12    1  0.8421768E-002  0.1730359E+03  0.7818608E-02  0.1176104E+00
         21   -1    0    0  501  502  0.00000000000E+00  0.00000000000E+00  0.71417447934E+02  0.71417447934E+02  0.00000000000E+00 0. -1.
         21   -1    0    0  502  503 -0.00000000000E+00 -0.00000000000E+00 -0.40670716018E+03  0.40670716018E+03  0.00000000000E+00 0. -1.
         -6    2    1    2    0  503  0.17946265891E+02 -0.16069130873E+02 -0.15830363691E+03  0.23060592345E+03  0.16594807937E+03 0.  0.
        -24    2    3    3    0    0 -0.23532862908E+02 -0.15911047015E+02 -0.16729976924E+03  0.18790272084E+03  0.80692395296E+02 0.  0.
          6    2    1    2  501    0 -0.17946265891E+02  0.16069130873E+02 -0.17698607533E+03  0.24751868466E+03  0.17135093512E+03 0.  0.
         24    2    5    5    0    0 -0.56594760495E+02 -0.32387237467E+02 -0.14376401566E+03  0.17703804180E+03  0.80140351773E+02 0.  0.
          5    1    5    5  501    0  0.38648494604E+02  0.48456368340E+02 -0.33222059673E+02  0.70480642852E+02  0.47000000000E+01 0. -1.
        -13    1    6    6    0    0 -0.55858066406E+02  0.86327064964E+01 -0.11089611125E+03  0.12446925201E+03  0.00000000000E+00 0.  1.
         14    1    6    6    0    0 -0.73669408920E+00 -0.41019943963E+02 -0.32867904401E+02  0.52568789796E+02  0.00000000000E+00 0. -1.
         -5    1    3    3    0  503  0.41479128799E+02 -0.15808385762E+00  0.89961323267E+01  0.42703202611E+02  0.47000000000E+01 0.  1.
         11    1    4    4    0    0 -0.57667939962E+01 -0.76107501676E+01  0.74157570261E+01  0.12090197822E+02  0.00000000000E+00 0. -1.
        -12    1    4    4    0    0 -0.17766068912E+02 -0.83002968478E+01 -0.17471552627E+03  0.17581252302E+03  0.00000000000E+00 0.  1.
</event>
<event>
12    1  0.8421768E-002  0.1908616E+03  0.7818608E-02  0.1157750E+00
         21   -1    0    0  503  502  0.00000000000E+00  0.00000000000E+00  0.65107399723E+03  0.65107399723E+03  0.00000000000E+00 0. -1.
         21   -1    0    0  501  503 -0.00000000000E+00 -0.00000000000E+00 -0.69388505876E+02  0.69388505876E+02  0.00000000000E+00 0. -1.
          6    2    1    2  501    0 -0.76356399279E+02 -0.30367790278E+02  0.13165185211E+03  0.23162876042E+03  0.17195106890E+03 0.  0.
         24    2    3    3    0    0  0.20996287508E+02 -0.71836363516E+01  0.31794096282E+02  0.90176605909E+02  0.81415643304E+02 0.  0.
         -6    2    1    2    0  502  0.76356399279E+02  0.30367790278E+02  0.45003363924E+03  0.48883374268E+03  0.17226621588E+03 0.  0.
        -24    2    5    5    0    0  0.83033429393E+02  0.59437768505E+02  0.21104541348E+03  0.24794557689E+03  0.80681124347E+02 0.  0.
          5    1    3    3  501    0 -0.97352686787E+02 -0.23184153926E+02  0.99857755828E+02  0.14145215451E+03  0.47000000000E+01 0. -1.
        -13    1    4    4    0    0  0.22912272479E+02  0.34723284766E+02  0.22153866772E+02  0.47132499913E+02  0.00000000000E+00 0.  1.
         14    1    4    4    0    0 -0.19159849711E+01 -0.41906921118E+02  0.96402295097E+01  0.43044105996E+02  0.00000000000E+00 0. -1.
         -5    1    5    5    0  502 -0.66770301143E+01 -0.29069978227E+02  0.23898822576E+03  0.24088816579E+03  0.47000000000E+01 0.  1.
         11    1    6    6    0    0 -0.15084008067E+02  0.62213896123E+01  0.45032023790E+02  0.47896932623E+02  0.00000000000E+00 0. -1.
        -12    1    6    6    0    0  0.98117437460E+02  0.53216378892E+02  0.16601338969E+03  0.20004864427E+03  0.00000000000E+00 0.  1.
</event>
<event>
12    1  0.8421768E-002  0.1994970E+03  0.7818608E-02  0.1150739E+00
         21   -1    0    0  501  502  0.00000000000E+00  0.00000000000E+00  0.49487802673E+03  0.49487802673E+03  0.00000000000E+00 0. -1.
         21   -1    0    0  502  503 -0.00000000000E+00 -0.00000000000E+00 -0.34542560844E+03  0.34542560844E+03  0.00000000000E+00 0. -1.
         -6    2    1    2    0  503 -0.51938520665E+02 -0.86233610453E+02 -0.29414692156E+03  0.35390932832E+03  0.16910220491E+03 0.  0.
        -24    2    3    3    0    0 -0.71287183109E+02 -0.27352306357E+02 -0.26088039444E+03  0.28341017558E+03  0.80204340783E+02 0.  0.
          6    2    1    2  501    0  0.51938520665E+02  0.86233610453E+02  0.44359933985E+03  0.48639430685E+03  0.17223589032E+03 0.  0.
         24    2    5    5    0    0  0.72207092741E+01 -0.17684566196E+02  0.23950972972E+03  0.25299908612E+03  0.79238528654E+02 0.  0.
          5    1    5    5  501    0  0.44717811390E+02  0.10391817665E+03  0.20408961014E+03  0.23339522073E+03  0.47000000000E+01 0. -1.
        -11    1    6    6    0    0  0.13627835050E+02 -0.16365369883E+01  0.89006321769E+00  0.13754575747E+02  0.00000000000E+00 0.  1.
         12    1    6    6    0    0 -0.64071257755E+01 -0.16048029207E+02  0.23861966650E+03  0.23924451037E+03  0.00000000000E+00 0. -1.
         -5    1    3    3    0  503  0.19348662445E+02 -0.58881304095E+02 -0.33266527126E+02  0.70499152742E+02  0.47000000000E+01 0.  1.
         11    1    4    4    0    0 -0.67498804797E+02 -0.66957045678E+00 -0.10234995896E+03  0.12260526527E+03  0.00000000000E+00 0. -1.
        -12    1    4    4    0    0 -0.37883783126E+01 -0.26682735901E+02 -0.15853043548E+03  0.16080491030E+03  0.00000000000E+00 0.  1.
</event>
<event>
12    1  0.8421768E-002  0.1966461E+03  0.7818608E-02  0.1152620E+00
         21   -1    0    0  501  502  0.00000000000E+00  0.00000000000E+00  0.10084177819E+04  0.10084177819E+04  0.00000000000E+00 0. -1.
         21   -1    0    0  502  503 -0.00000000000E+00 -0.00000000000E+00 -0.38457751875E+02  0.38457751875E+02  0.00000000000E+00 0. -1.
         -6    2    1    2    0  503  0.97840415719E+02 -0.14378680604E+01  0.51515453369E+03  0.55137808557E+03  0.17046637573E+03 0.  0.
        -24    2    3    3    0    0  0.12622077735E+03 -0.13644919815E+02  0.31672004301E+03  0.35049803646E+03  0.80121279618E+02 0.  0.
          6    2    1    2  501    0 -0.97840415719E+02  0.14378680604E+01  0.45480549638E+03  0.49549744825E+03  0.17057217613E+03 0.  0.
         24    2    5    5    0    0 -0.10911398306E+03  0.50772695842E+02  0.36291910387E+03  0.39049164993E+03  0.79307785032E+02 0.  0.
          5    1    5    5  501    0  0.11273567337E+02 -0.49334827781E+02  0.91886392512E+02  0.10500579832E+03  0.47000000000E+01 0. -1.
        -13    1    6    6    0    0 -0.49649680677E+02  0.51445178761E+02  0.27646018516E+03  0.28555547830E+03  0.00000000000E+00 0.  1.
         14    1    6    6    0    0 -0.59464302379E+02 -0.67248291943E+00  0.86458918709E+02  0.10493617162E+03  0.00000000000E+00 0. -1.
         -5    1    3    3    0  503 -0.28380361633E+02  0.12207051754E+02  0.19843449068E+03  0.20088004911E+03  0.47000000000E+01 0.  1.
         13    1    4    4    0    0  0.50680899709E+02 -0.36808926094E+02  0.19976604972E+03  0.20935597736E+03  0.00000000000E+00 0. -1.
        -14    1    4    4    0    0  0.75539877643E+02  0.23164006280E+02  0.11695399329E+03  0.14114205910E+03  0.00000000000E+00 0.  1.
</event>
<event>
12    1  0.8421768E-002  0.1854438E+03  0.7818608E-02  0.1162655E+00
         21   -1    0    0  503  502  0.00000000000E+00  0.00000000000E+00  0.74946614168E+02  0.74946614168E+02  0.00000000000E+00 0. -1.
         21   -1    0    0  501  503 -0.00000000000E+00 -0.00000000000E+00 -0.89143133049E+03  0.89143133049E+03  0.00000000000E+00 0.  1.
          6    2    1    2  501    0  0.30293855752E+02 -0.62578522430E+02 -0.74496039293E+03  0.76769484567E+03  0.17191742165E+03 0.  0.
         24    2    3    3    0    0  0.54657507092E+02  0.92537298725E+01 -0.49769849343E+03  0.50901744635E+03  0.91224425026E+02 0.  0.
         -6    2    1    2    0  502 -0.30293855752E+02  0.62578522430E+02 -0.71524323396E+02  0.19868309899E+03  0.17182972916E+03 0.  0.
        -24    2    5    5    0    0  0.37785507415E+02  0.21569801494E+02  0.19708152474E+01  0.90331171062E+02  0.79138078354E+02 0.  0.
          5    1    3    3  501    0 -0.24363651340E+02 -0.71832252303E+02 -0.24726189949E+03  0.25867739932E+03  0.47000000000E+01 0. -1.
        -11    1    4    4    0    0  0.28043362128E+02 -0.39201926806E+02 -0.29515770813E+03  0.29906737350E+03  0.00000000000E+00 0.  1.
         12    1    4    4    0    0  0.26614144964E+02  0.48455656678E+02 -0.20254078531E+03  0.20995007285E+03  0.00000000000E+00 0. -1.
         -5    1    5    5    0  502 -0.68079363167E+02  0.41008720937E+02 -0.73495138643E+02  0.10835192793E+03  0.47000000000E+01 0.  1.
         13    1    6    6    0    0  0.40485876527E+02  0.40320687266E+02  0.23385757237E+02  0.61739433601E+02  0.00000000000E+00 0. -1.
        -14    1    6    6    0    0 -0.27003691124E+01 -0.18750885773E+02 -0.21414941990E+02  0.28591737461E+02  0.00000000000E+00 0.  1.
</event>
<event>
12    1  0.8421768E-002  0.2815181E+03  0.7818608E-02  0.1094944E+00
         21   -1    0    0  501  502  0.00000000000E+00  0.00000000000E+00  0.21189488762E+03  0.21189488762E+03  0.00000000000E+00 0. -1.
         21   -1    0    0  502  503 -0.00000000000E+00 -0.00000000000E+00 -0.40768171406E+03  0.40768171406E+03  0.00000000000E+00 0.  1.
         -6    2    1    2    0  503 -0.21299402114E+03  0.64940633768E+02 -0.79212072452E+01  0.28162954494E+03  0.17224609168E+03 0.  0.
        -24    2    3    3    0    0 -0.12011457162E+03 -0.27944220542E+02  0.17756500621E+02  0.14770560016E+03  0.79330077690E+02 0.  0.
          6    2    1    2  501    0  0.21299402114E+03 -0.64940633768E+02 -0.18786561920E+03  0.33794705675E+03  0.17126290705E+03 0.  0.
         24    2    5    5    0    0  0.48907211394E+02 -0.70997255712E+02 -0.63518333320E+02  0.13192399661E+03  0.77050870007E+02 0.  0.
          5    1    5    5  501    0  0.16408680975E+03  0.60566219448E+01 -0.12434728588E+03  0.20602306014E+03  0.47000000000E+01 0. -1.
        -13    1    6    6    0    0  0.13292652372E+02 -0.16712896594E+02 -0.63505268781E+02  0.66999512555E+02  0.00000000000E+00 0.  1.
         14    1    6    6    0    0  0.35614559022E+02 -0.54284359118E+02 -0.13064539301E-01  0.64924484056E+02  0.00000000000E+00 0. -1.
         -5    1    3    3    0  503 -0.92879449527E+02  0.92884854310E+02 -0.25677707867E+02  0.13392394478E+03  0.47000000000E+01 0.  1.
         13    1    4    4    0    0 -0.11879696562E+03 -0.17017294812E+02 -0.74095093848E+01  0.12023813119E+03  0.00000000000E+00 0. -1.
        -14    1    4    4    0    0 -0.13176059949E+01 -0.10926925731E+02  0.25166010006E+02  0.27467468961E+02  0.00000000000E+00 0.  1.
</event>
<event>
12    1  0.8421768E-002  0.2044574E+03  0.7818608E-02  0.1147622E+00
         21   -1    0    0  503  502  0.00000000000E+00  0.00000000000E+00  0.16042239796E+03  0.16042239796E+03  0.00000000000E+00 0.  1.
         21   -1    0    0  501  503 -0.00000000000E+00 -0.00000000000E+00 -0.28395531647E+03  0.28395531647E+03  0.00000000000E+00 0. -1.
          6    2    1    2  501    0 -0.10805662842E+03 -0.87766715015E+01  0.14974732313E+02  0.19742186763E+03  0.16431033534E+03 0.  0.
         24    2    3    3    0    0 -0.54398220704E+02 -0.62864232638E+02 -0.13592874768E+02  0.11591795875E+03  0.79631204654E+02 0.  0.
         -6    2    1    2    0  502  0.10805662842E+03  0.87766715015E+01 -0.13850765083E+03  0.24695584680E+03  0.17334807764E+03 0.  0.
        -24    2    5    5    0    0  0.12721045850E+03 -0.14781921887E+02 -0.60343807383E+02  0.16297041383E+03  0.80727781649E+02 0.  0.
          5    1    3    3  501    0 -0.53658407721E+02  0.54087561136E+02  0.28567607080E+02  0.81503908882E+02  0.47000000000E+01 0. -1.
        -13    1    4    4    0    0 -0.18851886182E+02 -0.35420637165E+02  0.32447631133E+02  0.51602944838E+02  0.00000000000E+00 0.  1.
         14    1    4    4    0    0 -0.35546334522E+02 -0.27443595473E+02 -0.46040505901E+02  0.64315013908E+02  0.00000000000E+00 0. -1.
         -5    1    5    5    0  502 -0.19153830071E+02  0.23558593388E+02 -0.78163843443E+02  0.83985432967E+02  0.47000000000E+01 0.  1.
         13    1    6    6    0    0  0.14875157012E+02 -0.47088246484E+01 -0.46850290403E+02  0.49380087449E+02  0.00000000000E+00 0. -1.
        -14    1    6    6    0    0  0.11233530148E+03 -0.10073097238E+02 -0.13493516981E+02  0.11359032638E+03  0.00000000000E+00 0.  1.
</event>
<event>
12    1  0.8421768E-002  0.1794107E+03  0.7818608E-02  0.1169073E+00
         21   -1    0    0  501  502  0.00000000000E+00  0.00000000000E+00  0.16366128549E+03  0.16366128549E+03  0.00000000000E+00 0.  1.
         21   -1    0    0  502  503 -0.00000000000E+00 -0.00000000000E+00 -0.37228611522E+03  0.37228611522E+03  0.00000000000E+00 0.  1.
         -6    2    1    2    0  503 -0.32865551109E+01 -0.37095409194E+02 -0.28954496157E+03  0.33913205923E+03  0.17259026045E+03 0.  0.
        -24    2    3    3    0    0  0.17276538767E+02  0.36121280737E+02 -0.10982574272E+03  0.14392803228E+03  0.83966415895E+02 0.  0.
          6    2    1    2  501    0  0.32865551109E+01  0.37095409194E+02  0.80920131839E+02  0.19681534148E+03  0.17550310561E+03 0.  0.
         24    2    5    5    0    0 -0.73231201612E+01 -0.45727176556E+02  0.58829536553E+02  0.11031545524E+03  0.81018408584E+02 0.  0.
          5    1    5    5  501    0  0.10609675272E+02  0.82822585750E+02  0.22090595286E+02  0.86499886241E+02  0.47000000000E+01 0. -1.
        -11    1    6    6    0    0 -0.11964616168E+02 -0.48842577009E+02  0.76630785599E+02  0.91657114674E+02  0.00000000000E+00 0.  1.
         12    1    6    6    0    0  0.46414960070E+01  0.31154004525E+01 -0.17801249046E+02  0.18658340568E+02  0.00000000000E+00 0. -1.
         -5    1    3    3    0  503 -0.20563093878E+02 -0.73216689930E+02 -0.17971921885E+03  0.19520402695E+03  0.47000000000E+01 0.  1.
         11    1    4    4    0    0  0.47124545034E+02  0.28290866980E+02 -0.41225351388E+02  0.68706808224E+02  0.00000000000E+00 0. -1.
        -12    1    4    4    0    0 -0.29848006267E+02  0.78304137563E+01 -0.68600391331E+02  0.75221224056E+02  0.00000000000E+00 0.  1.
</event>
<event>
12    1  0.8421768E-002  0.1807095E+03  0.7818608E-02  0.1167190E+00
         21   -1    0    0  503  502  0.00000000000E+00  0.00000000000E+00  0.85096593487E+02  0.85096593487E+02  0.00000000000E+00 0. -1.
         21   -1    0    0  501  503 -0.00000000000E+00 -0.00000000000E+00 -0.38775399324E+03  0.38775399324E+03  0.00000000000E+00 0. -1.
          6    2    1    2  501    0 -0.51196496778E+02  0.25832799791E+02 -0.17730650285E+03  0.25316700432E+03  0.17136954600E+03 0.  0.
         24    2    3    3    0    0 -0.81506107109E+02  0.30883963782E+02 -0.61311937018E+02  0.13307946942E+03  0.79711522667E+02 0.  0.
         -6    2    1    2    0  502  0.51196496778E+02 -0.25832799791E+02 -0.12535089690E+03  0.21968358240E+03  0.17105441881E+03 0.  0.
        -24    2    5    5    0    0  0.30460045577E+02 -0.77511567046E+02 -0.49424463111E+02  0.12540946749E+03  0.79679982310E+02 0.  0.
          5    1    3    3  501    0  0.30309610331E+02 -0.50511639909E+01 -0.11599456583E+03  0.12008753490E+03  0.47000000000E+01 0. -1.
        -11    1    4    4    0    0 -0.27667108548E+02  0.48346878361E+02 -0.51047126824E+02  0.75555930937E+02  0.00000000000E+00 0.  1.
         12    1    4    4    0    0 -0.53838998561E+02 -0.17462914580E+02 -0.10264810194E+02  0.57523538486E+02  0.00000000000E+00 0. -1.
         -5    1    5    5    0  502  0.20736451201E+02  0.51678767255E+02 -0.75926433788E+02  0.94274114905E+02  0.47000000000E+01 0.  1.
         13    1    6    6    0    0  0.18548088253E+02  0.13780583352E+02 -0.79925680441E+01  0.24450300598E+02  0.00000000000E+00 0. -1.
        -14    1    6    6    0    0  0.11911957324E+02 -0.91292150398E+02 -0.41431895067E+02  0.10095916690E+03  0.00000000000E+00 0.  1.
</event>
<event>
12    1  0.8421768E-002  0.1860529E+03  0.7818608E-02  0.1162325E+00
         21   -1    0    0  503  502  0.00000000000E+00  0.00000000000E+00  0.54851087858E+03  0.54851087858E+03  0.00000000000E+00 0. -1.
         21   -1    0    0  501  503 -0.00000000000E+00 -0.00000000000E+00 -0.93614291772E+02  0.93614291772E+02  0.00000000000E+00 0. -1.
          6    2    1    2  501    0 -0.28609083427E+02 -0.61174856543E+02  0.42607359244E+02  0.18979998001E+03  0.17218537285E+03 0.  0.
         24    2    3    3    0    0  0.34430608141E+02 -0.45149890870E+01  0.56099395472E+02  0.10384377992E+03  0.80190626332E+02 0.  0.
         -6    2    1    2    0  502  0.28609083427E+02  0.61174856543E+02  0.41228922756E+03  0.45232519034E+03  0.17336328309E+03 0.  0.
        -24    2    5    5    0    0  0.78017476960E+02  0.12781417967E+02  0.21064286220E+03  0.23909653159E+03  0.80911338300E+02 0.  0.
          5    1    3    3  501    0 -0.63039691569E+02 -0.56659867456E+02 -0.13492036228E+02  0.85956200095E+02  0.47000000000E+01 0. -1.
        -11    1    4    4    0    0  0.21402172965E+02  0.20826157263E+02  0.66985819903E+02  0.73340861067E+02  0.00000000000E+00 0.  1.
         12    1    4    4    0    0  0.13028435176E+02 -0.25341146350E+02 -0.10886424431E+02  0.30502918850E+02  0.00000000000E+00 0. -1.
         -5    1    5    5    0  502 -0.49408393532E+02  0.48393438576E+02  0.20164636536E+03  0.21322865875E+03  0.47000000000E+01 0.  1.
         11    1    6    6    0    0  0.77906395407E+02  0.36443586323E+02  0.13714536609E+03  0.16188388700E+03  0.00000000000E+00 0. -1.
        -12    1    6    6    0    0  0.11108155288E+00 -0.23662168356E+02  0.73497496110E+02  0.77212644591E+02  0.00000000000E+00 0.  1.
</event>
<event>
12    1  0.8421768E-002  0.2125161E+03  0.7818608E-02  0.1143066E+00
         21   -1    0    0  501  502  0.00000000000E+00  0.00000000000E+00  0.12526561410E+03  0.12526561410E+03  0.00000000000E+00 0.  1.
         21   -1    0    0  502  503 -0.00000000000E+00 -0.00000000000E+00 -0.33891937397E+03  0.33891937397E+03  0.00000000000E+00 0. -1.
         -6    2    1    2    0  503 -0.53902997795E+02 -0.80133273951E+02 -0.14390482669E+03  0.25665484468E+03  0.18930461006E+03 0.  0.
        -24    2    3    3    0    0 -0.42941940652E+02 -0.12425864328E+03 -0.67985061867E+02  0.16803716201E+03  0.79563172909E+02 0.  0.
          6    2    1    2  501    0  0.53902997795E+02  0.80133273951E+02 -0.69748933173E+02  0.20753014339E+03  0.16993225700E+03 0.  0.
         24    2    5    5    0    0 -0.37832596504E+02  0.56004856317E+02 -0.23176616557E+02  0.10175363147E+03  0.72448579507E+02 0.  0.
          5    1    5    5  501    0  0.91735594300E+02  0.24128417635E+02 -0.46572316617E+02  0.10577651192E+03  0.47000000000E+01 0. -1.
        -13    1    6    6    0    0 -0.33781510267E+01  0.76654823478E+01  0.24324352122E+02  0.25726360609E+02  0.00000000000E+00 0.  1.
         14    1    6    6    0    0 -0.34454445478E+02  0.48339373969E+02 -0.47500968679E+02  0.76027270859E+02  0.00000000000E+00 0. -1.
         -5    1    3    3    0  503 -0.10961057143E+02  0.44125369325E+02 -0.75919764820E+02  0.88617682672E+02  0.47000000000E+01 0.  1.
         13    1    4    4    0    0 -0.36315685138E+02 -0.24555169314E+02 -0.50020148260E+02  0.66511657316E+02  0.00000000000E+00 0. -1.
        -14    1    4    4    0    0 -0.66262555146E+01 -0.99703473963E+02 -0.17964913608E+02  0.10152550469E+03  0.00000000000E+00 0.  1.
</event>
<event>
12    1  0.8421768E-002  0.2379186E+03  0.7818608E-02  0.1121340E+00
         21   -1    0    0  503  502  0.00000000000E+00  0.00000000000E+00  0.39007565428E+03  0.39007565428E+03  0.00000000000E+00 0. -1.
         21   -1    0    0  501  503 -0.00000000000E+00 -0.00000000000E+00 -0.16322025971E+03  0.16322025971E+03  0.00000000000E+00 0.  1.
          6    2    1    2  501    0  0.97462411521E+02 -0.13194614424E+03  0.19702291873E+02  0.23783173988E+03  0.17107615132E+03 0.  0.
         24    2    3    3    0    0  0.71678899633E+02 -0.16301987537E+03  0.47936677417E+01  0.19453366458E+03  0.78147443875E+02 0.  0.
         -6    2    1    2    0  502 -0.97462411521E+02  0.13194614424E+03  0.20715310270E+03  0.31546417410E+03  0.17232681319E+03 0.  0.
        -24    2    5    5    0    0 -0.40330372817E+02  0.95666479457E+02  0.20932717459E+03  0.24758854879E+03  0.81875571490E+02 0.  0.
          5    1    3    3  501    0  0.25783511888E+02  0.31073731132E+02  0.14908624132E+02  0.43298075306E+02  0.47000000000E+01 0. -1.
        -13    1    4    4    0    0  0.39866329114E+02 -0.21431878095E+02 -0.15845384479E+02  0.47955456467E+02  0.00000000000E+00 0.  1.
         14    1    4    4    0    0  0.31812570519E+02 -0.14158799728E+03  0.20639052220E+02  0.14657820811E+03  0.00000000000E+00 0. -1.
         -5    1    5    5    0  502 -0.57132038703E+02  0.36279664783E+02 -0.21740718907E+01  0.67875625314E+02  0.47000000000E+01 0.  1.
         13    1    6    6    0    0  0.18083082372E+01  0.22497342615E+02  0.12929625787E+03  0.13125137220E+03  0.00000000000E+00 0. -1.
        -14    1    6    6    0    0 -0.42138681054E+02  0.73169136842E+02  0.80030916715E+02  0.11633717659E+03  0.00000000000E+00 0.  1.
</event>
<event>
12    1  0.8421768E-002  0.1866525E+03  0.7818608E-02  0.1161582E+00
         21   -1    0    0  501  502  0.00000000000E+00  0.00000000000E+00  0.17516902499E+04  0.17516902499E+04  0.00000000000E+00 0.  1.
         21   -1    0    0  502  503 -0.00000000000E+00 -0.00000000000E+00 -0.19940437708E+02  0.19940437708E+02  0.00000000000E+00 0.  1.
         -6    2    1    2    0  503  0.73566582880E+02  0.12242502560E+02  0.80834990486E+03  0.82955503013E+03  0.17079244228E+03 0.  0.
        -24    2    3    3    0    0  0.48829580510E+02 -0.29426678947E+02  0.73517677613E+03  0.74166511750E+03  0.79573846151E+02 0.  0.
          6    2    1    2  501    0 -0.73566582880E+02 -0.12242502560E+02  0.92339990732E+03  0.94207565747E+03  0.17110591622E+03 0.  0.
         24    2    5    5    0    0 -0.76755644670E+02  0.49083444343E+02  0.54061575444E+03  0.55436850048E+03  0.82209652006E+02 0.  0.
          5    1    5    5  501    0  0.31890617899E+01 -0.61325946903E+02  0.38278415288E+03  0.38770715699E+03  0.47000000000E+01 0. -1.
        -11    1    6    6    0    0 -0.54769982787E+02  0.40307392063E+02  0.17144025450E+03  0.18443480619E+03  0.00000000000E+00 0.  1.
         12    1    6    6    0    0 -0.21985661883E+02  0.87760522802E+01  0.36917549993E+03  0.36993369429E+03  0.00000000000E+00 0. -1.
         -5    1    3    3    0  503  0.24737002370E+02  0.41669181507E+02  0.73173128735E+02  0.87889912632E+02  0.47000000000E+01 0.  1.
         13    1    4    4    0    0  0.14777396879E+02  0.10028373756E+01  0.19276125537E+02  0.24309384135E+02  0.00000000000E+00 0. -1.
        -14    1    4    4    0    0  0.34052183631E+02 -0.30429516322E+02  0.71590065059E+03  0.71735573337E+03  0.00000000000E+00 0.  1.
</event>
<event>
12    1  0.8421768E-002  0.4041169E+03  0.7818608E-02  0.1042441E+00
         21   -1    0    0  503  502  0.00000000000E+00  0.00000000000E+00  0.26130996420E+03  0.26130996420E+03  0.00000000000E+00 0. -1.
         21   -1    0    0  501  503 -0.00000000000E+00 -0.00000000000E+00 -0.71589480327E+03  0.71589480327E+03  0.00000000000E+00 0.  1.
          6    2    1    2  501    0 -0.32692461746E+03 -0.16289616762E+03 -0.40297933369E+03  0.57070380336E+03  0.17290350159E+03 0.  0.
         24    2    3    3    0    0 -0.35140334502E+02 -0.71771705649E+02 -0.10056756879E+03  0.14068438415E+03  0.57378037693E+02 0.  0.
         -6    2    1    2    0  502  0.32692461746E+03  0.16289616762E+03 -0.51605505377E+02  0.40650096411E+03  0.17077774654E+03 0.  0.
        -24    2    5    5    0    0  0.20248826214E+03  0.17321274205E+03 -0.25473031828E+02  0.27884582552E+03  0.78115099364E+02 0.  0.
          5    1    3    3  501    0 -0.29178428296E+03 -0.91124461967E+02 -0.30241176490E+03  0.43001941921E+03  0.47000000000E+01 0. -1.
        -11    1    4    4    0    0 -0.44513569073E+00 -0.65087533817E+01  0.73846039255E+01  0.98536486392E+01  0.00000000000E+00 0.  1.
         12    1    4    4    0    0 -0.34695198811E+02 -0.65262952268E+02 -0.10795217272E+03  0.13083073551E+03  0.00000000000E+00 0. -1.
         -5    1    5    5    0  502  0.12443635532E+03 -0.10316574436E+02 -0.26132473549E+02  0.12765513859E+03  0.47000000000E+01 0. -1.
         11    1    6    6    0    0  0.84980389078E+02  0.53450098572E+02  0.25333065228E+02  0.10353909290E+03  0.00000000000E+00 0. -1.
        -12    1    6    6    0    0  0.11750787306E+03  0.11976264348E+03 -0.50806097055E+02  0.17530673262E+03  0.00000000000E+00 0.  1.
</event>
<event>
12    1  0.8421768E-002  0.2243227E+03  0.7818608E-02  0.1130956E+00
         21   -1    0    0  501  502  0.00000000000E+00  0.00000000000E+00  0.87212140871E+02  0.87212140871E+02  0.00000000000E+00 0. -1.
         21   -1    0    0  502  503 -0.00000000000E+00 -0.00000000000E+00 -0.69886716277E+03  0.69886716277E+03  0.00000000000E+00 0.  1.
         -6    2    1    2    0  503 -0.91558013097E+02  0.11034879010E+03 -0.47157859966E+03  0.52161363498E+03  0.17068884937E+03 0.  0.
        -24    2    3    3    0    0 -0.20379819340E+02  0.10948228811E+03 -0.21733432909E+03  0.25755052659E+03  0.81831257482E+02 0.  0.
          6    2    1    2  501    0  0.91558013097E+02 -0.11034879010E+03 -0.14007642224E+03  0.26446566866E+03  0.17251365336E+03 0.  0.
         24    2    5    5    0    0  0.61412623110E+02 -0.52315780061E+02 -0.15980425433E+03  0.19599777728E+03  0.79807755750E+02 0.  0.
          5    1    5    5  501    0  0.30145389987E+02 -0.58033010037E+02  0.19727832086E+02  0.68467891381E+02  0.47000000000E+01 0. -1.
        -11    1    6    6    0    0  0.35168766718E+02 -0.52648279003E+02 -0.15738216189E+03  0.16964029095E+03  0.00000000000E+00 0.  1.
         12    1    6    6    0    0  0.26243856392E+02  0.33249894173E+00 -0.24220924417E+01  0.26357486330E+02  0.00000000000E+00 0. -1.
         -5    1    3    3    0  503 -0.71178193757E+02  0.86650198506E+00 -0.25424427057E+03  0.26406310839E+03  0.47000000000E+01 0.  1.
         13    1    4    4    0    0 -0.43658716734E+02  0.60835861889E+02 -0.17013167331E+03  0.18588133823E+03  0.00000000000E+00 0. -1.
        -14    1    4    4    0    0  0.23278897394E+02  0.48646426223E+02 -0.47202655781E+02  0.71669188365E+02  0.00000000000E+00 0.  1.
</event>
<event>
12    1  0.8421768E-002  0.2817676E+03  0.7818608E-02  0.1094785E+00
         21   -1    0    0  501  502  0.00000000000E+00  0.00000000000E+00  0.26423444135E+03  0.26423444135E+03  0.00000000000E+00 0.  1.
         21   -1    0    0  502  503 -0.00000000000E+00 -0.00000000000E+00 -0.31253014697E+03  0.31253014697E+03  0.00000000000E+00 0.  1.
         -6    2    1    2    0  503  0.45929052839E+02 -0.21816157697E+03  0.33585517678E+02  0.28334081713E+03  0.17161025638E+03 0.  0.
        -24    2    3    3    0    0  0.60791916095E+02 -0.60705925878E+02  0.43696340397E+02  0.12479269983E+03  0.79265258890E+02 0.  0.
          6    2    1    2  501    0 -0.45929052839E+02  0.21816157697E+03 -0.81881223300E+02  0.29342377119E+03  0.17230502956E+03 0.  0.
         24    2    5    5    0    0 -0.29992302429E+02  0.78995839648E+02  0.22077227809E+02  0.11892296313E+03  0.80717942773E+02 0.  0.
          5    1    5    5  501    0 -0.15936750410E+02  0.13916573732E+03 -0.10395845111E+03  0.17450080806E+03  0.47000000000E+01 0. -1.
        -13    1    6    6    0    0 -0.18688372984E+02  0.71892659563E+02 -0.18209864924E+02  0.76481428886E+02  0.00000000000E+00 0.  1.
         14    1    6    6    0    0 -0.11303929446E+02  0.71031800843E+01  0.40287092733E+02  0.42441534245E+02  0.00000000000E+00 0. -1.
         -5    1    3    3    0  503 -0.14862863255E+02 -0.15745565109E+03 -0.10110822719E+02  0.15854811730E+03  0.47000000000E+01 0.  1.
         11    1    4    4    0    0 -0.18995491192E+02 -0.55352280601E+01  0.54656318211E+01  0.20526581949E+02  0.00000000000E+00 0. -1.
        -12    1    4    4    0    0  0.79787407286E+02 -0.55170697817E+02  0.38230708576E+02  0.10426611788E+03  0.00000000000E+00 0.  1.
</event>
<event>
12    1  0.8421768E-002  0.1999557E+03  0.7818608E-02  0.1150106E+00
         21   -1    0    0  503  502  0.00000000000E+00  0.00000000000E+00  0.71868000936E+02  0.71868000936E+02  0.00000000000E+00 0.  1.
         21   -1    0    0  501  503 -0.00000000000E+00 -0.00000000000E+00 -0.66277336971E+03  0.66277336971E+03  0.00000000000E+00 0.  1.
          6    2    1    2  501    0  0.82325298295E+02 -0.59432302689E+02 -0.44658004887E+03  0.48930156453E+03  0.17225744587E+03 0.  0.
         24    2    3    3    0    0  0.10085812398E+03 -0.84623033856E+01 -0.21158419568E+03  0.24808268576E+03  0.80828060475E+02 0.  0.
         -6    2    1    2    0  502 -0.82325298295E+02  0.59432302689E+02 -0.14432531990E+03  0.24533980612E+03  0.17044696876E+03 0.  0.
        -24    2    5    5    0    0  0.13316358049E+02  0.54832995493E+02 -0.45697909750E+02  0.10779731782E+03  0.79674211555E+02 0.  0.
          5    1    3    3  501    0 -0.18532825689E+02 -0.50969999304E+02 -0.23499585319E+03  0.24121887877E+03  0.47000000000E+01 0. -1.
        -11    1    4    4    0    0  0.99955538781E+02 -0.31033449581E+02 -0.18955581511E+03  0.21653081020E+03  0.00000000000E+00 0.  1.
         12    1    4    4    0    0  0.90258520326E+00  0.22571146195E+02 -0.22028380578E+02  0.31551875562E+02  0.00000000000E+00 0. -1.
         -5    1    5    5    0  502 -0.95641656343E+02  0.45993071966E+01 -0.98627410155E+02  0.13754248830E+03  0.47000000000E+01 0.  1.
         11    1    6    6    0    0  0.36586314667E+02  0.47317558908E+01 -0.36312249487E+02  0.51764151664E+02  0.00000000000E+00 0. -1.
        -12    1    6    6    0    0 -0.23269956618E+02  0.50101239602E+02 -0.93856602627E+01  0.56033166154E+02  0.00000000000E+00 0.  1.
</event>
<event>
12    1  0.8421768E-002  0.1862266E+03  0.7818608E-02  0.1161969E+00
         21   -1    0    0  501  502  0.00000000000E+00  0.00000000000E+00  0.11735699065E+04  0.11735699065E+04  0.00000000000E+00 0. -1.
         21   -1    0    0  502  503 -0.00000000000E+00 -0.00000000000E+00 -0.31128668089E+02  0.31128668089E+02  0.00000000000E+00 0. -1.
         -6    2    1    2    0  503  0.25312424537E+02  0.65753719223E+02  0.43350870815E+03  0.47171448750E+03  0.17210603491E+03 0.  0.
        -24    2    3    3    0    0  0.10749182939E+02  0.70502574440E+02  0.44113675493E+03  0.45396859419E+03  0.79998062595E+02 0.  0.
          6    2    1    2  501    0 -0.25312424537E+02 -0.65753719223E+02  0.70893253029E+03  0.73298408711E+03  0.17238349407E+03 0.  0.
         24    2    5    5    0    0  0.29962847162E+02 -0.17176186636E+02  0.16377274971E+03  0.18286009318E+03  0.73644460306E+02 0.  0.
          5    1    5    5  501    0 -0.55275271699E+02 -0.48577532588E+02  0.54515978059E+03  0.55012399394E+03  0.47000000000E+01 0. -1.
        -13    1    6    6    0    0  0.40043720327E+02 -0.81616522291E+01  0.16431985142E+03  0.16932550214E+03  0.00000000000E+00 0.  1.
         14    1    6    6    0    0 -0.10080873165E+02 -0.90145344066E+01 -0.54710171195E+00  0.13534591040E+02  0.00000000000E+00 0. -1.
         -5    1    3    3    0  503  0.14563241598E+02 -0.47488552166E+01 -0.76280467877E+01  0.17745893314E+02  0.47000000000E+01 0.  1.
         13    1    4    4    0    0 -0.87485982249E+01  0.46592760321E+02  0.92230493647E+02  0.10370095103E+03  0.00000000000E+00 0. -1.
        -14    1    4    4    0    0  0.19497781164E+02  0.23909814119E+02  0.34890626129E+03  0.35026764316E+03  0.00000000000E+00 0.  1.
</event>
<event>
12    1  0.8421768E-002  0.2342362E+03  0.7818608E-02  0.1124182E+00
         21   -1    0    0  503  502  0.00000000000E+00  0.00000000000E+00  0.72230685426E+02  0.72230685426E+02  0.00000000000E+00 0.  1.
         21   -1    0    0  501  503 -0.00000000000E+00 -0.00000000000E+00 -0.75118799400E+03  0.75118799400E+03  0.00000000000E+00 0.  1.
          6    2    1    2  501    0 -0.92483586074E+02  0.12432478822E+03 -0.35025983866E+03  0.41979925305E+03  0.17187085741E+03 0.  0.
         24    2    3    3    0    0 -0.13208455497E+03  0.89066772046E+02 -0.27093253710E+03  0.32426771263E+03  0.79786529269E+02 0.  0.
         -6    2    1    2    0  502  0.92483586074E+02 -0.12432478822E+03 -0.32869746992E+03  0.40361942637E+03  0.17566088909E+03 0.  0.
        -24    2    5    5    0    0  0.58170514996E+02 -0.12285512710E+03 -0.13835131329E+03  0.21014256447E+03  0.80880284630E+02 0.  0.
          5    1    3    3  501    0  0.39600968898E+02  0.35258016177E+02 -0.79327301557E+02  0.95531540419E+02  0.47000000000E+01 0. -1.
        -13    1    4    4    0    0 -0.77401306553E+02  0.69386798450E+02 -0.10206895055E+03  0.14568308317E+03  0.00000000000E+00 0.  1.
         14    1    4    4    0    0 -0.54683248419E+02  0.19679973596E+02 -0.16886358655E+03  0.17858462947E+03  0.00000000000E+00 0. -1.
         -5    1    5    5    0  502  0.34313071078E+02 -0.14696611190E+01 -0.19034615662E+03  0.19347686190E+03  0.47000000000E+01 0.  1.
         11    1    6    6    0    0 -0.17782945885E+02 -0.49403855798E+02 -0.46831146567E+02  0.70357163252E+02  0.00000000000E+00 0. -1.
        -12    1    6    6    0    0  0.75953460881E+02 -0.73451271305E+02 -0.91520166727E+02  0.13978540122E+03  0.00000000000E+00 0.  1.
</event>
<event>
12    1  0.8421768E-002  0.1783228E+03  0.7818608E-02  0.1169491E+00
         21   -1    0    0  503  502  0.00000000000E+00  0.00000000000E+00  0.84917254210E+02  0.84917254210E+02  0.00000000000E+00 0. -1.
         21   -1    0    0  501  503 -0.00000000000E+00 -0.00000000000E+00 -0.40237310932E+03  0.40237310932E+03  0.00000000000E+00 0. -1.
          6    2    1    2  501    0 -0.13899962391E+02 -0.45154913747E+02 -0.93941271818E+02  0.20135720008E+03  0.17171949302E+03 0.  0.
         24    2    3    3    0    0  0.37835362881E+02  0.21564125966E+02 -0.80198439943E+02  0.11568964748E+03  0.71103998141E+02 0.  0.
         -6    2    1    2    0  502  0.13899962391E+02  0.45154913747E+02 -0.22351458330E+03  0.28593316345E+03  0.17195007945E+03 0.  0.
        -24    2    5    5    0    0 -0.39358021190E+02  0.45955685560E+02 -0.20825090088E+03  0.23032629291E+03  0.77593715073E+02 0.  0.
          5    1    3    3  501    0 -0.51735325271E+02 -0.66719039713E+02 -0.13742831874E+02  0.85667552604E+02  0.47000000000E+01 0. -1.
        -13    1    4    4    0    0  0.33120290246E+02 -0.76819211428E+01 -0.43688684869E+01  0.34279039518E+02  0.00000000000E+00 0.  1.
         14    1    4    4    0    0  0.47150726347E+01  0.29246047109E+02 -0.75829571456E+02  0.81410607962E+02  0.00000000000E+00 0. -1.
         -5    1    5    5    0  502  0.53257983581E+02 -0.80077181267E+00 -0.15263682412E+02  0.55606870541E+02  0.47000000000E+01 0.  1.
         11    1    6    6    0    0 -0.57350826870E+02  0.53656566549E+02 -0.15930799961E+03  0.17761526740E+03  0.00000000000E+00 0. -1.
        -12    1    6    6    0    0  0.17992805680E+02 -0.77008809891E+01 -0.48942901278E+02  0.52711025505E+02  0.00000000000E+00 0.  1.
</event>
<event>
12    1  0.8421768E-002  0.1788037E+03  0.7818608E-02  0.1169545E+00
         21   -1    0    0  503  502  0.00000000000E+00  0.00000000000E+00  0.65492686825E+02  0.65492686825E+02  0.00000000000E+00 0. -1.
         21   -1    0    0  501  503 -0.00000000000E+00 -0.00000000000E+00 -0.49034781487E+03  0.49034781487E+03  0.00000000000E+00 0. -1.
          6    2    1    2  501    0  0.42788295917E+02  0.94453574546E+01 -0.24784677246E+03  0.30424021337E+03  0.17092112733E+03 0.  0.
         24    2    3    3    0    0 -0.46065892783E+01 -0.38794861455E+02 -0.20472247907E+03  0.22389602538E+03  0.81803880140E+02 0.  0.
         -6    2    1    2    0  502 -0.42788295917E+02 -0.94453574546E+01 -0.17700835559E+03  0.25160028832E+03  0.17335136023E+03 0.  0.
        -24    2    5    5    0    0  0.89906284052E+01  0.19643358436E+02 -0.17310602122E+03  0.19189661499E+03  0.79949504884E+02 0.  0.
          5    1    3    3  501    0  0.47394885196E+02  0.48240218909E+02 -0.43124293390E+02  0.80344187989E+02  0.47000000000E+01 0. -1.
        -13    1    4    4    0    0  0.35887513952E+02 -0.18688819271E+02 -0.13384034776E+03  0.13982283187E+03  0.00000000000E+00 0.  1.
         14    1    4    4    0    0 -0.40494103230E+02 -0.20106042183E+02 -0.70882131310E+02  0.84073193515E+02  0.00000000000E+00 0. -1.
         -5    1    5    5    0  502 -0.51778924323E+02 -0.29088715890E+02 -0.39023343649E+01  0.59703673335E+02  0.47000000000E+01 0.  1.
         11    1    6    6    0    0  0.44144278129E+02  0.12373946784E+02 -0.81527383000E+02  0.93533662547E+02  0.00000000000E+00 0. -1.
        -12    1    6    6    0    0 -0.35153649724E+02  0.72694116518E+01 -0.91578638220E+02  0.98362952441E+02  0.00000000000E+00 0.  1.
</event>
<event>
12    1  0.8421768E-002  0.1768199E+03  0.7818608E-02  0.1170947E+00
         21   -1    0    0  501  502  0.00000000000E+00  0.00000000000E+00  0.83641364148E+02  0.83641364148E+02  0.00000000000E+00 0. -1.
         21   -1    0    0  502  503 -0.00000000000E+00 -0.00000000000E+00 -0.38534946562E+03  0.38534946562E+03  0.00000000000E+00 0. -1.
         -6    2    1    2    0  503  0.40898265744E+02  0.91742020400E+00 -0.19185065924E+03  0.26082275200E+03  0.17189625566E+03 0.  0.
        -24    2    3    3    0    0 -0.15100898747E+02  0.55930996689E+02 -0.11101205260E+03  0.14804256604E+03  0.78972222998E+02 0.  0.
          6    2    1    2  501    0 -0.40898265744E+02 -0.91742020400E+00 -0.10985744223E+03  0.20816807777E+03  0.17202261824E+03 0.  0.
         24    2    5    5    0    0 -0.29247105763E+02 -0.68856048606E+02 -0.79195412606E+02  0.13257934303E+03  0.75556734944E+02 0.  0.
          5    1    5    5  501    0 -0.11651159981E+02  0.67938628402E+02 -0.30662029628E+02  0.75588734736E+02  0.47000000000E+01 0. -1.
        -13    1    6    6    0    0 -0.14664887581E+02 -0.47045186771E+02 -0.91250263396E+02  0.10370592604E+03  0.00000000000E+00 0.  1.
         14    1    6    6    0    0 -0.14582218182E+02 -0.21810861835E+02  0.12054850790E+02  0.28873416990E+02  0.00000000000E+00 0. -1.
         -5    1    3    3    0  503  0.55999164491E+02 -0.55013576485E+02 -0.80838606643E+02  0.11278018596E+03  0.47000000000E+01 0.  1.
         11    1    4    4    0    0  0.76062942289E+01 -0.18558935115E+02 -0.23690379943E+02  0.31040681151E+02  0.00000000000E+00 0. -1.
        -12    1    4    4    0    0 -0.22707192976E+02  0.74489931805E+02 -0.87321672654E+02  0.11700188489E+03  0.00000000000E+00 0.  1.
</event>
<event>
12    1  0.8421768E-002  0.1833920E+03  0.7818608E-02  0.1164600E+00
         21   -1    0    0  503  502  0.00000000000E+00  0.00000000000E+00  0.27454940289E+03  0.27454940289E+03  0.00000000000E+00 0. -1.
         21   -1    0    0  501  503 -0.00000000000E+00 -0.00000000000E+00 -0.16704480524E+03  0.16704480524E+03  0.00000000000E+00 0. -1.
          6    2    1    2  501    0  0.48217523024E+02 -0.41974109262E+02 -0.60426437825E+02  0.19293090052E+03  0.17170970448E+03 0.  0.
         24    2    3    3    0    0 -0.33271610662E+02 -0.53577461061E+02 -0.36659166949E+02  0.10712827907E+03  0.78453994454E+02 0.  0.
         -6    2    1    2    0  502 -0.48217523024E+02  0.41974109262E+02  0.16793103547E+03  0.24866330761E+03  0.17188907035E+03 0.  0.
        -24    2    5    5    0    0  0.36383294438E+02  0.25393296701E+02  0.51050079846E+02  0.10335167887E+03  0.78146626551E+02 0.  0.
          5    1    3    3  501    0  0.81489133687E+02  0.11603351798E+02 -0.23767270876E+02  0.85802621445E+02  0.47000000000E+01 0. -1.
        -11    1    4    4    0    0 -0.41416591287E+02 -0.12193955429E+02 -0.46878113737E+02  0.63730558842E+02  0.00000000000E+00 0.  1.
         12    1    4    4    0    0  0.81449806242E+01 -0.41383505631E+02  0.10218946788E+02  0.43397720230E+02  0.00000000000E+00 0. -1.
         -5    1    5    5    0  502 -0.84600817463E+02  0.16580812561E+02  0.11688095562E+03  0.14531162874E+03  0.47000000000E+01 0.  1.
         11    1    6    6    0    0  0.44271034941E+02  0.39671705082E+02  0.11470009227E+02  0.60541967514E+02  0.00000000000E+00 0. -1.
        -12    1    6    6    0    0 -0.78877405025E+01 -0.14278408380E+02  0.39580070620E+02  0.42809711356E+02  0.00000000000E+00 0.  1.
</event>
<event>
12    1  0.8421768E-002  0.2375163E+03  0.7818608E-02  0.1121510E+00
         21   -1    0    0  501  502  0.00000000000E+00  0.00000000000E+00  0.44228099049E+03  0.44228099049E+03  0.00000000000E+00 0.  1.
         21   -1    0    0  502  503 -0.00000000000E+00 -0.00000000000E+00 -0.26555552387E+03  0.26555552387E+03  0.00000000000E+00 0. -1.
         -6    2    1    2    0  503 -0.12655447624E+01  0.16259965500E+03 -0.16689684889E+03  0.29029046217E+03  0.17312927206E+03 0.  0.
        -24    2    3    3    0    0  0.31462023063E+02  0.13031614558E+03 -0.18370150660E+03  0.24111927957E+03  0.80125568723E+02 0.  0.
          6    2    1    2  501    0  0.12655447624E+01 -0.16259965500E+03  0.34362231550E+03  0.41754605220E+03  0.17270831070E+03 0.  0.
         24    2    5    5    0    0 -0.48904756024E+02 -0.14147640990E+03  0.31059271805E+03  0.35370018411E+03  0.78922328971E+02 0.  0.
          5    1    5    5  501    0  0.50170300786E+02 -0.21123245099E+02  0.33029597454E+02  0.63845868092E+02  0.47000000000E+01 0. -1.
        -13    1    6    6    0    0  0.15206044692E+02 -0.62250263875E+02  0.15472566009E+03  0.16747044228E+03  0.00000000000E+00 0.  1.
         14    1    6    6    0    0 -0.64110800716E+02 -0.79226146030E+02  0.15586705796E+03  0.18622974182E+03  0.00000000000E+00 0. -1.
         -5    1    3    3    0  503 -0.32727567825E+02  0.32283509428E+02  0.16804657711E+02  0.49171182592E+02  0.47000000000E+01 0.  1.
         11    1    4    4    0    0  0.12044683793E+02  0.14167003676E+02 -0.86347540139E+02  0.88327097138E+02  0.00000000000E+00 0. -1.
        -12    1    4    4    0    0  0.19417339270E+02  0.11614914190E+03 -0.97353966459E+02  0.15279218244E+03  0.00000000000E+00 0.  1.
</event>
<event>
12    1  0.8421768E-002  0.1738065E+03  0.7818608E-02  0.1174802E+00
         21   -1    0    0  501  502  0.00000000000E+00  0.00000000000E+00  0.78511323790E+02  0.78511323790E+02  0.00000000000E+00 0.  1.
         21   -1    0    0  502  503 -0.00000000000E+00 -0.00000000000E+00 -0.49521940746E+03  0.49521940746E+03  0.00000000000E+00 0.  1.
         -6    2    1    2    0  503  0.18401270536E+01 -0.22974505855E+02 -0.34676228454E+03  0.38637786148E+03  0.16885661336E+03 0.  0.
        -24    2    3    3    0    0  0.59714213055E+02 -0.25286651952E+02 -0.15048721481E+03  0.18168113741E+03  0.78462933027E+02 0.  0.
          6    2    1    2  501    0 -0.18401270536E+01  0.22974505855E+02 -0.69945799133E+02  0.18735286977E+03  0.17227149796E+03 0.  0.
         24    2    5    5    0    0 -0.18253939504E+02  0.65053300781E+02 -0.89111422018E+02  0.13806342545E+03  0.80966200738E+02 0.  0.
          5    1    5    5  501    0  0.16413812450E+02 -0.42078794926E+02  0.19165622885E+02  0.49289444328E+02  0.47000000000E+01 0. -1.
        -13    1    6    6    0    0 -0.56821483780E+01  0.82188856234E+02 -0.80335987742E+02  0.11507026473E+03  0.00000000000E+00 0.  1.
         14    1    6    6    0    0 -0.12571791126E+02 -0.17135555454E+02 -0.87754342755E+01  0.22993160712E+02  0.00000000000E+00 0. -1.
         -5    1    3    3    0  503 -0.57874086001E+02  0.23121460975E+01 -0.19627506972E+03  0.20469672407E+03  0.47000000000E+01 0.  1.
         13    1    4    4    0    0 -0.10850466826E+02 -0.16610637057E+01 -0.74575650721E+02  0.75379171151E+02  0.00000000000E+00 0. -1.
        -14    1    4    4    0    0  0.70564679881E+02 -0.23625588246E+02 -0.75911564093E+02  0.10630196626E+03  0.00000000000E+00 0.  1.
</event>
<event>
12    1  0.8421768E-002  0.1823824E+03  0.7818608E-02  0.1166364E+00
         21   -1    0    0  503  502  0.00000000000E+00  0.00000000000E+00  0.38189918196E+02  0.38189918196E+02  0.00000000000E+00 0.  1.
         21   -1    0    0  501  503 -0.00000000000E+00 -0.00000000000E+00 -0.14324664374E+04  0.14324664374E+04  0.00000000000E+00 0.  1.
          6    2    1    2  501    0 -0.40263917546E+02 -0.22029386726E+02 -0.11602499897E+04  0.11739549038E+04  0.17286873774E+03 0.  0.
         24    2    3    3    0    0  0.28374616243E+02  0.43848040240E+02 -0.52263566830E+03  0.52926490339E+03  0.65157706358E+02 0.  0.
         -6    2    1    2    0  502  0.40263917546E+02  0.22029386726E+02 -0.23402652947E+03  0.29670145182E+03  0.17651305357E+03 0.  0.
        -24    2    5    5    0    0  0.79579098725E+02 -0.25611172539E+02 -0.11386131308E+03  0.16150871685E+03  0.78306461355E+02 0.  0.
          5    1    3    3  501    0 -0.68638533788E+02 -0.65877426965E+02 -0.63761432141E+03  0.64469000036E+03  0.47000000000E+01 0. -1.
        -13    1    4    4    0    0  0.47899990923E+02  0.26221810507E+02 -0.28556139275E+03  0.29073579330E+03  0.00000000000E+00 0.  1.
         14    1    4    4    0    0 -0.19525374681E+02  0.17626229732E+02 -0.23707427555E+03  0.23852911009E+03  0.00000000000E+00 0. -1.
         -5    1    5    5    0  502 -0.39315181179E+02  0.47640559265E+02 -0.12016521639E+03  0.13519273497E+03  0.47000000000E+01 0.  1.
         11    1    6    6    0    0  0.16130340343E+02  0.14051135735E+02 -0.73380322260E+02  0.76434900340E+02  0.00000000000E+00 0. -1.
        -12    1    6    6    0    0  0.63448758382E+02 -0.39662308274E+02 -0.40480990816E+02  0.85073816508E+02  0.00000000000E+00 0.  1.
</event>
<event>
12    1  0.8421768E-002  0.2368101E+03  0.7818608E-02  0.1122099E+00
         21   -1    0    0  501  502  0.00000000000E+00  0.00000000000E+00  0.13472035069E+04  0.13472035069E+04  0.00000000000E+00 0.  1.
         21   -1    0    0  502  503 -0.00000000000E+00 -0.00000000000E+00 -0.59571793884E+02  0.59571793884E+02  0.00000000000E+00 0. -1.
         -6    2    1    2    0  503  0.13058692283E+03 -0.94120830520E+02  0.25685820289E+03  0.34936395488E+03  0.17368753964E+03 0.  0.
        -24    2    3    3    0    0  0.79353563683E+02 -0.80404917425E+02  0.68923620363E+02  0.15403223531E+03  0.78825917412E+02 0.  0.
          6    2    1    2  501    0 -0.13058692283E+03  0.94120830520E+02  0.10307735101E+04  0.10574113459E+04  0.17237473745E+03 0.  0.
         24    2    5    5    0    0 -0.91725849103E+02  0.84612277952E+01  0.36212003041E+03  0.38215782571E+03  0.80177699891E+02 0.  0.
          5    1    5    5  501    0 -0.38861073723E+02  0.85659602725E+02  0.66865347970E+03  0.67525352017E+03  0.47000000000E+01 0. -1.
        -13    1    6    6    0    0 -0.46818044344E+02 -0.34709274782E+02  0.20549659670E+03  0.21360129749E+03  0.00000000000E+00 0.  1.
         14    1    6    6    0    0 -0.44907804760E+02  0.43170502577E+02  0.15662343371E+03  0.16855652823E+03  0.00000000000E+00 0. -1.
         -5    1    3    3    0  503  0.51233359143E+02 -0.13715913095E+02  0.18793458252E+03  0.19533171957E+03  0.47000000000E+01 0.  1.
         11    1    4    4    0    0  0.65118254264E+01 -0.37030546581E+01 -0.16465588713E+02  0.18089557646E+02  0.00000000000E+00 0. -1.
        -12    1    4    4    0    0  0.72841738257E+02 -0.76701862767E+02  0.85389209076E+02  0.13594267767E+03  0.00000000000E+00 0.  1.
</event>
<event>
12    1  0.8421768E-002  0.1820211E+03  0.7818608E-02  0.1166001E+00
         21   -1    0    0  501  502  0.00000000000E+00  0.00000000000E+00  0.23978141667E+02  0.23978141667E+02  0.00000000000E+00 0. -1.
         21   -1    0    0  502  503 -0.00000000000E+00 -0.00000000000E+00 -0.14718634418E+04  0.14718634418E+04  0.00000000000E+00 0. -1.
         -6    2    1    2    0  503 -0.46729064358E+02 -0.33984555722E+02 -0.91459493309E+03  0.93253180148E+03  0.17260681806E+03 0.  0.
        -24    2    3    3    0    0  0.72023334317E+01 -0.24419964871E+02 -0.21753477279E+03  0.23330720655E+03  0.80390714417E+02 0.  0.
          6    2    1    2  501    0  0.46729064358E+02  0.33984555722E+02 -0.53329036705E+03  0.56330978200E+03  0.17199052133E+03 0.  0.
         24    2    5    5    0    0  0.32074190535E+02 -0.36316842053E+02 -0.17653416699E+03  0.19936730284E+03  0.78964185633E+02 0.  0.
          5    1    5    5  501    0  0.14654873823E+02  0.70301397775E+02 -0.35675620005E+03  0.36394247915E+03  0.47000000000E+01 0. -1.
        -13    1    6    6    0    0 -0.20754808442E+02  0.26148174945E+01 -0.79639162217E+02  0.82340728091E+02  0.00000000000E+00 0.  1.
         14    1    6    6    0    0  0.52828998977E+02 -0.38931659548E+02 -0.96895004774E+02  0.11702657475E+03  0.00000000000E+00 0. -1.
         -5    1    3    3    0  503 -0.53931397790E+02 -0.95645908510E+01 -0.69706016031E+03  0.69922459493E+03  0.47000000000E+01 0.  1.
         11    1    4    4    0    0  0.17999825345E+02 -0.34901651512E+02 -0.21436038941E+03  0.21792773008E+03  0.00000000000E+00 0. -1.
        -12    1    4    4    0    0 -0.10797491914E+02  0.10481686641E+02 -0.31743833743E+01  0.15379476463E+02  0.00000000000E+00 0.  1.
</event>
<event>
12    1  0.8421768E-002  0.1736210E+03  0.7818608E-02  0.1174233E+00
         21   -1    0    0  501  502  0.00000000000E+00  0.00000000000E+00  0.17433173340E+04  0.17433173340E+04  0.00000000000E+00 0. -1.
         21   -1    0    0  502  503 -0.00000000000E+00 -0.00000000000E+00 -0.32296221921E+02  0.32296221921E+02  0.00000000000E+00 0. -1.
         -6    2    1    2    0  503  0.20533133125E+02 -0.17958890049E+01  0.25006995480E+03  0.30443265025E+03  0.17239321759E+03 0.  0.
        -24    2    3    3    0    0 -0.23700676556E+02  0.53898251648E+02  0.17162402920E+03  0.19844057288E+03  0.80356144539E+02 0.  0.
          6    2    1    2  501    0 -0.20533133125E+02  0.17958890049E+01  0.14609511573E+04  0.14711809057E+04  0.17195970019E+03 0.  0.
         24    2    5    5    0    0 -0.79673178864E+01  0.36630337621E+00  0.33851969438E+03  0.34866835682E+03  0.83128979496E+02 0.  0.
          5    1    5    5  501    0 -0.12565815238E+02  0.14295856287E+01  0.11224314629E+04  0.11225125489E+04  0.47000000000E+01 0. -1.
        -13    1    6    6    0    0  0.34827807388E+02 -0.15147491055E+02  0.15114123498E+03  0.15583996780E+03  0.00000000000E+00 0.  1.
         14    1    6    6    0    0 -0.42795125274E+02  0.15513794431E+02  0.18737845940E+03  0.19282838902E+03  0.00000000000E+00 0. -1.
         -5    1    3    3    0  503  0.44233809681E+02 -0.55694140653E+02  0.78445925597E+02  0.10599207737E+03  0.47000000000E+01 0.  1.
         11    1    4    4    0    0 -0.52588364328E+01 -0.12042719324E+01 -0.80015305424E+01  0.96503949419E+01  0.00000000000E+00 0. -1.
        -12    1    4    4    0    0 -0.18441840123E+02  0.55102523580E+02  0.17962555974E+03  0.18879017794E+03  0.00000000000E+00 0.  1.
</event>
<event>
12    1  0.8421768E-002  0.1726033E+03  0.7818608E-02  0.1175488E+00
         21   -1    0    0  501  502  0.00000000000E+00  0.00000000000E+00  0.96720553770E+03  0.96720553770E+03  0.00000000000E+00 0. -1.
         21   -1    0    0  502  503 -0.00000000000E+00 -0.00000000000E+00 -0.77124789313E+02  0.77124789313E+02  0.00000000000E+00 0. -1.
         -6    2    1    2    0  503  0.30183340641E+01 -0.66678807735E+01  0.40027156797E+02  0.17718367839E+03  0.17244799689E+03 0.  0.
        -24    2    3    3    0    0 -0.28650810184E+02 -0.50578151022E+02 -0.15389947276E+02  0.99568010163E+02  0.79359434762E+02 0.  0.
          6    2    1    2  501    0 -0.30183340641E+01  0.66678807735E+01  0.85005359159E+03  0.86714664862E+03  0.17116842777E+03 0.  0.
         24    2    5    5    0    0  0.23485403751E+02  0.11555364705E+02  0.21137461819E+03  0.22788202683E+03  0.81030230728E+02 0.  0.
          5    1    5    5  501    0 -0.26503737815E+02 -0.48874839319E+01  0.63867897340E+03  0.63926462179E+03  0.47000000000E+01 0. -1.
        -11    1    6    6    0    0  0.50082714937E+02  0.56292633191E+01  0.17689676351E+03  0.18393594505E+03  0.00000000000E+00 0.  1.
         12    1    6    6    0    0 -0.26597311187E+02  0.59261013863E+01  0.34477854680E+02  0.43946081775E+02  0.00000000000E+00 0. -1.
         -5    1    3    3    0  503  0.31669144248E+02  0.43910270248E+02  0.55417104072E+02  0.77615668228E+02  0.47000000000E+01 0.  1.
         11    1    4    4    0    0 -0.43649366345E+02 -0.60791311674E-01 -0.17008898712E+02  0.46846275340E+02  0.00000000000E+00 0. -1.
        -12    1    4    4    0    0  0.14998556161E+02 -0.50517359710E+02  0.16189514360E+01  0.52721734823E+02  0.00000000000E+00 0.  1.
</event>
<event>
12    1  0.8421768E-002  0.1923082E+03  0.7818608E-02  0.1156578E+00
         21   -1    0    0  501  502  0.00000000000E+00  0.00000000000E+00  0.46780227793E+03  0.46780227793E+03  0.00000000000E+00 0.  1.
         21   -1    0    0  502  503 -0.00000000000E+00 -0.00000000000E+00 -0.89748305590E+02  0.89748305590E+02  0.00000000000E+00 0.  1.
         -6    2    1    2    0  503 -0.60688942799E+02 -0.58881403637E+02  0.91657758095E+02  0.21303423486E+03  0.17272021633E+03 0.  0.
        -24    2    3    3    0    0 -0.26473716889E+02  0.32637296136E+02  0.65185213465E+02  0.11169697758E+03  0.80380669081E+02 0.  0.
          6    2    1    2  501    0  0.60688942799E+02  0.58881403637E+02  0.28639621424E+03  0.34451634866E+03  0.17180964900E+03 0.  0.
         24    2    5    5    0    0  0.12259543505E+02  0.90823476052E+02  0.14522913274E+03  0.19182077699E+03  0.85466421955E+02 0.  0.
          5    1    5    5  501    0  0.48429399293E+02 -0.31942072415E+02  0.14116708151E+03  0.15269557167E+03  0.47000000000E+01 0. -1.
        -11    1    6    6    0    0  0.17624674765E+02  0.73275797163E+02  0.15402274841E+03  0.17147296766E+03  0.00000000000E+00 0.  1.
         12    1    6    6    0    0 -0.53651312598E+01  0.17547678889E+02 -0.87936156774E+01  0.20347809329E+02  0.00000000000E+00 0. -1.
         -5    1    3    3    0  503 -0.34215225910E+02 -0.91518699773E+02  0.26472544630E+02  0.10133725727E+03  0.47000000000E+01 0.  1.
         11    1    4    4    0    0 -0.49002336086E+02 -0.14514794810E+00  0.24455750654E+02  0.54766173409E+02  0.00000000000E+00 0. -1.
        -12    1    4    4    0    0  0.22528619197E+02  0.32782444085E+02  0.40729462811E+02  0.56930804175E+02  0.00000000000E+00 0.  1.
</event>
<event>
12    1  0.8421768E-002  0.2224545E+03  0.7818608E-02  0.1132433E+00
         21   -1    0    0  503  502  0.00000000000E+00  0.00000000000E+00  0.17991757366E+03  0.17991757366E+03  0.00000000000E+00 0.  1.
         21   -1    0    0  501  503 -0.00000000000E+00 -0.00000000000E+00 -0.27314911412E+03  0.27314911412E+03  0.00000000000E+00 0.  1.
          6    2    1    2  501    0 -0.11186771866E+03  0.86079933202E+02 -0.56606706474E+02  0.22761736280E+03  0.16935525753E+03 0.  0.
         24    2    3    3    0    0 -0.54737613227E+02  0.55536665507E+02 -0.95584181822E+02  0.15186728866E+03  0.88582221877E+02 0.  0.
         -6    2    1    2    0  502  0.11186771866E+03 -0.86079933202E+02 -0.36624833989E+02  0.22544932498E+03  0.17193568068E+03 0.  0.
        -24    2    5    5    0    0  0.92914816457E+02 -0.57835161244E+02 -0.88924718438E+02  0.16288457805E+03  0.81521231732E+02 0.  0.
          5    1    3    3  501    0 -0.57130105429E+02  0.30543267695E+02  0.38977475348E+02  0.75750074140E+02  0.47000000000E+01 0. -1.
        -13    1    4    4    0    0 -0.29775445531E+02  0.52887041975E+02 -0.85581355611E+01  0.61293213733E+02  0.00000000000E+00 0.  1.
         14    1    4    4    0    0 -0.24962167696E+02  0.26496235323E+01 -0.87026046261E+02  0.90574074926E+02  0.00000000000E+00 0. -1.
         -5    1    5    5    0  502  0.18952902198E+02 -0.28244771958E+02  0.52299884449E+02  0.62564746928E+02  0.47000000000E+01 0.  1.
         13    1    6    6    0    0  0.45413788967E+02  0.11592951736E+02 -0.54784525075E+02  0.72098217357E+02  0.00000000000E+00 0. -1.
        -14    1    6    6    0    0  0.47501027490E+02 -0.69428112980E+02 -0.34140193363E+02  0.90786360691E+02  0.00000000000E+00 0.  1.
</event>
<event>
12    1  0.8421768E-002  0.2469519E+03  0.7818608E-02  0.1115327E+00
         21   -1    0    0  501  502  0.00000000000E+00  0.00000000000E+00  0.48555099651E+03  0.48555099651E+03  0.00000000000E+00 0. -1.
         21   -1    0    0  502  503 -0.00000000000E+00 -0.00000000000E+00 -0.15812216290E+03  0.15812216290E+03  0.00000000000E+00 0. -1.
         -6    2    1    2    0  503 -0.11935998196E+03 -0.13077549697E+03  0.31011053206E+03  0.39611473739E+03  0.17143309825E+03 0.  0.
        -24    2    3    3    0    0 -0.23236506360E+02 -0.20266618885E+02  0.57400247563E+02  0.10399059838E+03  0.81046807850E+02 0.  0.
          6    2    1    2  501    0  0.11935998196E+03  0.13077549697E+03  0.17318301547E+02  0.24755842202E+03  0.17215171461E+03 0.  0.
         24    2    5    5    0    0  0.68795167712E+02  0.86369846171E+02 -0.54914636107E+02  0.14872346087E+03  0.83129568311E+02 0.  0.
          5    1    5    5  501    0  0.50564814247E+02  0.44405650804E+02  0.72232937654E+02  0.98834961149E+02  0.47000000000E+01 0. -1.
        -11    1    6    6    0    0 -0.15625912069E+02  0.17408545267E+02  0.55883625715E+01  0.24051119985E+02  0.00000000000E+00 0.  1.
         12    1    6    6    0    0  0.84421079781E+02  0.68961300904E+02 -0.60502998678E+02  0.12467234089E+03  0.00000000000E+00 0. -1.
         -5    1    3    3    0  503 -0.96123475600E+02 -0.11050887809E+03  0.25271028450E+03  0.29212413900E+03  0.47000000000E+01 0.  1.
         11    1    4    4    0    0 -0.48780376477E+02  0.61013131598E+01  0.39931081725E+02  0.63334370126E+02  0.00000000000E+00 0. -1.
        -12    1    4    4    0    0  0.25543870117E+02 -0.26367932044E+02  0.17469165838E+02  0.40656228255E+02  0.00000000000E+00 0.  1.
</event>
<event>
12    1  0.8421768E-002  0.1842212E+03  0.7818608E-02  0.1164100E+00
         21   -1    0    0  503  502  0.00000000000E+00  0.00000000000E+00  0.13344730290E+03  0.13344730290E+03  0.00000000000E+00 0. -1.
         21   -1    0    0  501  503 -0.00000000000E+00 -0.00000000000E+00 -0.28568965470E+03  0.28568965470E+03  0.00000000000E+00 0. -1.
          6    2    1    2  501    0  0.60091077265E+02  0.75323677440E+01 -0.48728867286E+01  0.18428566120E+03  0.17398214210E+03 0.  0.
         24    2    3    3    0    0  0.55760657528E+01 -0.36218397197E+00  0.60174767037E+02  0.98918819351E+02  0.78311599060E+02 0.  0.
         -6    2    1    2    0  502 -0.60091077265E+02 -0.75323677440E+01 -0.14736946507E+03  0.23485129639E+03  0.17253897545E+03 0.  0.
        -24    2    5    5    0    0 -0.10542550880E+03 -0.18953843972E+02 -0.12555609933E+03  0.18304807519E+03  0.79173718163E+02 0.  0.
          5    1    3    3  501    0  0.54515011512E+02  0.78945517160E+01 -0.65047653766E+02  0.85366841850E+02  0.47000000000E+01 0. -1.
        -11    1    4    4    0    0 -0.27427665304E+02 -0.21821484758E+02  0.12778977773E+02  0.37306250066E+02  0.00000000000E+00 0.  1.
         12    1    4    4    0    0  0.33003731057E+02  0.21459300787E+02  0.47395789264E+02  0.61612569285E+02  0.00000000000E+00 0. -1.
         -5    1    5    5    0  502  0.45334431531E+02  0.11421476228E+02 -0.21813365747E+02  0.51803221200E+02  0.47000000000E+01 0.  1.
         11    1    6    6    0    0 -0.58184182840E+02 -0.18715087192E+02 -0.15165197919E+02  0.62973302671E+02  0.00000000000E+00 0. -1.
        -12    1    6    6    0    0 -0.47241325957E+02 -0.23875678011E+00 -0.11039090141E+03  0.12007477252E+03  0.00000000000E+00 0.  1.
</event>
<event>
12    1  0.8421768E-002  0.2175956E+03  0.7818608E-02  0.1136081E+00
         21   -1    0    0  501  502  0.00000000000E+00  0.00000000000E+00  0.29107568710E+03  0.29107568710E+03  0.00000000000E+00 0. -1.
         21   -1    0    0  502  503 -0.00000000000E+00 -0.00000000000E+00 -0.16932794668E+03  0.16932794668E+03  0.00000000000E+00 0.  1.
         -6    2    1    2    0  503  0.68523819745E+02  0.11053339760E+03  0.11126454116E+03  0.24255566960E+03  0.17187294399E+03 0.  0.
        -24    2    3    3    0    0  0.22498608116E+02  0.25586277356E+02  0.11659315376E+03  0.14568040209E+03  0.80423697323E+02 0.  0.
          6    2    1    2  501    0 -0.68523819745E+02 -0.11053339760E+03  0.10483199264E+02  0.21784796418E+03  0.17445541600E+03 0.  0.
         24    2    5    5    0    0 -0.84628917996E+02 -0.67897359613E+02  0.61653135113E+02  0.14916275282E+03  0.81708705508E+02 0.  0.
          5    1    5    5  501    0  0.16105098251E+02 -0.42636037987E+02 -0.51169935849E+02  0.68685211361E+02  0.47000000000E+01 0. -1.
        -11    1    6    6    0    0 -0.37272807225E+02  0.14904414563E+02  0.13824648237E+02  0.42456149505E+02  0.00000000000E+00 0.  1.
         12    1    6    6    0    0 -0.47356110771E+02 -0.82801774176E+02  0.47828486876E+02  0.10670660331E+03  0.00000000000E+00 0. -1.
         -5    1    3    3    0  503  0.46025211629E+02  0.84947120244E+02 -0.53286126018E+01  0.96875267512E+02  0.47000000000E+01 0.  1.
         11    1    4    4    0    0 -0.29215633432E+02  0.14857334334E+02  0.31064061494E+02  0.45158272076E+02  0.00000000000E+00 0. -1.
        -12    1    4    4    0    0  0.51714241548E+02  0.10728943022E+02  0.85529092269E+02  0.10052213001E+03  0.00000000000E+00 0.  1.
</event>
<event>
12    1  0.8421768E-002  0.1998687E+03  0.7818608E-02  0.1149867E+00
         21   -1    0    0  501  502  0.00000000000E+00  0.00000000000E+00  0.51481219300E+03  0.51481219300E+03  0.00000000000E+00 0. -1.
         21   -1    0    0  502  503 -0.00000000000E+00 -0.00000000000E+00 -0.12625739404E+03  0.12625739404E+03  0.00000000000E+00 0. -1.
         -6    2    1    2    0  503  0.55448156059E+02 -0.86668924267E+02 -0.47559851835E+01  0.19992529981E+03  0.17135199347E+03 0.  0.
        -24    2    3    3    0    0  0.82964413947E+02 -0.72861751859E+02  0.41490907329E+02  0.14417005319E+03  0.82894993707E+02 0.  0.
          6    2    1    2  501    0 -0.55448156059E+02  0.86668924267E+02  0.39331078414E+03  0.44114428723E+03  0.17125685033E+03 0.  0.
         24    2    5    5    0    0  0.17018442366E+02  0.48864430961E+02  0.28171235198E+03  0.30273587830E+03  0.98029601428E+02 0.  0.
          5    1    5    5  501    0 -0.72466598425E+02  0.37804493306E+02  0.11159843216E+03  0.13840840893E+03  0.47000000000E+01 0. -1.
        -11    1    6    6    0    0 -0.26849509669E+02  0.41281323802E+02  0.65273206639E+02  0.81765734689E+02  0.00000000000E+00 0.  1.
         12    1    6    6    0    0  0.43867952035E+02  0.75831071593E+01  0.21643914534E+03  0.22097014361E+03  0.00000000000E+00 0. -1.
         -5    1    3    3    0  503 -0.27516257887E+02 -0.13807172408E+02 -0.46246892512E+02  0.55755246615E+02  0.47000000000E+01 0.  1.
         13    1    4    4    0    0  0.99801084011E+02 -0.59226465347E+02  0.38652263791E+02  0.12231936913E+03  0.00000000000E+00 0. -1.
        -14    1    4    4    0    0 -0.16836670064E+02 -0.13635286512E+02  0.28386435376E+01  0.21850684068E+02  0.00000000000E+00 0.  1.
</event>
<event>
12    1  0.8421768E-002  0.2074144E+03  0.7818608E-02  0.1144121E+00
         21   -1    0    0  501  502  0.00000000000E+00  0.00000000000E+00  0.71897926327E+03  0.71897926327E+03  0.00000000000E+00 0. -1.
         21   -1    0    0  502  503 -0.00000000000E+00 -0.00000000000E+00 -0.69108607573E+02  0.69108607573E+02  0.00000000000E+00 0. -1.
         -6    2    1    2    0  503 -0.82508422105E+02  0.81262196411E+02  0.47296805732E+03  0.51547959314E+03  0.16914267177E+03 0.  0.
        -24    2    3    3    0    0 -0.68778968812E+02  0.11435565095E+03  0.29671018206E+03  0.33555571143E+03  0.82176285354E+02 0.  0.
          6    2    1    2  501    0  0.82508422105E+02 -0.81262196411E+02  0.17690259837E+03  0.27260827770E+03  0.17207428476E+03 0.  0.
         24    2    5    5    0    0  0.38092144788E+02 -0.22178552474E+02  0.16268314645E+03  0.19718967598E+03  0.10234775274E+03 0.  0.
          5    1    5    5  501    0  0.44416277317E+02 -0.59083643937E+02  0.14219451921E+02  0.75418601714E+02  0.47000000000E+01 0. -1.
        -11    1    6    6    0    0  0.15936951312E+02 -0.60795260596E+02  0.68202516264E+02  0.92744990985E+02  0.00000000000E+00 0.  1.
         12    1    6    6    0    0  0.22155193476E+02  0.38616708122E+02  0.94480630187E+02  0.10444468500E+03  0.00000000000E+00 0. -1.
         -5    1    3    3    0  503 -0.13729453293E+02 -0.33093454540E+02  0.17625787526E+03  0.17992388172E+03  0.47000000000E+01 0.  1.
         11    1    4    4    0    0 -0.41162456539E+02  0.98970271690E+01  0.45794245834E+02  0.62365149936E+02  0.00000000000E+00 0. -1.
        -12    1    4    4    0    0 -0.27616512273E+02  0.10445862378E+03  0.25091593623E+03  0.27319056149E+03  0.00000000000E+00 0.  1.
</event>
<event>
12    1  0.8421768E-002  0.3521818E+03  0.7818608E-02  0.1061738E+00
         21   -1    0    0  501  502  0.00000000000E+00  0.00000000000E+00  0.62219733425E+02  0.62219733425E+02  0.00000000000E+00 0. -1.
         21   -1    0    0  502  503 -0.00000000000E+00 -0.00000000000E+00 -0.21977557939E+04  0.21977557939E+04  0.00000000000E+00 0.  1.
         -6    2    1    2    0  503  0.28661071044E+03  0.11195658038E+03 -0.14128016415E+04  0.14559997329E+04  0.17101686759E+03 0.  0.
        -24    2    3    3    0    0  0.26202847653E+03  0.58285219197E+02 -0.99183052997E+03  0.10308836689E+04  0.83290150999E+02 0.  0.
          6    2    1    2  501    0 -0.28661071044E+03 -0.11195658038E+03 -0.72273441901E+03  0.80397579438E+03  0.17132443576E+03 0.  0.
         24    2    5    5    0    0 -0.64723384497E+02 -0.67206441349E+02 -0.29516083607E+03  0.32015990048E+03  0.81710589679E+02 0.  0.
          5    1    5    5  501    0 -0.22188732594E+03 -0.44750139030E+02 -0.42757358294E+03  0.48381589389E+03  0.47000000000E+01 0. -1.
        -11    1    6    6    0    0 -0.70694806701E+02 -0.38513988080E+02 -0.13374536855E+03  0.15610543418E+03  0.00000000000E+00 0.  1.
         12    1    6    6    0    0  0.59714222040E+01 -0.28692453269E+02 -0.16141546752E+03  0.16405446630E+03  0.00000000000E+00 0. -1.
         -5    1    3    3    0  503  0.24582233907E+02  0.53671361182E+02 -0.42097111148E+03  0.42511606408E+03  0.47000000000E+01 0.  1.
         13    1    4    4    0    0  0.37387796209E+02 -0.19964001393E+02 -0.17977364733E+03  0.18470239016E+03  0.00000000000E+00 0. -1.
        -14    1    4    4    0    0  0.22464068032E+03  0.78249220591E+02 -0.81205688264E+03  0.84618127870E+03  0.00000000000E+00 0.  1.
</event>
<event>
12    1  0.8421768E-002  0.1902294E+03  0.7818608E-02  0.1158346E+00
         21   -1    0    0  501  502  0.00000000000E+00  0.00000000000E+00  0.23994457231E+03  0.23994457231E+03  0.00000000000E+00 0. -1.
         21   -1    0    0  502  503 -0.00000000000E+00 -0.00000000000E+00 -0.23446490642E+03  0.23446490642E+03  0.00000000000E+00 0. -1.
         -6    2    1    2    0  503 -0.69712100732E+02 -0.41096977548E+02 -0.13921789322E+03  0.23540193598E+03  0.17170821505E+03 0.  0.
        -24    2    3    3    0    0 -0.93189050613E+02 -0.68116180845E+02 -0.14102534204E+03  0.19925554759E+03  0.80564340128E+02 0.  0.
          6    2    1    2  501    0  0.69712100732E+02  0.41096977548E+02  0.14469755911E+03  0.23900754275E+03  0.17215830892E+03 0.  0.
         24    2    5    5    0    0 -0.17567170838E+02  0.50547561242E+02  0.10519359182E+03  0.14262477350E+03  0.80077917158E+02 0.  0.
          5    1    5    5  501    0  0.87279271571E+02 -0.94505836940E+01  0.39503967289E+02  0.96382769257E+02  0.47000000000E+01 0. -1.
        -13    1    6    6    0    0 -0.24448660130E+02  0.49724442895E+02  0.22763010041E+02  0.59903354076E+02  0.00000000000E+00 0.  1.
         14    1    6    6    0    0  0.68814892914E+01  0.82311834700E+00  0.82430581780E+02  0.82721419422E+02  0.00000000000E+00 0. -1.
         -5    1    3    3    0  503  0.23476949881E+02  0.27019203296E+02  0.18074488168E+01  0.36146388391E+02  0.47000000000E+01 0.  1.
         13    1    4    4    0    0 -0.50945365848E+02 -0.13354352193E+02 -0.13796958933E+02  0.54443779256E+02  0.00000000000E+00 0. -1.
        -14    1    4    4    0    0 -0.42243684765E+02 -0.54761828652E+02 -0.12722838310E+03  0.14481176833E+03  0.00000000000E+00 0.  1.
</event>
<event>
12    1  0.8421768E-002  0.3223189E+03  0.7818608E-02  0.1074634E+00
         21   -1    0    0  501  502  0.00000000000E+00  0.00000000000E+00  0.10564956879E+03  0.10564956879E+03  0.00000000000E+00 0. -1.
         21   -1    0    0  502  503 -0.00000000000E+00 -0.00000000000E+00 -0.16624613488E+04  0.16624613488E+04  0.00000000000E+00 0.  1.
         -6    2    1    2    0  503  0.28866199969E+02 -0.27008815044E+03 -0.13436735927E+04  0.13816948338E+04  0.17274554514E+03 0.  0.
        -24    2    3    3    0    0  0.62380076082E+01 -0.28246699661E+03 -0.11837931789E+04  0.12196790702E+04  0.80151275392E+02 0.  0.
          6    2    1    2  501    0 -0.28866199969E+02  0.27008815044E+03 -0.21313818725E+03  0.38641608380E+03  0.17351840375E+03 0.  0.
         24    2    5    5    0    0 -0.28132382175E+02  0.11966539376E+03 -0.18030481946E+03  0.23237821749E+03  0.79865954277E+02 0.  0.
          5    1    5    5  501    0 -0.73381779385E+00  0.15042275668E+03 -0.32833367795E+02  0.15403786631E+03  0.47000000000E+01 0. -1.
        -11    1    6    6    0    0 -0.37450801473E+02  0.17886852551E+02 -0.74442555857E+02  0.85230253711E+02  0.00000000000E+00 0.  1.
         12    1    6    6    0    0  0.93184192981E+01  0.10177854121E+03 -0.10586226360E+03  0.14714796378E+03  0.00000000000E+00 0. -1.
         -5    1    3    3    0  503  0.22628192361E+02  0.12378846163E+02 -0.15988041382E+03  0.16201576357E+03  0.47000000000E+01 0.  1.
         11    1    4    4    0    0 -0.12235831753E+02 -0.81582010686E+02 -0.49961569393E+03  0.50638047125E+03  0.00000000000E+00 0. -1.
        -12    1    4    4    0    0  0.18473839361E+02 -0.20088498592E+03 -0.68417748496E+03  0.71329859893E+03  0.00000000000E+00 0.  1.
</event>
<event>
12    1  0.8421768E-002  0.2509435E+03  0.7818608E-02  0.1114001E+00
         21   -1    0    0  503  502  0.00000000000E+00  0.00000000000E+00  0.61630342692E+03  0.61630342692E+03  0.00000000000E+00 0.  1.
         21   -1    0    0  501  503 -0.00000000000E+00 -0.00000000000E+00 -0.12292749099E+03  0.12292749099E+03  0.00000000000E+00 0.  1.
          6    2    1    2  501    0 -0.15793499127E+03 -0.64675311660E+02  0.80113148240E+02  0.25574484532E+03  0.17280321751E+03 0.  0.
         24    2    3    3    0    0 -0.14709116599E+03 -0.94542314547E+01  0.13095033052E+02  0.16810653173E+03  0.79769245413E+02 0.  0.
         -6    2    1    2    0  502  0.15793499127E+03  0.64675311660E+02  0.41326278769E+03  0.48348607258E+03  0.18397362117E+03 0.  0.
        -24    2    5    5    0    0  0.18383204712E+03  0.78722185512E+02  0.33361109426E+03  0.39843047645E+03  0.86365955727E+02 0.  0.
          5    1    3    3  501    0 -0.10843825272E+02 -0.55221080205E+02  0.67018115188E+02  0.87638313590E+02  0.47000000000E+01 0. -1.
        -11    1    4    4    0    0 -0.50624128708E+02 -0.27755521727E+02 -0.24833206547E+02  0.62847908009E+02  0.00000000000E+00 0.  1.
         12    1    4    4    0    0 -0.96467037287E+02  0.18301290273E+02  0.37928239598E+02  0.10525862372E+03  0.00000000000E+00 0. -1.
         -5    1    5    5    0  502 -0.25897055857E+02 -0.14046873853E+02  0.79651693430E+02  0.85055596132E+02  0.47000000000E+01 0.  1.
         11    1    6    6    0    0  0.70681435547E+02 -0.58420589470E+01  0.71679481569E+02  0.10083621900E+03  0.00000000000E+00 0. -1.
        -12    1    6    6    0    0  0.11315061158E+03  0.84564244459E+02  0.26193161270E+03  0.29759425745E+03  0.00000000000E+00 0.  1.
</event>
<event>
12    1  0.8421768E-002  0.2259135E+03  0.7818608E-02  0.1129803E+00
         21   -1    0    0  501  502  0.00000000000E+00  0.00000000000E+00  0.78581701767E+03  0.78581701767E+03  0.00000000000E+00 0. -1.
         21   -1    0    0  502  503 -0.00000000000E+00 -0.00000000000E+00 -0.65771874012E+02  0.65771874012E+02  0.00000000000E+00 0.  1.
         -6    2    1    2    0  503 -0.14271826171E+03  0.24977266847E+02  0.30075060355E+03  0.37530658933E+03  0.17149852585E+03 0.  0.
        -24    2    3    3    0    0 -0.14525075797E+03  0.75772221053E+01  0.31262526383E+03  0.35357475436E+03  0.78264643045E+02 0.  0.
          6    2    1    2  501    0  0.14271826171E+03 -0.24977266847E+02  0.41929454011E+03  0.47628230236E+03  0.17333364961E+03 0.  0.
         24    2    5    5    0    0  0.14284781746E+03 -0.71243558308E+02  0.35176831256E+03  0.39429164486E+03  0.79017795015E+02 0.  0.
          5    1    5    5  501    0 -0.12955574770E+00  0.46266291461E+02  0.67526227547E+02  0.81990657498E+02  0.47000000000E+01 0. -1.
        -13    1    6    6    0    0  0.10275266933E+03 -0.80544716320E+01  0.19426222743E+03  0.21991088780E+03  0.00000000000E+00 0.  1.
         14    1    6    6    0    0  0.40095148136E+02 -0.63189086676E+02  0.15750608513E+03  0.17438075706E+03  0.00000000000E+00 0. -1.
         -5    1    3    3    0  503  0.25324962558E+01  0.17400044742E+02 -0.11874660278E+02  0.21731834967E+02  0.47000000000E+01 0.  1.
         13    1    4    4    0    0 -0.54584471808E+02 -0.26562348619E+01  0.20654736057E+03  0.21365470345E+03  0.00000000000E+00 0. -1.
        -14    1    4    4    0    0 -0.90666286162E+02  0.10233456967E+02  0.10607790326E+03  0.13992005091E+03  0.00000000000E+00 0.  1.
</event>
<event>
12    1  0.8421768E-002  0.1796741E+03  0.7818608E-02  0.1168907E+00
         21   -1    0    0  503  502  0.00000000000E+00  0.00000000000E+00  0.51392644017E+03  0.51392644017E+03  0.00000000000E+00 0. -1.
         21   -1    0    0  501  503 -0.00000000000E+00 -0.00000000000E+00 -0.69076351569E+02  0.69076351569E+02  0.00000000000E+00 0. -1.
          6    2    1    2  501    0  0.24476640617E+02  0.29423718435E+02  0.31950604730E+03  0.36656091688E+03  0.17555036421E+03 0.  0.
         24    2    3    3    0    0  0.67762800410E+01 -0.50114980986E+02  0.20414937172E+03  0.22524934597E+03  0.80640390601E+02 0.  0.
         -6    2    1    2    0  502 -0.24476640617E+02 -0.29423718435E+02  0.12534404130E+03  0.21644187487E+03  0.17225299813E+03 0.  0.
        -24    2    5    5    0    0 -0.60261079771E+02 -0.56088085491E+02  0.42341495888E+02  0.12208602131E+03  0.79592231122E+02 0.  0.
          5    1    3    3  501    0  0.17700360576E+02  0.79538699421E+02  0.11535667559E+03  0.14131157091E+03  0.47000000000E+01 0. -1.
        -13    1    4    4    0    0 -0.13722812337E+02  0.96128212844E+01  0.11375668247E+03  0.11498393244E+03  0.00000000000E+00 0.  1.
         14    1    4    4    0    0  0.20499092378E+02 -0.59727802270E+02  0.90392689242E+02  0.11026541353E+03  0.00000000000E+00 0. -1.
         -5    1    5    5    0  502  0.35784439155E+02  0.26664367056E+02  0.83002545413E+02  0.94355853560E+02  0.47000000000E+01 0.  1.
         13    1    6    6    0    0 -0.21438313899E+02  0.94387111620E+01  0.39434014376E+02  0.45866458998E+02  0.00000000000E+00 0. -1.
        -14    1    6    6    0    0 -0.38822765873E+02 -0.65526796653E+02  0.29074815121E+01  0.76219562308E+02  0.00000000000E+00 0.  1.
</event>
<event>
12    1  0.8421768E-002  0.2432774E+03  0.7818608E-02  0.1117948E+00
         21   -1    0    0  503  502  0.00000000000E+00  0.00000000000E+00  0.84337261113E+03  0.84337261113E+03  0.00000000000E+00 0.  1.
         21   -1    0    0  501  503 -0.00000000000E+00 -0.00000000000E+00 -0.10071793389E+03  0.10071793389E+03  0.00000000000E+00 0.  1.
          6    2    1    2  501    0  0.41452408115E+02 -0.16706334328E+03  0.63261507087E+03  0.67708378648E+03  0.16915130274E+03 0.  0.
         24    2    3    3    0    0  0.41356536800E+02 -0.42919602296E+02  0.41465807187E+03  0.42620728095E+03  0.78478496219E+02 0.  0.
         -6    2    1    2    0  502 -0.41452408115E+02  0.16706334328E+03  0.11003960638E+03  0.26700675854E+03  0.17191693148E+03 0.  0.
        -24    2    5    5    0    0 -0.72150337816E+02  0.61219678964E+02  0.16064938929E+02  0.12209791724E+03  0.75473828532E+02 0.  0.
          5    1    3    3  501    0  0.95871315307E-01 -0.12414374098E+03  0.21795699900E+03  0.25087650553E+03  0.47000000000E+01 0. -1.
        -11    1    4    4    0    0  0.16935855348E+02 -0.59770838829E+02  0.19773136696E+03  0.20726087390E+03  0.00000000000E+00 0.  1.
         12    1    4    4    0    0  0.24420681452E+02  0.16851236533E+02  0.21692670491E+03  0.21894640705E+03  0.00000000000E+00 0. -1.
         -5    1    5    5    0  502  0.30697929701E+02  0.10584366431E+03  0.93974667451E+02  0.14490884129E+03  0.47000000000E+01 0.  1.
         13    1    6    6    0    0  0.14056001963E+02  0.21983646676E+02  0.40214239395E+00  0.26096237868E+02  0.00000000000E+00 0. -1.
        -14    1    6    6    0    0 -0.86206339779E+02  0.39236032287E+02  0.15662796535E+02  0.96001679376E+02  0.00000000000E+00 0.  1.
</event>
<event>
12    1  0.8421768E-002  0.1959416E+03  0.7818608E-02  0.1153331E+00
         21   -1    0    0  501  502  0.00000000000E+00  0.00000000000E+00  0.69783662788E+02  0.69783662788E+02  0.00000000000E+00 0. -1.
         21   -1    0    0  502  503 -0.00000000000E+00 -0.00000000000E+00 -0.59677860431E+03  0.59677860431E+03  0.00000000000E+00 0. -1.
         -6    2    1    2    0  503  0.39641259421E+02  0.83188482648E+02 -0.35785006729E+03  0.40771273511E+03  0.17228247334E+03 0.  0.
        -24    2    3    3    0    0  0.50966228532E+02  0.27771592310E+02 -0.32856108746E+03  0.34384395558E+03  0.83111129218E+02 0.  0.
          6    2    1    2  501    0 -0.39641259421E+02 -0.83188482648E+02 -0.16914487424E+03  0.25884953199E+03  0.17292003538E+03 0.  0.
         24    2    5    5    0    0 -0.24391769994E+02  0.11523261992E+02 -0.13025649654E+03  0.15522879362E+03  0.80009246139E+02 0.  0.
          5    1    5    5  501    0 -0.15249489427E+02 -0.94711744640E+02 -0.38888377699E+02  0.10362073837E+03  0.47000000000E+01 0. -1.
        -11    1    6    6    0    0  0.17369182385E+02  0.80912467379E+01 -0.81992563791E+00  0.19178869846E+02  0.00000000000E+00 0.  1.
         12    1    6    6    0    0 -0.41760952379E+02  0.34320152544E+01 -0.12943657090E+03  0.13604992377E+03  0.00000000000E+00 0. -1.
         -5    1    3    3    0  503 -0.11324969111E+02  0.55416890338E+02 -0.29288979821E+02  0.63868779533E+02  0.47000000000E+01 0.  1.
         13    1    4    4    0    0 -0.20272266881E+02  0.21783577248E+02 -0.10451456632E+03  0.10866822726E+03  0.00000000000E+00 0. -1.
        -14    1    4    4    0    0  0.71238495413E+02  0.59880150618E+01 -0.22404652114E+03  0.23517572831E+03  0.00000000000E+00 0.  1.
</event>
<event>
12    1  0.8421768E-002  0.2138861E+03  0.7818608E-02  0.1138904E+00
         21   -1    0    0  501  502  0.00000000000E+00  0.00000000000E+00  0.12253029578E+04  0.12253029578E+04  0.00000000000E+00 0. -1.
         21   -1    0    0  502  503 -0.00000000000E+00 -0.00000000000E+00 -0.39557793743E+02  0.39557793743E+02  0.00000000000E+00 0. -1.
         -6    2    1    2    0  503  0.51351819269E+02 -0.11257930797E+03  0.43446720799E+03  0.48426131953E+03  0.17445962526E+03 0.  0.
        -24    2    3    3    0    0 -0.19635218401E+02 -0.11162799134E+03  0.23210011140E+03  0.26975118852E+03  0.77774621464E+02 0.  0.
          6    2    1    2  501    0 -0.51351819269E+02  0.11257930797E+03  0.75127795608E+03  0.78059943203E+03  0.17206334901E+03 0.  0.
         24    2    5    5    0    0 -0.50443669314E+02  0.30207050041E+02  0.19804151819E+03  0.22124385655E+03  0.79191991316E+02 0.  0.
          5    1    5    5  501    0 -0.90814995457E+00  0.82372257927E+02  0.55323643789E+03  0.55935557548E+03  0.47000000000E+01 0. -1.
        -13    1    6    6    0    0  0.17958538272E+02 -0.78976784329E+01  0.29851815990E+02  0.35721328914E+02  0.00000000000E+00 0.  1.
         14    1    6    6    0    0 -0.68402207586E+02  0.38104728473E+02  0.16818970220E+03  0.18552252763E+03  0.00000000000E+00 0. -1.
         -5    1    3    3    0  503  0.70987037669E+02 -0.95131662423E+00  0.20236709660E+03  0.21451013101E+03  0.47000000000E+01 0.  1.
         13    1    4    4    0    0 -0.31794933411E+02 -0.67365525173E+02  0.20085568235E+03  0.21422426778E+03  0.00000000000E+00 0. -1.
        -14    1    4    4    0    0  0.12159715010E+02 -0.44262466170E+02  0.31244429048E+02  0.55526920743E+02  0.00000000000E+00 0.  1.
</event>
<event>
12    1  0.8421768E-002  0.1984951E+03  0.7818608E-02  0.1151320E+00
         21   -1    0    0  501  502  0.00000000000E+00  0.00000000000E+00  0.12794432948E+03  0.12794432948E+03  0.00000000000E+00 0.  1.
         21   -1    0    0  502  503 -0.00000000000E+00 -0.00000000000E+00 -0.35655879119E+03  0.35655879119E+03  0.00000000000E+00 0.  1.
         -6    2    1    2    0  503  0.34495234979E+02 -0.92218864775E+02 -0.20541086211E+03  0.28465639211E+03  0.17070852070E+03 0.  0.
        -24    2    3    3    0    0 -0.30554496022E+02 -0.74143918176E+02 -0.69070148417E+02  0.13244255763E+03  0.79620649576E+02 0.  0.
          6    2    1    2  501    0 -0.34495234979E+02  0.92218864775E+02 -0.23203599609E+02  0.19984672857E+03  0.17235448247E+03 0.  0.
         24    2    5    5    0    0 -0.19796529733E+02  0.94220135226E+02  0.42020559435E+02  0.13279199016E+03  0.81232067345E+02 0.  0.
          5    1    5    5  501    0 -0.14698705246E+02 -0.20012704512E+01 -0.65224159044E+02  0.67054738403E+02  0.47000000000E+01 0. -1.
        -13    1    6    6    0    0 -0.17961891574E+02  0.10077204181E+02 -0.19639886371E+02  0.28458825164E+02  0.00000000000E+00 0.  1.
         14    1    6    6    0    0 -0.18346381584E+01  0.84142931044E+02  0.61660445806E+02  0.10433316500E+03  0.00000000000E+00 0. -1.
         -5    1    3    3    0  503  0.65049731001E+02 -0.18074946598E+02 -0.13634071369E+03  0.15221383448E+03  0.47000000000E+01 0.  1.
         13    1    4    4    0    0 -0.37072770464E+02  0.94927616856E+00 -0.16775581769E+02  0.40702722008E+02  0.00000000000E+00 0. -1.
        -14    1    4    4    0    0  0.65182744423E+01 -0.75093194345E+02 -0.52294566648E+02  0.91739835620E+02  0.00000000000E+00 0.  1.
</event>
<event>
12    1  0.8421768E-002  0.1826305E+03  0.7818608E-02  0.1165592E+00
         21   -1    0    0  501  502  0.00000000000E+00  0.00000000000E+00  0.59584282996E+03  0.59584282996E+03  0.00000000000E+00 0. -1.
         21   -1    0    0  502  503 -0.00000000000E+00 -0.00000000000E+00 -0.58900197925E+02  0.58900197925E+02  0.00000000000E+00 0. -1.
         -6    2    1    2    0  503  0.48848194525E+01 -0.62341657329E+02  0.19163431410E+03  0.26472174092E+03  0.17159121794E+03 0.  0.
        -24    2    3    3    0    0  0.59479376314E+02 -0.46696604058E+02  0.17264639330E+03  0.20465540703E+03  0.79741391182E+02 0.  0.
          6    2    1    2  501    0 -0.48848194525E+01  0.62341657329E+02  0.34530831793E+03  0.39002128697E+03  0.17020113441E+03 0.  0.
         24    2    5    5    0    0 -0.18949814945E+02  0.51131125210E+02  0.35564572813E+03  0.36875036366E+03  0.80743168834E+02 0.  0.
          5    1    5    5  501    0  0.14064995492E+02  0.11210532118E+02 -0.10337410199E+02  0.21270923304E+02  0.47000000000E+01 0. -1.
        -13    1    6    6    0    0  0.14433630123E+02  0.46296688534E+02  0.10279646719E+03  0.11366101669E+03  0.00000000000E+00 0.  1.
         14    1    6    6    0    0 -0.33383445068E+02  0.48344366761E+01  0.25284926094E+03  0.25508934698E+03  0.00000000000E+00 0. -1.
         -5    1    3    3    0  503 -0.54594556861E+02 -0.15645053271E+02  0.18987920801E+02  0.60066333891E+02  0.47000000000E+01 0.  1.
         11    1    4    4    0    0  0.22237225530E+02  0.12417042191E+02  0.10262916780E+03  0.10574224898E+03  0.00000000000E+00 0. -1.
        -12    1    4    4    0    0  0.37242150784E+02 -0.59113646249E+02  0.70017225505E+02  0.98913158049E+02  0.00000000000E+00 0.  1.
</event>
<event>
12    1  0.8421768E-002  0.1796661E+03  0.7818608E-02  0.1168307E+00
         21   -1    0    0  503  502  0.00000000000E+00  0.00000000000E+00  0.14644669002E+04  0.14644669002E+04  0.00000000000E+00 0.  1.
         21   -1    0    0  501  503 -0.00000000000E+00 -0.00000000000E+00 -0.32115738686E+02  0.32115738686E+02  0.00000000000E+00 0.  1.
          6    2    1    2  501    0  0.45018967997E+02 -0.19914258720E+02  0.29621257503E+03  0.34644162236E+03  0.17279069105E+03 0.  0.
         24    2    3    3    0    0  0.51754567637E+02  0.13648557485E+02  0.29643112477E+03  0.31188777021E+03  0.80856360804E+02 0.  0.
         -6    2    1    2    0  502 -0.45018967997E+02  0.19914258720E+02  0.11361385864E+04  0.11501410165E+04  0.17201797878E+03 0.  0.
        -24    2    5    5    0    0 -0.31917620061E+02  0.66895356416E+02  0.71362991387E+03  0.72480052082E+03  0.10283198834E+03 0.  0.
          5    1    3    3  501    0 -0.67355996402E+01 -0.33562816205E+02 -0.21854973862E+00  0.34553852146E+02  0.47000000000E+01 0. -1.
        -13    1    4    4    0    0 -0.14757961956E+02  0.17978429375E+02  0.13892923863E+03  0.14086289330E+03  0.00000000000E+00 0.  1.
         14    1    4    4    0    0  0.66512529593E+02 -0.43298718900E+01  0.15750188614E+03  0.17102487691E+03  0.00000000000E+00 0. -1.
         -5    1    5    5    0  502 -0.13101347935E+02 -0.46981097695E+02  0.42250867257E+03  0.42534049566E+03  0.47000000000E+01 0.  1.
         11    1    6    6    0    0 -0.29101166751E+02  0.62289347365E+02  0.71571751450E+03  0.71901210091E+03  0.00000000000E+00 0. -1.
        -12    1    6    6    0    0 -0.28164533099E+01  0.46060090508E+01 -0.20876006260E+01  0.57884199050E+01  0.00000000000E+00 0.  1.
</event>
<event>
12    1  0.8421768E-002  0.1868363E+03  0.7818608E-02  0.1161593E+00
         21   -1    0    0  503  502  0.00000000000E+00  0.00000000000E+00  0.56369157079E+03  0.56369157079E+03  0.00000000000E+00 0.  1.
         21   -1    0    0  501  503 -0.00000000000E+00 -0.00000000000E+00 -0.74026765802E+02  0.74026765802E+02  0.00000000000E+00 0.  1.
          6    2    1    2  501    0  0.55419613353E+02  0.42751439552E+02  0.11346677591E+03  0.21767935697E+03  0.17207723292E+03 0.  0.
         24    2    3    3    0    0  0.53547045871E+02 -0.26179194650E+02  0.19065715958E+02  0.10068111356E+03  0.78870455490E+02 0.  0.
         -6    2    1    2    0  502 -0.55419613353E+02 -0.42751439552E+02  0.37619802907E+03  0.42003897962E+03  0.17323039049E+03 0.  0.
        -24    2    5    5    0    0  0.36193252053E+02 -0.10932718798E+02  0.18243779133E+03  0.20331226731E+03  0.81380922197E+02 0.  0.
          5    1    3    3  501    0  0.18725674819E+01  0.68930634202E+02  0.94401059953E+02  0.11699824341E+03  0.47000000000E+01 0. -1.
        -13    1    4    4    0    0  0.68851460710E+02 -0.19101003622E+01  0.20762622920E+02  0.71939270471E+02  0.00000000000E+00 0.  1.
         14    1    4    4    0    0 -0.15304414839E+02 -0.24269094287E+02 -0.16969069613E+01  0.28741843092E+02  0.00000000000E+00 0. -1.
         -5    1    5    5    0  502 -0.91612865406E+02 -0.31818720755E+02  0.19376023774E+03  0.21672671231E+03  0.47000000000E+01 0.  1.
         13    1    6    6    0    0 -0.56446164920E+01 -0.29514891153E+02  0.24191782168E+02  0.38577620709E+02  0.00000000000E+00 0. -1.
        -14    1    6    6    0    0  0.41837868545E+02  0.18582172355E+02  0.15824600917E+03  0.16473464660E+03  0.00000000000E+00 0.  1.
</event>
<event>
12    1  0.8421768E-002  0.2000930E+03  0.7818608E-02  0.1149915E+00
         21   -1    0    0  503  502  0.00000000000E+00  0.00000000000E+00  0.58403829771E+03  0.58403829771E+03  0.00000000000E+00 0. -1.
         21   -1    0    0  501  503 -0.00000000000E+00 -0.00000000000E+00 -0.70872644462E+02  0.70872644462E+02  0.00000000000E+00 0. -1.
          6    2    1    2  501    0 -0.10104030128E+02 -0.99841385512E+02  0.19304193894E+03  0.27803312217E+03  0.17310930982E+03 0.  0.
         24    2    3    3    0    0 -0.55962456255E+02 -0.71405566047E+02  0.18820617571E+03  0.22365421374E+03  0.79806587296E+02 0.  0.
         -6    2    1    2    0  502  0.10104030128E+02  0.99841385512E+02  0.32012371431E+03  0.37687782001E+03  0.17171868001E+03 0.  0.
        -24    2    5    5    0    0 -0.47520932505E+02  0.80270174056E+02  0.27197882796E+03  0.29913665512E+03  0.82514942343E+02 0.  0.
          5    1    3    3  501    0  0.45858426127E+02 -0.28435819466E+02  0.48357632306E+01  0.54378908425E+02  0.47000000000E+01 0. -1.
        -11    1    4    4    0    0 -0.14655196583E+02 -0.22231009615E+01 -0.39057222428E+01  0.15328784395E+02  0.00000000000E+00 0.  1.
         12    1    4    4    0    0 -0.41307259671E+02 -0.69182465085E+02  0.19211189796E+03  0.20832542935E+03  0.00000000000E+00 0. -1.
         -5    1    5    5    0  502  0.57624962633E+02  0.19571211456E+02  0.48144886348E+02  0.77741164886E+02  0.47000000000E+01 0.  1.
         13    1    6    6    0    0  0.16322704487E+02  0.52390986900E+02  0.11991790827E+03  0.13187702951E+03  0.00000000000E+00 0. -1.
        -14    1    6    6    0    0 -0.63843636992E+02  0.27879187156E+02  0.15206091969E+03  0.16725962561E+03  0.00000000000E+00 0.  1.
</event>
<event>
12    1  0.8421768E-002  0.1759029E+03  0.7818608E-02  0.1172028E+00
         21   -1    0    0  501  502  0.00000000000E+00  0.00000000000E+00  0.48668637994E+03  0.48668637994E+03  0.00000000000E+00 0. -1.
         21   -1    0    0  502  503 -0.00000000000E+00 -0.00000000000E+00 -0.63855102388E+02  0.63855102388E+02  0.00000000000E+00 0.  1.
         -6    2    1    2    0  503  0.25350902306E+02 -0.25061149737E+02  0.18594582889E+03  0.25596423577E+03  0.17225303839E+03 0.  0.
        -24    2    3    3    0    0  0.75609649633E+02  0.14788175364E+02  0.11027474460E+03  0.15665606193E+03  0.80281337766E+02 0.  0.
          6    2    1    2  501    0 -0.25350902306E+02  0.25061149737E+02  0.23688544867E+03  0.29457724657E+03  0.17143601993E+03 0.  0.
         24    2    5    5    0    0 -0.33925215557E+02  0.35034188083E+02  0.25515911986E+03  0.27157730308E+03  0.79181693064E+02 0.  0.
          5    1    5    5  501    0  0.85743132513E+01 -0.99730383460E+01 -0.18273671190E+02  0.22999943486E+02  0.47000000000E+01 0. -1.
        -11    1    6    6    0    0  0.67493849481E+01  0.29394909083E+02  0.29416012793E+02  0.42129760096E+02  0.00000000000E+00 0.  1.
         12    1    6    6    0    0 -0.40674600505E+02  0.56392790007E+01  0.22574310707E+03  0.22944754298E+03  0.00000000000E+00 0. -1.
         -5    1    3    3    0  503 -0.50258747327E+02 -0.39849325101E+02  0.75671084287E+02  0.99308173839E+02  0.47000000000E+01 0.  1.
         11    1    4    4    0    0 -0.62100029299E+00  0.27412680543E+01  0.69148230974E+02  0.69205332445E+02  0.00000000000E+00 0. -1.
        -12    1    4    4    0    0  0.76230649926E+02  0.12046907310E+02  0.41126513626E+02  0.87450729482E+02  0.00000000000E+00 0.  1.
</event>
<event>
12    1  0.8421768E-002  0.2120462E+03  0.7818608E-02  0.1139975E+00
         21   -1    0    0  501  502  0.00000000000E+00  0.00000000000E+00  0.26946821586E+03  0.26946821586E+03  0.00000000000E+00 0.  1.
         21   -1    0    0  502  503 -0.00000000000E+00 -0.00000000000E+00 -0.26754074119E+03  0.26754074119E+03  0.00000000000E+00 0.  1.
         -6    2    1    2    0  503  0.10221018202E+03 -0.69017500783E+02  0.16574025481E+03  0.26905702295E+03  0.17237027821E+03 0.  0.
        -24    2    3    3    0    0  0.11419106130E+03 -0.39960004051E+02  0.17982756152E+03  0.23429466119E+03  0.88992336609E+02 0.  0.
          6    2    1    2  501    0 -0.10221018202E+03  0.69017500783E+02 -0.16381278013E+03  0.26795193410E+03  0.17249137756E+03 0.  0.
         24    2    5    5    0    0 -0.11932474312E+03  0.36637532138E+02 -0.72841828828E+02  0.16977263612E+03  0.89084863291E+02 0.  0.
          5    1    5    5  501    0  0.17114561100E+02  0.32379968645E+02 -0.90970951301E+02  0.98179297979E+02  0.47000000000E+01 0. -1.
        -11    1    6    6    0    0 -0.48566860741E+02  0.47349715879E+02 -0.70989157947E+02  0.98184500315E+02  0.00000000000E+00 0.  1.
         12    1    6    6    0    0 -0.70757882378E+02 -0.10712183741E+02 -0.18526708815E+01  0.71588135809E+02  0.00000000000E+00 0. -1.
         -5    1    3    3    0  503 -0.11980879285E+02 -0.29057496732E+02 -0.14087306709E+02  0.34762361759E+02  0.47000000000E+01 0.  1.
         11    1    4    4    0    0  0.21148759698E+02  0.24838838258E+02  0.66052028174E+02  0.73668910327E+02  0.00000000000E+00 0. -1.
        -12    1    4    4    0    0  0.93042301607E+02 -0.64798842309E+02  0.11377553334E+03  0.16062575086E+03  0.00000000000E+00 0.  1.
</event>
<event>
12    1  0.8421768E-002  0.2029912E+03  0.7818608E-02  0.1147645E+00
         21   -1    0    0  503  502  0.00000000000E+00  0.00000000000E+00  0.54084580773E+03  0.54084580773E+03  0.00000000000E+00 0.  1.
         21   -1    0    0  501  503 -0.00000000000E+00 -0.00000000000E+00 -0.76149525400E+02  0.76149525400E+02  0.00000000000E+00 0.  1.
          6    2    1    2  501    0 -0.32465039611E+02  0.10391452792E+03  0.20405908809E+03  0.28782898663E+03  0.17132777417E+03 0.  0.
         24    2    3    3    0    0 -0.33828462750E+02  0.83825005764E+02  0.47138987714E+02  0.12955246998E+03  0.79942240592E+02 0.  0.
         -6    2    1    2    0  502  0.32465039611E+02 -0.10391452792E+03  0.26063719424E+03  0.32916634650E+03  0.16901635641E+03 0.  0.
        -24    2    5    5    0    0 -0.36534990972E+02 -0.15188999000E+02  0.10447852753E+03  0.13670636912E+03  0.78786784346E+02 0.  0.
          5    1    3    3  501    0  0.13634231388E+01  0.20089522159E+02  0.15692010037E+03  0.15827651665E+03  0.47000000000E+01 0. -1.
        -13    1    4    4    0    0 -0.42235028824E+02  0.95158357388E+02  0.49444069307E+02  0.11525461652E+03  0.00000000000E+00 0.  1.
         14    1    4    4    0    0  0.84065660743E+01 -0.11333351624E+02 -0.23050815922E+01  0.14297853452E+02  0.00000000000E+00 0. -1.
         -5    1    5    5    0  502  0.69000030583E+02 -0.88725528923E+02  0.15615866672E+03  0.19245997738E+03  0.47000000000E+01 0.  1.
         11    1    6    6    0    0 -0.45114314728E+01 -0.13338939442E+02 -0.10353806971E+02  0.17478033018E+02  0.00000000000E+00 0. -1.
        -12    1    6    6    0    0 -0.32023559499E+02 -0.18500595572E+01  0.11483233450E+03  0.11922833610E+03  0.00000000000E+00 0.  1.
</event>
<event>
12    1  0.8421768E-002  0.1908885E+03  0.7818608E-02  0.1157852E+00
         21   -1    0    0  501  502  0.00000000000E+00  0.00000000000E+00  0.89568257527E+02  0.89568257527E+02  0.00000000000E+00 0.  1.
         21   -1    0    0  502  503 -0.00000000000E+00 -0.00000000000E+00 -0.82723409346E+03  0.82723409346E+03  0.00000000000E+00 0.  1.
         -6    2    1    2    0  503 -0.78023735105E+02  0.24222721566E+02 -0.69591980262E+03  0.72140241666E+03  0.17158855325E+03 0.  0.
        -24    2    3    3    0    0  0.73733171935E+01 -0.26521283901E+02 -0.22543661595E+03  0.24052391894E+03  0.79198127911E+02 0.  0.
          6    2    1    2  501    0  0.78023735105E+02 -0.24222721566E+02 -0.41746033309E+02  0.19539993432E+03  0.17252234509E+03 0.  0.
         24    2    5    5    0    0  0.11153861151E+02 -0.71723199125E+02 -0.13159094609E+02  0.10841040349E+03  0.79441978209E+02 0.  0.
          5    1    5    5  501    0  0.66869873954E+02  0.47500477559E+02 -0.28586938700E+02  0.86989530836E+02  0.47000000000E+01 0. -1.
        -11    1    6    6    0    0  0.17959215672E+02  0.82502265012E+01  0.13388356964E+02  0.23871484392E+02  0.00000000000E+00 0.  1.
         12    1    6    6    0    0 -0.68053545206E+01 -0.79973425626E+02 -0.26547451574E+02  0.84538919094E+02  0.00000000000E+00 0. -1.
         -5    1    3    3    0  503 -0.85397052298E+02  0.50744005467E+02 -0.47048318668E+03  0.48087849773E+03  0.47000000000E+01 0.  1.
         13    1    4    4    0    0  0.37044552946E+02  0.83365946278E+01 -0.10803950561E+03  0.11451782606E+03  0.00000000000E+00 0. -1.
        -14    1    4    4    0    0 -0.29671235752E+02 -0.34857878529E+02 -0.11739711034E+03  0.12600609288E+03  0.00000000000E+00 0.  1.
</event>
<event>
12    1  0.8421768E-002  0.1886342E+03  0.7818608E-02  0.1159876E+00
         21   -1    0    0  501  502  0.00000000000E+00  0.00000000000E+00  0.20760669279E+03  0.20760669279E+03  0.00000000000E+00 0.  1.
         21   -1    0    0  502  503 -0.00000000000E+00 -0.00000000000E+00 -0.22473208500E+03  0.22473208500E+03  0.00000000000E+00 0.  1.
         -6    2    1    2    0  503 -0.48280804492E+01 -0.74595193277E+02 -0.11458034843E+03  0.22070685747E+03  0.17319095666E+03 0.  0.
        -24    2    3    3    0    0  0.56936736689E+02 -0.27814379739E+02 -0.29659112326E+02  0.10565450638E+03  0.79169312668E+02 0.  0.
          6    2    1    2  501    0  0.48280804492E+01  0.74595193277E+02  0.97454956217E+02  0.21163192031E+03  0.17234514204E+03 0.  0.
         24    2    5    5    0    0 -0.46245728536E+01  0.47865487430E+02  0.13527416259E+03  0.16413231821E+03  0.79547641413E+02 0.  0.
          5    1    5    5  501    0  0.94526533028E+01  0.26729705847E+02 -0.37819206376E+02  0.47499602104E+02  0.47000000000E+01 0. -1.
        -13    1    6    6    0    0 -0.16262266053E+02 -0.18497468767E+01 -0.30824742441E+01  0.16654864399E+02  0.00000000000E+00 0.  1.
         14    1    6    6    0    0  0.11637693200E+02  0.49715234307E+02  0.13835663684E+03  0.14747745381E+03  0.00000000000E+00 0. -1.
         -5    1    3    3    0  503 -0.61764817139E+02 -0.46780813538E+02 -0.84921236102E+02  0.11505235110E+03  0.47000000000E+01 0.  1.
         11    1    4    4    0    0 -0.14581123376E+02 -0.22463340380E+02  0.28126005249E+01  0.26928080913E+02  0.00000000000E+00 0. -1.
        -12    1    4    4    0    0  0.71517860066E+02 -0.53510393588E+01 -0.32471712851E+02  0.78726425462E+02  0.00000000000E+00 0.  1.
</event>
<event>
12    1  0.8421768E-002  0.2790494E+03  0.7818608E-02  0.1097484E+00
         21   -1    0    0  503  502  0.00000000000E+00  0.00000000000E+00  0.28439904725E+03  0.28439904725E+03  0.00000000000E+00 0. -1.
         21   -1    0    0  501  503 -0.00000000000E+00 -0.00000000000E+00 -0.28420210600E+03  0.28420210600E+03  0.00000000000E+00 0.  1.
          6    2    1    2  501    0  0.20273879601E+03  0.46367556365E+02  0.74151316951E+02  0.27991821859E+03  0.17205470527E+03 0.  0.
         24    2    3    3    0    0  0.21845307038E+03  0.15718617147E+02  0.76702861657E+02  0.24506285638E+03  0.78763289110E+02 0.  0.
         -6    2    1    2    0  502 -0.20273879601E+03 -0.46367556365E+02 -0.73954375699E+02  0.28868293466E+03  0.18605272745E+03 0.  0.
        -24    2    5    5    0    0 -0.61927852365E+02 -0.21412884399E+02  0.34408123729E+02  0.10919761832E+03  0.80290910758E+02 0.  0.
          5    1    3    3  501    0 -0.15714274369E+02  0.30648939219E+02 -0.25515447063E+01  0.34855362207E+02  0.47000000000E+01 0. -1.
        -13    1    4    4    0    0 -0.33224400001E+00  0.10216257908E+02 -0.50957908993E+01  0.11421444594E+02  0.00000000000E+00 0.  1.
         14    1    4    4    0    0  0.21878531438E+03  0.55023592388E+01  0.81798652556E+02  0.23364141179E+03  0.00000000000E+00 0. -1.
         -5    1    5    5    0  502 -0.14081094364E+03 -0.24954671966E+02 -0.10836249943E+03  0.17948531635E+03  0.47000000000E+01 0.  1.
         11    1    6    6    0    0  0.65176613865E+01 -0.28710199924E+02 -0.50289825225E+01  0.29867141725E+02  0.00000000000E+00 0. -1.
        -12    1    6    6    0    0 -0.68445513752E+02  0.72973155249E+01  0.39437106251E+02  0.79330476590E+02  0.00000000000E+00 0.  1.
</event>
<event>
12    1  0.8421768E-002  0.2161294E+03  0.7818608E-02  0.1137158E+00
         21   -1    0    0  503  502  0.00000000000E+00  0.00000000000E+00  0.26085492597E+02  0.26085492597E+02  0.00000000000E+00 0. -1.
         21   -1    0    0  501  503 -0.00000000000E+00 -0.00000000000E+00 -0.20952281459E+04  0.20952281459E+04  0.00000000000E+00 0. -1.
          6    2    1    2  501    0 -0.12806581431E+03  0.19721354464E+01 -0.62393615215E+03  0.66030920072E+03  0.17408956454E+03 0.  0.
         24    2    3    3    0    0 -0.24145444625E+02 -0.49501033597E+02 -0.22622554106E+03  0.24600888628E+03  0.79429351504E+02 0.  0.
         -6    2    1    2    0  502  0.12806581431E+03 -0.19721354464E+01 -0.14452065011E+04  0.14610044377E+04  0.17177716411E+03 0.  0.
        -24    2    5    5    0    0  0.11687339235E+03 -0.58793411481E+02 -0.93987799608E+03  0.95234648221E+03  0.80480554119E+02 0.  0.
          5    1    3    3  501    0 -0.10392036969E+03  0.51473169043E+02 -0.39771061109E+03  0.41430031444E+03  0.47000000000E+01 0. -1.
        -11    1    4    4    0    0  0.13634477037E+02  0.67382953880E+01 -0.73582067357E+01  0.16895170765E+02  0.00000000000E+00 0.  1.
         12    1    4    4    0    0 -0.37779921663E+02 -0.56239328985E+02 -0.21886733432E+03  0.22911371552E+03  0.00000000000E+00 0. -1.
         -5    1    5    5    0  502  0.11192421965E+02  0.56821276034E+02 -0.50532850504E+03  0.50865795554E+03  0.47000000000E+01 0.  1.
         13    1    6    6    0    0  0.64978117623E+02  0.10485789250E+02 -0.46636615344E+03  0.47098778819E+03  0.00000000000E+00 0. -1.
        -14    1    6    6    0    0  0.51895274726E+02 -0.69279200731E+02 -0.47351184263E+03  0.48135869402E+03  0.00000000000E+00 0.  1.
</event>
<event>
12    1  0.8421768E-002  0.1715432E+03  0.7818608E-02  0.1176582E+00
         21   -1    0    0  501  502  0.00000000000E+00  0.00000000000E+00  0.19916278359E+04  0.19916278359E+04  0.00000000000E+00 0.  1.
         21   -1    0    0  502  503 -0.00000000000E+00 -0.00000000000E+00 -0.15305454613E+02  0.15305454613E+02  0.00000000000E+00 0.  1.
         -6    2    1    2    0  503  0.14766507708E+02 -0.10012902752E+02  0.77921852710E+03  0.79760094834E+03  0.16931465341E+03 0.  0.
        -24    2    3    3    0    0 -0.12690404793E+02  0.30289129480E+02  0.69606108089E+03  0.70108469735E+03  0.77072996535E+02 0.  0.
          6    2    1    2  501    0 -0.14766507708E+02  0.10012902752E+02  0.11971038542E+04  0.12093323422E+04  0.17061291898E+03 0.  0.
         24    2    5    5    0    0  0.50411784134E+02 -0.23199414002E+02  0.61896320624E+03  0.62656311981E+03  0.79914527092E+02 0.  0.
          5    1    5    5  501    0 -0.65178291841E+02  0.33212316754E+02  0.57814064799E+03  0.58276922240E+03  0.47000000000E+01 0. -1.
        -13    1    6    6    0    0  0.19208321426E+02  0.17193821882E+02  0.43167925196E+03  0.43244833645E+03  0.00000000000E+00 0.  1.
         14    1    6    6    0    0  0.31203462708E+02 -0.40393235885E+02  0.18728395428E+03  0.19411478336E+03  0.00000000000E+00 0. -1.
         -5    1    3    3    0  503  0.27456912501E+02 -0.40302032232E+02  0.83157446204E+02  0.96516250990E+02  0.47000000000E+01 0.  1.
         11    1    4    4    0    0  0.58212495615E+01  0.51316463900E+02  0.33723758401E+03  0.34116924609E+03  0.00000000000E+00 0. -1.
        -12    1    4    4    0    0 -0.18511654354E+02 -0.21027334420E+02  0.35882349689E+03  0.35991545126E+03  0.00000000000E+00 0.  1.
</event>
<event>
12    1  0.8421768E-002  0.2513000E+03  0.7818608E-02  0.1112698E+00
         21   -1    0    0  501  502  0.00000000000E+00  0.00000000000E+00  0.36410852670E+03  0.36410852670E+03  0.00000000000E+00 0. -1.
         21   -1    0    0  502  503 -0.00000000000E+00 -0.00000000000E+00 -0.29985204417E+03  0.29985204417E+03  0.00000000000E+00 0.  1.
         -6    2    1    2    0  503  0.11501909399E+03  0.14293638268E+03 -0.18416139294E+03  0.31155593010E+03  0.17173082849E+03 0.  0.
        -24    2    3    3    0    0  0.35774498743E+02  0.14788220464E+03 -0.12860942169E+03  0.21453903187E+03  0.79609369040E+02 0.  0.
          6    2    1    2  501    0 -0.11501909399E+03 -0.14293638268E+03  0.24841787547E+03  0.35240464076E+03  0.16975685112E+03 0.  0.
         24    2    5    5    0    0 -0.64269350675E+02 -0.15188976832E+03  0.23665010371E+03  0.29933610005E+03  0.79986111615E+02 0.  0.
          5    1    5    5  501    0 -0.50749743316E+02  0.89533856438E+01  0.11767771768E+02  0.53068540714E+02  0.47000000000E+01 0. -1.
        -13    1    6    6    0    0  0.16286281597E+02 -0.54660328054E+02  0.73785960778E+02  0.93259650649E+02  0.00000000000E+00 0.  1.
         14    1    6    6    0    0 -0.80555632272E+02 -0.97229440270E+02  0.16286414293E+03  0.20607644940E+03  0.00000000000E+00 0. -1.
         -5    1    3    3    0  503  0.79244595248E+02 -0.49458219648E+01 -0.55551971254E+02  0.97016898225E+02  0.47000000000E+01 0.  1.
         13    1    4    4    0    0 -0.17216149870E+02  0.82787624207E+02 -0.43852662378E+02  0.95253569675E+02  0.00000000000E+00 0. -1.
        -14    1    4    4    0    0  0.52990648614E+02  0.65094580438E+02 -0.84756759313E+02  0.11928546220E+03  0.00000000000E+00 0.  1.
</event>
<event>
12    1  0.8421768E-002  0.2616940E+03  0.7818608E-02  0.1106204E+00
         21   -1    0    0  501  502  0.00000000000E+00  0.00000000000E+00  0.14968690808E+03  0.14968690808E+03  0.00000000000E+00 0. -1.
         21   -1    0    0  502  503 -0.00000000000E+00 -0.00000000000E+00 -0.58314500933E+03  0.58314500933E+03  0.00000000000E+00 0.  1.
         -6    2    1    2    0  503 -0.18227139895E+03 -0.70668403653E+02 -0.46230613452E+02  0.26574618616E+03  0.17397379023E+03 0.  0.
        -24    2    3    3    0    0 -0.12454290991E+03 -0.17515792400E+02  0.34938390263E+02  0.15274939110E+03  0.79334393388E+02 0.  0.
          6    2    1    2  501    0  0.18227139895E+03  0.70668403653E+02 -0.38722748780E+03  0.46708573124E+03  0.17322547985E+03 0.  0.
         24    2    5    5    0    0  0.16037826625E+03 -0.16249798236E+01 -0.31989271317E+03  0.36578566002E+03  0.75788998515E+02 0.  0.
          5    1    5    5  501    0  0.21893132701E+02  0.72293383476E+02 -0.67334774638E+02  0.10130007122E+03  0.47000000000E+01 0. -1.
        -13    1    6    6    0    0  0.75663898505E+02 -0.31832357083E+02 -0.19767875942E+03  0.21404489347E+03  0.00000000000E+00 0.  1.
         14    1    6    6    0    0  0.84714367749E+02  0.30207377259E+02 -0.12221395374E+03  0.15174076655E+03  0.00000000000E+00 0. -1.
         -5    1    3    3    0  503 -0.57728489041E+02 -0.53152611252E+02 -0.81169003715E+02  0.11299679506E+03  0.47000000000E+01 0.  1.
         11    1    4    4    0    0 -0.12277134625E+03 -0.36982689431E+02  0.24328433705E+02  0.13050821991E+03  0.00000000000E+00 0. -1.
        -12    1    4    4    0    0 -0.17715636650E+01  0.19466897030E+02  0.10609956558E+02  0.22241171192E+02  0.00000000000E+00 0.  1.
</event>
<event>
12    1  0.8421768E-002  0.1841183E+03  0.7818608E-02  0.1164404E+00
         21   -1    0    0  501  502  0.00000000000E+00  0.00000000000E+00  0.22830078631E+02  0.22830078631E+02  0.00000000000E+00 0. -1.
         21   -1    0    0  502  503 -0.00000000000E+00 -0.00000000000E+00 -0.19988095716E+04  0.19988095716E+04  0.00000000000E+00 0. -1.
         -6    2    1    2    0  503  0.57766742972E+02 -0.22277633550E+02 -0.15049997645E+04  0.15159505803E+04  0.17102216529E+03 0.  0.
        -24    2    3    3    0    0 -0.91988799784E+01 -0.62269673509E+02 -0.72720080780E+03  0.73423639656E+03  0.79498047366E+02 0.  0.
          6    2    1    2  501    0 -0.57766742972E+02  0.22277633550E+02 -0.47097972841E+03  0.50568906994E+03  0.17339619756E+03 0.  0.
         24    2    5    5    0    0  0.10166883012E+02  0.30579914936E+02 -0.39072711437E+03  0.40011219048E+03  0.79897373924E+02 0.  0.
          5    1    5    5  501    0 -0.67933625984E+02 -0.83022813861E+01 -0.80252614046E+02  0.10557687946E+03  0.47000000000E+01 0. -1.
        -13    1    6    6    0    0  0.92197435839E+01  0.57731877177E+02 -0.28634293540E+03  0.29225032073E+03  0.00000000000E+00 0.  1.
         14    1    6    6    0    0  0.94713942792E+00 -0.27151962241E+02 -0.10438417897E+03  0.10786186975E+03  0.00000000000E+00 0. -1.
         -5    1    3    3    0  503  0.66965622950E+02  0.39992039959E+02 -0.77779895672E+03  0.78171418369E+03  0.47000000000E+01 0.  1.
         11    1    4    4    0    0  0.28326540971E+02 -0.50117397154E+02 -0.32067317021E+03  0.32579967543E+03  0.00000000000E+00 0. -1.
        -12    1    4    4    0    0 -0.37525420949E+02 -0.12152276354E+02 -0.40652763760E+03  0.40843672113E+03  0.00000000000E+00 0.  1.
</event>
<event>
12    1  0.8421768E-002  0.2183564E+03  0.7818608E-02  0.1135144E+00
         21   -1    0    0  503  502  0.00000000000E+00  0.00000000000E+00  0.31230941750E+03  0.31230941750E+03  0.00000000000E+00 0.  1.
         21   -1    0    0  501  503 -0.00000000000E+00 -0.00000000000E+00 -0.16480506197E+03  0.16480506197E+03  0.00000000000E+00 0. -1.
          6    2    1    2  501    0  0.13006441809E+03 -0.32946317431E+02  0.13880596145E+03  0.25874044169E+03  0.17227103223E+03 0.  0.
         24    2    3    3    0    0  0.14918699358E+03 -0.21009313682E+02  0.15500275527E+03  0.23058744749E+03  0.80290513040E+02 0.  0.
         -6    2    1    2    0  502 -0.13006441809E+03  0.32946317431E+02  0.86983940842E+01  0.21837403778E+03  0.17207366339E+03 0.  0.
        -24    2    5    5    0    0 -0.99942029861E+01  0.51506704551E+02  0.12076526411E+02  0.96739970590E+02  0.80373843460E+02 0.  0.
          5    1    3    3  501    0 -0.19122575493E+02 -0.11937003750E+02 -0.16196793823E+02  0.28152994195E+02  0.47000000000E+01 0. -1.
        -11    1    4    4    0    0  0.29314287832E+02  0.88785779937E+01  0.80949698506E+02  0.86550622796E+02  0.00000000000E+00 0.  1.
         12    1    4    4    0    0  0.11987270575E+03 -0.29887891675E+02  0.74053056766E+02  0.14403682469E+03  0.00000000000E+00 0. -1.
         -5    1    5    5    0  502 -0.12007021510E+03 -0.18560387120E+02 -0.33781323268E+01  0.12163406719E+03  0.47000000000E+01 0.  1.
         11    1    6    6    0    0 -0.25591982236E+02 -0.13165309783E+02 -0.15926394267E+01  0.28823799833E+02  0.00000000000E+00 0. -1.
        -12    1    6    6    0    0  0.15597779250E+02  0.64672014334E+02  0.13669165838E+02  0.67916170757E+02  0.00000000000E+00 0.  1.
</event>
<event>
12    1  0.8421768E-002  0.1902065E+03  0.7818608E-02  0.1158589E+00
         21   -1    0    0  503  502  0.00000000000E+00  0.00000000000E+00  0.30040816960E+04  0.30040816960E+04  0.00000000000E+00 0.  1.
         21   -1    0    0  501  503 -0.00000000000E+00 -0.00000000000E+00 -0.25071493206E+02  0.25071493206E+02  0.00000000000E+00 0.  1.
          6    2    1    2  501    0 -0.67243464993E+02  0.35705805122E+02  0.39663156048E+03  0.43988077974E+03  0.17430409494E+03 0.  0.
         24    2    3    3    0    0 -0.41533601281E+01  0.79905285220E+02  0.23838367072E+03  0.26381704132E+03  0.79815736668E+02 0.  0.
         -6    2    1    2    0  502  0.67243464993E+02 -0.35705805122E+02  0.25823786423E+04  0.25892724095E+04  0.17278764429E+03 0.  0.
        -24    2    5    5    0    0 -0.23881933450E+02  0.12669186700E+02  0.13146053896E+04  0.13172994976E+04  0.79748235837E+02 0.  0.
          5    1    3    3  501    0 -0.63090104865E+02 -0.44199480099E+02  0.15824788976E+03  0.17606373842E+03  0.47000000000E+01 0. -1.
        -13    1    4    4    0    0 -0.15336251543E+02  0.59792068013E+02  0.67809369980E+02  0.91697342741E+02  0.00000000000E+00 0.  1.
         14    1    4    4    0    0  0.11182891415E+02  0.20113217207E+02  0.17057430074E+03  0.17211969858E+03  0.00000000000E+00 0. -1.
         -5    1    5    5    0  502  0.91125398444E+02 -0.48374991822E+02  0.12677732527E+04  0.12719729118E+04  0.47000000000E+01 0.  1.
         11    1    6    6    0    0  0.19365052028E+00  0.22425670805E+01 -0.17468056520E+00  0.22576804323E+01  0.00000000000E+00 0. -1.
        -12    1    6    6    0    0 -0.24075583971E+02  0.10426619620E+02  0.13147800702E+04  0.13150418172E+04  0.00000000000E+00 0.  1.
</event>
<event>
12    1  0.8421768E-002  0.1811298E+03  0.7818608E-02  0.1167107E+00
         21   -1    0    0  501  502  0.00000000000E+00  0.00000000000E+00  0.31505877760E+03  0.31505877760E+03  0.00000000000E+00 0. -1.
         21   -1    0    0  502  503 -0.00000000000E+00 -0.00000000000E+00 -0.28693008778E+03  0.28693008778E+03  0.00000000000E+00 0. -1.
         -6    2    1    2    0  503 -0.54701081401E+02  0.21209766149E+01 -0.22677102116E+03  0.29022938839E+03  0.17265947701E+03 0.  0.
        -24    2    3    3    0    0 -0.80012952661E+02 -0.45615256092E+02 -0.18246928286E+03  0.22019958933E+03  0.81914563867E+02 0.  0.
          6    2    1    2  501    0  0.54701081401E+02 -0.21209766149E+01  0.25489971098E+03  0.31175947699E+03  0.17094853608E+03 0.  0.
         24    2    5    5    0    0  0.18260519372E+02  0.34683467001E+02  0.24190471892E+03  0.25815498604E+03  0.81177055450E+02 0.  0.
          5    1    5    5  501    0  0.36440562029E+02 -0.36804443616E+02  0.12994992057E+02  0.53604490945E+02  0.47000000000E+01 0. -1.
        -13    1    6    6    0    0 -0.10487180352E+02  0.53796042391E+02  0.16479922059E+03  0.17367434536E+03  0.00000000000E+00 0.  1.
         14    1    6    6    0    0  0.28747699725E+02 -0.19112575390E+02  0.77105498325E+02  0.84480640679E+02  0.00000000000E+00 0. -1.
         -5    1    3    3    0  503  0.25311871260E+02  0.47736232707E+02 -0.44301738303E+02  0.70029799060E+02  0.47000000000E+01 0.  1.
         13    1    4    4    0    0 -0.82112514828E+02 -0.10183321933E+02 -0.15351659400E+03  0.17439469536E+03  0.00000000000E+00 0. -1.
        -14    1    4    4    0    0  0.20995621671E+01 -0.35431934159E+02 -0.28952688859E+02  0.45804893971E+02  0.00000000000E+00 0.  1.
</event>
<event>
12    1  0.8421768E-002  0.1852293E+03  0.7818608E-02  0.1162867E+00
         21   -1    0    0  501  502  0.00000000000E+00  0.00000000000E+00  0.25196455215E+03  0.25196455215E+03  0.00000000000E+00 0.  1.
         21   -1    0    0  502  503 -0.00000000000E+00 -0.00000000000E+00 -0.21840821473E+03  0.21840821473E+03  0.00000000000E+00 0. -1.
         -6    2    1    2    0  503  0.12685853800E+02 -0.70500303360E+02 -0.12761919320E+03  0.22493678994E+03  0.17081767278E+03 0.  0.
        -24    2    3    3    0    0 -0.34620086047E+02 -0.75358549006E+02 -0.13596157929E+03  0.17642761657E+03  0.75918980356E+02 0.  0.
          6    2    1    2  501    0 -0.12685853800E+02  0.70500303360E+02  0.16117553062E+03  0.24543597695E+03  0.17067525729E+03 0.  0.
         24    2    5    5    0    0 -0.23403890162E+02 -0.28546977958E+01  0.20129661162E+02  0.86024999318E+02  0.80244662595E+02 0.  0.
          5    1    5    5  501    0  0.10718036361E+02  0.73355001156E+02  0.14104586946E+03  0.15941097763E+03  0.47000000000E+01 0. -1.
        -13    1    6    6    0    0  0.46836836521E+01  0.35381713360E+02  0.39986118179E+01  0.35913666331E+02  0.00000000000E+00 0.  1.
         14    1    6    6    0    0 -0.28087573814E+02 -0.38236411156E+02  0.16131049344E+02  0.50111332987E+02  0.00000000000E+00 0. -1.
         -5    1    3    3    0  503  0.47305939847E+02  0.48582456458E+01  0.83423860921E+01  0.48509173373E+02  0.47000000000E+01 0.  1.
         11    1    4    4    0    0 -0.26009509136E+02 -0.90583458706E+02 -0.10692740681E+03  0.14253184866E+03  0.00000000000E+00 0. -1.
        -12    1    4    4    0    0 -0.86105769113E+01  0.15224909700E+02 -0.29034172481E+02  0.33895767903E+02  0.00000000000E+00 0.  1.
</event>
<event>
12    1  0.8421768E-002  0.2929044E+03  0.7818608E-02  0.1089170E+00
         21   -1    0    0  501  502  0.00000000000E+00  0.00000000000E+00  0.11540265018E+03  0.11540265018E+03  0.00000000000E+00 0. -1.
         21   -1    0    0  502  503 -0.00000000000E+00 -0.00000000000E+00 -0.11479604452E+04  0.11479604452E+04  0.00000000000E+00 0.  1.
         -6    2    1    2    0  503 -0.17809577510E+03 -0.15460357315E+03 -0.89566272939E+03  0.94234003486E+03  0.17370275338E+03 0.  0.
        -24    2    3    3    0    0 -0.60752666698E+02 -0.18077613629E+02 -0.20888479444E+03  0.23234372173E+03  0.79580531882E+02 0.  0.
          6    2    1    2  501    0  0.17809577510E+03  0.15460357315E+03 -0.13689506561E+03  0.32102306051E+03  0.16939650660E+03 0.  0.
         24    2    5    5    0    0  0.13747456175E+02  0.37142031590E+02 -0.24056889427E+02  0.89588128649E+02  0.76673175257E+02 0.  0.
          5    1    5    5  501    0  0.16434831893E+03  0.11746154157E+03 -0.11283817618E+03  0.23143493186E+03  0.47000000000E+01 0. -1.
        -13    1    6    6    0    0 -0.83188183000E+01 -0.20071929681E+02  0.40999798874E+01  0.22110968638E+02  0.00000000000E+00 0.  1.
         14    1    6    6    0    0  0.22066274475E+02  0.57213961271E+02 -0.28156869314E+02  0.67477160010E+02  0.00000000000E+00 0. -1.
         -5    1    3    3    0  503 -0.11734310840E+03 -0.13652595953E+03 -0.68677793495E+03  0.70999631313E+03  0.47000000000E+01 0.  1.
         13    1    4    4    0    0 -0.69367865177E+01 -0.35517916829E+02 -0.38615443586E+02  0.52922527400E+02  0.00000000000E+00 0. -1.
        -14    1    4    4    0    0 -0.53815880180E+02  0.17440303199E+02 -0.17026935085E+03  0.17942119433E+03  0.00000000000E+00 0.  1.
</event>
<event>
12    1  0.8421768E-002  0.2122059E+03  0.7818608E-02  0.1140275E+00
         21   -1    0    0  503  502  0.00000000000E+00  0.00000000000E+00  0.12012387298E+03  0.12012387298E+03  0.00000000000E+00 0.  1.
         21   -1    0    0  501  503 -0.00000000000E+00 -0.00000000000E+00 -0.47998928219E+03  0.47998928219E+03  0.00000000000E+00 0.  1.
          6    2    1    2  501    0 -0.10286367041E+03 -0.63594489328E+02 -0.32372849316E+03  0.38708070057E+03  0.17437355795E+03 0.  0.
         24    2    3    3    0    0 -0.34048929682E+01 -0.61060815553E+02 -0.24440568067E+03  0.25975173099E+03  0.63220317303E+02 0.  0.
         -6    2    1    2    0  502  0.10286367041E+03  0.63594489328E+02 -0.36136916055E+02  0.21303245460E+03  0.17161513991E+03 0.  0.
        -24    2    5    5    0    0  0.39048762227E+02  0.43780478239E+02 -0.84092151545E+02  0.13065082951E+03  0.80972916416E+02 0.  0.
          5    1    3    3  501    0 -0.99458777439E+02 -0.25336737745E+01 -0.79322812489E+02  0.12732896958E+03  0.47000000000E+01 0. -1.
        -13    1    4    4    0    0 -0.19787385778E+02 -0.10743031274E+02 -0.23297941933E+02  0.32399806406E+02  0.00000000000E+00 0.  1.
         14    1    4    4    0    0  0.16382492809E+02 -0.50317784279E+02 -0.22110773873E+03  0.22735192459E+03  0.00000000000E+00 0. -1.
         -5    1    5    5    0  502  0.63814908180E+02  0.19814011089E+02  0.47955235490E+02  0.82381625090E+02  0.47000000000E+01 0.  1.
         11    1    6    6    0    0  0.26695122798E+02 -0.23706096455E+01 -0.78015057514E+02  0.82489990728E+02  0.00000000000E+00 0. -1.
        -12    1    6    6    0    0  0.12353639429E+02  0.46151087884E+02 -0.60770940311E+01  0.48160838779E+02  0.00000000000E+00 0.  1.
</event>
<event>
12    1  0.8421768E-002  0.2077722E+03  0.7818608E-02  0.1143355E+00
         21   -1    0    0  503  502  0.00000000000E+00  0.00000000000E+00  0.16652424991E+03  0.16652424991E+03  0.00000000000E+00 0. -1.
         21   -1    0    0  501  503 -0.00000000000E+00 -0.00000000000E+00 -0.39250874245E+03  0.39250874245E+03  0.00000000000E+00 0. -1.
          6    2    1    2  501    0  0.67851124402E+01 -0.11598945889E+03 -0.27592616255E+03  0.34540489944E+03  0.17224896241E+03 0.  0.
         24    2    3    3    0    0  0.26318679720E+02 -0.76014426342E+02 -0.27593346829E+03  0.30066505666E+03  0.88257189286E+02 0.  0.
         -6    2    1    2    0  502 -0.67851124402E+01  0.11598945889E+03  0.49941670009E+02  0.21362809293E+03  0.17217200516E+03 0.  0.
        -24    2    5    5    0    0  0.58065000465E+02  0.93629142957E+02  0.19509821071E+02  0.13843694782E+03  0.81524197105E+02 0.  0.
          5    1    3    3  501    0 -0.19533567280E+02 -0.39975032551E+02  0.73057418008E-02  0.44739842775E+02  0.47000000000E+01 0. -1.
        -11    1    4    4    0    0 -0.98698925446E+01  0.15816229971E+02 -0.26398551814E+02  0.32317974058E+02  0.00000000000E+00 0.  1.
         12    1    4    4    0    0  0.36188572265E+02 -0.91830656313E+02 -0.24953491648E+03  0.26834708260E+03  0.00000000000E+00 0. -1.
         -5    1    5    5    0  502 -0.64850112906E+02  0.22360315936E+02  0.30431848939E+02  0.75191145107E+02  0.47000000000E+01 0.  1.
         11    1    6    6    0    0  0.79789974769E+01  0.80127454528E+02  0.29221149150E+02  0.85661828883E+02  0.00000000000E+00 0. -1.
        -12    1    6    6    0    0  0.50086002989E+02  0.13501688428E+02 -0.97113280791E+01  0.52775118937E+02  0.00000000000E+00 0.  1.
</event>
<event>
12    1  0.8421768E-002  0.2327669E+03  0.7818608E-02  0.1125438E+00
         21   -1    0    0  503  502  0.00000000000E+00  0.00000000000E+00  0.19707664213E+03  0.19707664213E+03  0.00000000000E+00 0.  1.
         21   -1    0    0  501  503 -0.00000000000E+00 -0.00000000000E+00 -0.58609397750E+03  0.58609397750E+03  0.00000000000E+00 0. -1.
          6    2    1    2  501    0 -0.14831941328E+03 -0.46805299200E+02 -0.48288555172E+03  0.53605863977E+03  0.17317916973E+03 0.  0.
         24    2    3    3    0    0 -0.15331308951E+03 -0.56497205921E+02 -0.26932492108E+03  0.32216824069E+03  0.67524991724E+02 0.  0.
         -6    2    1    2    0  502  0.14831941328E+03  0.46805299200E+02  0.93868216353E+02  0.24711197986E+03  0.16752224975E+03 0.  0.
        -24    2    5    5    0    0  0.13288343476E+03  0.36384171067E+01  0.16174344721E+02  0.15677883627E+03  0.81527595089E+02 0.  0.
          5    1    3    3  501    0  0.49936762295E+01  0.96919067212E+01 -0.21356063064E+03  0.21389039908E+03  0.47000000000E+01 0. -1.
        -13    1    4    4    0    0 -0.25820406925E+02  0.12523843879E+02 -0.70355283171E+02  0.75982931961E+02  0.00000000000E+00 0.  1.
         14    1    4    4    0    0 -0.12749268258E+03 -0.69021049800E+02 -0.19896963791E+03  0.24618530873E+03  0.00000000000E+00 0. -1.
         -5    1    5    5    0  502  0.15435978516E+02  0.43166882093E+02  0.77693871633E+02  0.90333143594E+02  0.47000000000E+01 0.  1.
         13    1    6    6    0    0  0.45566629244E+02  0.39405042154E+02 -0.36811398666E+01  0.60354170017E+02  0.00000000000E+00 0. -1.
        -14    1    6    6    0    0  0.87316805518E+02 -0.35766625047E+02  0.19855484587E+02  0.96424666250E+02  0.00000000000E+00 0.  1.
</event>
<event>
12    1  0.8421768E-002  0.2072191E+03  0.7818608E-02  0.1143978E+00
         21   -1    0    0  501  502  0.00000000000E+00  0.00000000000E+00  0.95274969928E+02  0.95274969928E+02  0.00000000000E+00 0.  1.
         21   -1    0    0  502  503 -0.00000000000E+00 -0.00000000000E+00 -0.46132457162E+03  0.46132457162E+03  0.00000000000E+00 0. -1.
         -6    2    1    2    0  503  0.11352786793E+03 -0.17905089029E+02 -0.22877221695E+03  0.30803396755E+03  0.17128639440E+03 0.  0.
        -24    2    3    3    0    0  0.99644708716E+02 -0.51787673312E+02 -0.23341934357E+03  0.27082566991E+03  0.79062775361E+02 0.  0.
          6    2    1    2  501    0 -0.11352786793E+03  0.17905089029E+02 -0.13727738474E+03  0.24856557400E+03  0.17242562224E+03 0.  0.
         24    2    5    5    0    0 -0.10124211997E+03 -0.27669069530E+02 -0.14940829827E+03  0.19960444049E+03  0.80644583243E+02 0.  0.
          5    1    5    5  501    0 -0.12285747956E+02  0.45574158559E+02  0.12130913528E+02  0.48961133506E+02  0.47000000000E+01 0. -1.
        -13    1    6    6    0    0 -0.45502803464E+02 -0.24821626023E+01 -0.89985076139E+01  0.46450397130E+02  0.00000000000E+00 0.  1.
         14    1    6    6    0    0 -0.55739316509E+02 -0.25186906927E+02 -0.14040979066E+03  0.15315404336E+03  0.00000000000E+00 0. -1.
         -5    1    3    3    0  503  0.13883159213E+02  0.33882584283E+02  0.46471266212E+01  0.37208297639E+02  0.47000000000E+01 0.  1.
         13    1    4    4    0    0 -0.71860969039E+01 -0.65245375214E+01 -0.68489955824E+02  0.69174298893E+02  0.00000000000E+00 0. -1.
        -14    1    4    4    0    0  0.10683080562E+03 -0.45263135791E+02 -0.16492938775E+03  0.20165137102E+03  0.00000000000E+00 0.  1.
</event>
<event>
12    1  0.8421768E-002  0.2100891E+03  0.7818608E-02  0.1142092E+00
         21   -1    0    0  501  502  0.00000000000E+00  0.00000000000E+00  0.66656493115E+03  0.66656493115E+03  0.00000000000E+00 0.  1.
         21   -1    0    0  502  503 -0.00000000000E+00 -0.00000000000E+00 -0.11960779698E+03  0.11960779698E+03  0.00000000000E+00 0.  1.
         -6    2    1    2    0  503  0.33487465687E+00  0.11473008386E+03  0.96218937301E+01  0.21030932894E+03  0.17599525197E+03 0.  0.
        -24    2    3    3    0    0 -0.54299652728E+01  0.78060962852E+02 -0.64014347121E+02  0.12771245380E+03  0.78036118402E+02 0.  0.
          6    2    1    2  501    0 -0.33487465687E+00 -0.11473008386E+03  0.53733524044E+03  0.57586339920E+03  0.17241342650E+03 0.  0.
         24    2    5    5    0    0  0.43798015048E+02 -0.99960898629E+02  0.47982189191E+03  0.50173030237E+03  0.97947950394E+02 0.  0.
          5    1    5    5  501    0 -0.44132889704E+02 -0.14769185230E+02  0.57513348527E+02  0.74133096825E+02  0.47000000000E+01 0. -1.
        -11    1    6    6    0    0 -0.23282540997E+02 -0.68723554113E+02  0.22898122981E+03  0.24020284597E+03  0.00000000000E+00 0.  1.
         12    1    6    6    0    0  0.67080556045E+02 -0.31237344517E+02  0.25084066210E+03  0.26152745640E+03  0.00000000000E+00 0. -1.
         -5    1    3    3    0  503  0.57648399297E+01  0.36669121008E+02  0.73636240851E+02  0.82596875132E+02  0.47000000000E+01 0.  1.
         13    1    4    4    0    0  0.12444599770E+02 -0.10292644876E+02 -0.24372509188E+02  0.29237404230E+02  0.00000000000E+00 0. -1.
        -14    1    4    4    0    0 -0.17874565043E+02  0.88353607728E+02 -0.39641837933E+02  0.98475049574E+02  0.00000000000E+00 0.  1.
</event>
<event>
12    1  0.8421768E-002  0.1751374E+03  0.7818608E-02  0.1173382E+00
         21   -1    0    0  503  502  0.00000000000E+00  0.00000000000E+00  0.86396300342E+02  0.86396300342E+02  0.00000000000E+00 0.  1.
         21   -1    0    0  501  503 -0.00000000000E+00 -0.00000000000E+00 -0.34924957858E+03  0.34924957858E+03  0.00000000000E+00 0.  1.
          6    2    1    2  501    0  0.74429510621E+01 -0.42657624309E+01 -0.13852968632E+03  0.22086814342E+03  0.17180997798E+03 0.  0.
         24    2    3    3    0    0 -0.37273585077E+02 -0.11326625161E+02 -0.17377755191E+02  0.91449038166E+02  0.80890837701E+02 0.  0.
         -6    2    1    2    0  502 -0.74429510621E+01  0.42657624309E+01 -0.12432359192E+03  0.21477773551E+03  0.17492720175E+03 0.  0.
        -24    2    5    5    0    0 -0.53947109954E+02 -0.31368100831E+02 -0.11902820857E+03  0.15576468534E+03  0.78744360704E+02 0.  0.
          5    1    3    3  501    0  0.44716536139E+02  0.70608627300E+01 -0.12115193113E+03  0.12941910525E+03  0.47000000000E+01 0. -1.
        -13    1    4    4    0    0 -0.14589371143E+02 -0.23368023718E+02 -0.45609510788E+02  0.53283597449E+02  0.00000000000E+00 0.  1.
         14    1    4    4    0    0 -0.22684213934E+02  0.12041398557E+02  0.28231755597E+02  0.38165440717E+02  0.00000000000E+00 0. -1.
         -5    1    5    5    0  502  0.46504158892E+02  0.35633863262E+02 -0.52953833518E+01  0.59013050167E+02  0.47000000000E+01 0.  1.
         13    1    6    6    0    0  0.18984778131E+02 -0.17465470398E+02 -0.24621208773E+02  0.35660459592E+02  0.00000000000E+00 0. -1.
        -14    1    6    6    0    0 -0.72931888085E+02 -0.13902630433E+02 -0.94406999795E+02  0.12010422575E+03  0.00000000000E+00 0.  1.
</event>
<event>
12    1  0.8421768E-002  0.1918139E+03  0.7818608E-02  0.1157426E+00
         21   -1    0    0  501  502  0.00000000000E+00  0.00000000000E+00  0.11047291605E+04  0.11047291605E+04  0.00000000000E+00 0.  1.
         21   -1    0    0  502  503 -0.00000000000E+00 -0.00000000000E+00 -0.10979672403E+03  0.10979672403E+03  0.00000000000E+00 0. -1.
         -6    2    1    2    0  503  0.86326185043E+02  0.13348290074E+01 -0.98713629593E+01  0.19206773635E+03  0.17128508268E+03 0.  0.
        -24    2    3    3    0    0  0.65816198524E+02 -0.56228126848E+02 -0.42436797820E+02  0.12266491954E+03  0.75844752223E+02 0.  0.
          6    2    1    2  501    0 -0.86326185043E+02 -0.13348290074E+01  0.10048037995E+04  0.10224581482E+04  0.16833299572E+03 0.  0.
         24    2    5    5    0    0 -0.58354933393E+02  0.34739552355E+02  0.92082436027E+03  0.92675868053E+03  0.79699527669E+02 0.  0.
          5    1    5    5  501    0 -0.27971251650E+02 -0.36074381362E+02  0.83979439181E+02  0.95699467682E+02  0.47000000000E+01 0. -1.
        -11    1    6    6    0    0 -0.72824380244E+02  0.12839953145E+02  0.54129205068E+03  0.54631981374E+03  0.00000000000E+00 0.  1.
         12    1    6    6    0    0  0.14469446851E+02  0.21899599210E+02  0.37953230959E+03  0.38043886679E+03  0.00000000000E+00 0. -1.
         -5    1    3    3    0  503  0.20509986519E+02  0.57562955855E+02  0.32565434860E+02  0.69402816812E+02  0.47000000000E+01 0.  1.
         11    1    4    4    0    0  0.42034427131E+01 -0.49084711523E+02 -0.34478295421E+02  0.60130946201E+02  0.00000000000E+00 0. -1.
        -12    1    4    4    0    0  0.61612755811E+02 -0.71434153247E+01 -0.79585023987E+01  0.62533973339E+02  0.00000000000E+00 0.  1.
</event>
<event>
12    1  0.8421768E-002  0.2627612E+03  0.7818608E-02  0.1105749E+00
         21   -1    0    0  503  502  0.00000000000E+00  0.00000000000E+00  0.15494660097E+04  0.15494660097E+04  0.00000000000E+00 0.  1.
         21   -1    0    0  501  503 -0.00000000000E+00 -0.00000000000E+00 -0.98071386866E+02  0.98071386866E+02  0.00000000000E+00 0.  1.
          6    2    1    2  501    0 -0.10611978599E+02  0.19577147789E+03  0.11449364370E+03  0.28505889658E+03  0.17236790429E+03 0.  0.
         24    2    3    3    0    0 -0.63807654495E+01  0.14152721615E+03  0.50541163379E+01  0.16275009377E+03  0.79946118427E+02 0.  0.
         -6    2    1    2    0  502  0.10611978599E+02 -0.19577147789E+03  0.13369009791E+04  0.13624784999E+04  0.17494098793E+03 0.  0.
        -24    2    5    5    0    0  0.54326689418E+01 -0.26163538152E+02  0.63307143275E+03  0.63846758927E+03  0.78405222781E+02 0.  0.
          5    1    3    3  501    0 -0.42312131492E+01  0.54244261733E+02  0.10943952736E+03  0.12230880281E+03  0.47000000000E+01 0. -1.
        -13    1    4    4    0    0 -0.21810502904E+02  0.14518501290E+03  0.45066031453E+01  0.14688327161E+03  0.00000000000E+00 0.  1.
         14    1    4    4    0    0  0.15429737455E+02 -0.36577967426E+01  0.54751319261E+00  0.15866822165E+02  0.00000000000E+00 0. -1.
         -5    1    5    5    0  502  0.51793096570E+01 -0.16960793973E+03  0.70382954635E+03  0.72401091068E+03  0.47000000000E+01 0.  1.
         11    1    6    6    0    0  0.48684220438E+01 -0.27315288100E+01  0.65919452974E+00  0.56211493722E+01  0.00000000000E+00 0. -1.
        -12    1    6    6    0    0  0.56424689800E+00 -0.23432009342E+02  0.63241223822E+03  0.63284643989E+03  0.00000000000E+00 0.  1.
</event>
<event>
12    1  0.8421768E-002  0.1899932E+03  0.7818608E-02  0.1158915E+00
         21   -1    0    0  503  502  0.00000000000E+00  0.00000000000E+00  0.50288758453E+03  0.50288758453E+03  0.00000000000E+00 0.  1.
         21   -1    0    0  501  503 -0.00000000000E+00 -0.00000000000E+00 -0.79602424503E+02  0.79602424503E+02  0.00000000000E+00 0.  1.
          6    2    1    2  501    0 -0.12934492651E+02 -0.74474071450E+02  0.11709072533E+03  0.22317625586E+03  0.17430925049E+03 0.  0.
         24    2    3    3    0    0  0.34129369118E+02 -0.51923246623E+02  0.13318983080E+03  0.16836003580E+03  0.82126324954E+02 0.  0.
         -6    2    1    2    0  502  0.12934492651E+02  0.74474071450E+02  0.30619443470E+03  0.35931375317E+03  0.17215589725E+03 0.  0.
        -24    2    5    5    0    0  0.66936909491E+02  0.14511346057E+02  0.14389259317E+03  0.17799699381E+03  0.79288854316E+02 0.  0.
          5    1    3    3  501    0 -0.47063861768E+02 -0.22550824827E+02 -0.16099105473E+02  0.54816220063E+02  0.47000000000E+01 0. -1.
        -13    1    4    4    0    0  0.27155385169E+02 -0.74150719348E+02  0.93978749762E+02  0.12275076183E+03  0.00000000000E+00 0.  1.
         14    1    4    4    0    0  0.69739839484E+01  0.22227472725E+02  0.39211081039E+02  0.45609273970E+02  0.00000000000E+00 0. -1.
         -5    1    5    5    0  502 -0.54002416841E+02  0.59962725393E+02  0.16230184153E+03  0.18131675936E+03  0.47000000000E+01 0.  1.
         11    1    6    6    0    0 -0.12916833541E+02 -0.22242909557E+01  0.61942135371E+00  0.13121575431E+02  0.00000000000E+00 0. -1.
        -12    1    6    6    0    0  0.79853743032E+02  0.16735637013E+02  0.14327317182E+03  0.16487541838E+03  0.00000000000E+00 0.  1.
</event>
<event>
12    1  0.8421768E-002  0.1812581E+03  0.7818608E-02  0.1166701E+00
         21   -1    0    0  501  502  0.00000000000E+00  0.00000000000E+00  0.50921594646E+02  0.50921594646E+02  0.00000000000E+00 0. -1.
         21   -1    0    0  502  503 -0.00000000000E+00 -0.00000000000E+00 -0.74251311178E+03  0.74251311178E+03  0.00000000000E+00 0. -1.
         -6    2    1    2    0  503 -0.54452569471E+02 -0.21558753288E+02 -0.20059486513E+03  0.27004938293E+03  0.17105118281E+03 0.  0.
        -24    2    3    3    0    0 -0.49127308478E+02  0.43694773937E+02 -0.16740232548E+03  0.19649521305E+03  0.79146095701E+02 0.  0.
          6    2    1    2  501    0  0.54452569471E+02  0.21558753288E+02 -0.49099665201E+03  0.52338532350E+03  0.17153606734E+03 0.  0.
         24    2    5    5    0    0 -0.73430954132E+01 -0.43256692810E+02 -0.26742953531E+03  0.28250341898E+03  0.79778210425E+02 0.  0.
          5    1    5    5  501    0  0.61795664884E+02  0.64815446098E+02 -0.22356711670E+03  0.24088190452E+03  0.47000000000E+01 0. -1.
        -13    1    6    6    0    0 -0.26781801121E+02 -0.23554790204E+02 -0.24294914577E+03  0.24555321306E+03  0.00000000000E+00 0.  1.
         14    1    6    6    0    0  0.19438705708E+02 -0.19701902606E+02 -0.24480389538E+02  0.36950205924E+02  0.00000000000E+00 0. -1.
         -5    1    3    3    0  503 -0.53252609933E+01 -0.65253527225E+02 -0.33192539642E+02  0.73554169887E+02  0.47000000000E+01 0.  1.
         11    1    4    4    0    0  0.73633477554E+01  0.27778748305E+02 -0.13439252666E+02  0.31725246410E+02  0.00000000000E+00 0. -1.
        -12    1    4    4    0    0 -0.56490656233E+02  0.15916025632E+02 -0.15396307282E+03  0.16476996664E+03  0.00000000000E+00 0.  1.
</event>
<event>
12    1  0.8421768E-002  0.2235666E+03  0.7818608E-02  0.1131445E+00
         21   -1    0    0  503  502  0.00000000000E+00  0.00000000000E+00  0.68174174003E+03  0.68174174003E+03  0.00000000000E+00 0. -1.
         21   -1    0    0  501  503 -0.00000000000E+00 -0.00000000000E+00 -0.72970510348E+02  0.72970510348E+02  0.00000000000E+00 0.  1.
          6    2    1    2  501    0  0.13445765785E+03 -0.40986402191E+02  0.30688740448E+03  0.37968660377E+03  0.17384847177E+03 0.  0.
         24    2    3    3    0    0  0.13932568225E+03  0.19258386553E+02  0.22748703194E+03  0.27978844868E+03  0.82150442019E+02 0.  0.
         -6    2    1    2    0  502 -0.13445765785E+03  0.40986402191E+02  0.30188382520E+03  0.37502564661E+03  0.17248665100E+03 0.  0.
        -24    2    5    5    0    0 -0.30222641790E+02 -0.35318296827E+02  0.10580641333E+03  0.14017295424E+03  0.79326350168E+02 0.  0.
          5    1    3    3  501    0 -0.48680243994E+01 -0.60244788744E+02  0.79400372535E+02  0.99898155093E+02  0.47000000000E+01 0. -1.
        -11    1    4    4    0    0  0.40805663917E+02  0.34815832312E+02  0.38269134566E+02  0.65892116734E+02  0.00000000000E+00 0.  1.
         12    1    4    4    0    0  0.98520018333E+02 -0.15557445759E+02  0.18921789738E+03  0.21389633194E+03  0.00000000000E+00 0. -1.
         -5    1    5    5    0  502 -0.10423501606E+03  0.76304699018E+02  0.19607741187E+03  0.23485269236E+03  0.47000000000E+01 0.  1.
         13    1    6    6    0    0 -0.12748853458E+02 -0.13402343941E+02  0.11025231087E+03  0.11179323835E+03  0.00000000000E+00 0. -1.
        -14    1    6    6    0    0 -0.17473788332E+02 -0.21915952885E+02 -0.44458975354E+01  0.28379715898E+02  0.00000000000E+00 0.  1.
</event>
<event>
12    1  0.8421768E-002  0.2067417E+03  0.7818608E-02  0.1144195E+00
         21   -1    0    0  501  502  0.00000000000E+00  0.00000000000E+00  0.45231517290E+03  0.45231517290E+03  0.00000000000E+00 0.  1.
         21   -1    0    0  502  503 -0.00000000000E+00 -0.00000000000E+00 -0.96834979468E+02  0.96834979468E+02  0.00000000000E+00 0. -1.
         -6    2    1    2    0  503 -0.42372291850E+02  0.10680650193E+03  0.13455976950E+03  0.24658123711E+03  0.17173507201E+03 0.  0.
        -24    2    3    3    0    0 -0.70153522025E+02  0.12929543532E+03  0.93873800913E+02  0.19222144577E+03  0.80609971272E+02 0.  0.
          6    2    1    2  501    0  0.42372291850E+02 -0.10680650193E+03  0.22092042393E+03  0.30256891526E+03  0.17186935387E+03 0.  0.
         24    2    5    5    0    0 -0.10279201353E+02 -0.66452685543E+02  0.21306391306E+03  0.23560306578E+03  0.74772669880E+02 0.  0.
          5    1    5    5  501    0  0.52651493203E+02 -0.40353816383E+02  0.78565108724E+01  0.66965849478E+02  0.47000000000E+01 0. -1.
        -13    1    6    6    0    0  0.85842774312E+01 -0.21194737468E+02  0.16623840642E+03  0.16780379758E+03  0.00000000000E+00 0.  1.
         14    1    6    6    0    0 -0.18863478784E+02 -0.45257948075E+02  0.46825506640E+02  0.67799268196E+02  0.00000000000E+00 0. -1.
         -5    1    3    3    0  503  0.27781230175E+02 -0.22488933391E+02  0.40685968591E+02  0.54359791346E+02  0.47000000000E+01 0.  1.
         13    1    4    4    0    0 -0.82489779597E+02  0.10583286649E+03  0.96939430708E+02  0.16553674092E+03  0.00000000000E+00 0. -1.
        -14    1    4    4    0    0  0.12336257572E+02  0.23462568828E+02 -0.30656297946E+01  0.26684704850E+02  0.00000000000E+00 0.  1.
</event>
<event>
12    1  0.8421768E-002  0.1727507E+03  0.7818608E-02  0.1175058E+00
         21   -1    0    0  503  502  0.00000000000E+00  0.00000000000E+00  0.21123770727E+03  0.21123770727E+03  0.00000000000E+00 0. -1.
         21   -1    0    0  501  503 -0.00000000000E+00 -0.00000000000E+00 -0.14517201684E+03  0.14517201684E+03  0.00000000000E+00 0.  1.
          6    2    1    2  501    0  0.10400233554E+02 -0.15131307561E+02  0.32749073798E+01  0.17278178654E+03  0.17177223121E+03 0.  0.
         24    2    3    3    0    0  0.19703554550E+02 -0.34481887570E+01 -0.63627236815E+02  0.10407200598E+03  0.79890156446E+02 0.  0.
         -6    2    1    2    0  502 -0.10400233554E+02  0.15131307561E+02  0.62790783049E+02  0.18362793757E+03  0.17157918200E+03 0.  0.
        -24    2    5    5    0    0  0.60645517567E+01  0.47641047266E+02  0.96260466866E+02  0.13392600536E+03  0.79772484340E+02 0.  0.
          5    1    3    3  501    0 -0.93033209955E+01 -0.11683118804E+02  0.66902144195E+02  0.68709780559E+02  0.47000000000E+01 0. -1.
        -13    1    4    4    0    0  0.41795648115E+02  0.23146162909E+02 -0.37538538584E+02  0.60759879343E+02  0.00000000000E+00 0.  1.
         14    1    4    4    0    0 -0.22092093566E+02 -0.26594351666E+02 -0.26088698231E+02  0.43312126639E+02  0.00000000000E+00 0. -1.
         -5    1    5    5    0  502 -0.16464785311E+02 -0.32509739706E+02 -0.33469683817E+02  0.49701932214E+02  0.47000000000E+01 0.  1.
         13    1    6    6    0    0  0.42271870311E+02  0.17108872463E+02  0.50998119416E+02  0.68413688108E+02  0.00000000000E+00 0. -1.
        -14    1    6    6    0    0 -0.36207318554E+02  0.30532174803E+02  0.45262347450E+02  0.65512317252E+02  0.00000000000E+00 0.  1.
</event>
<event>
12    1  0.8421768E-002  0.1892139E+03  0.7818608E-02  0.1159267E+00
         21   -1    0    0  503  502  0.00000000000E+00  0.00000000000E+00  0.70749652952E+03  0.70749652952E+03  0.00000000000E+00 0. -1.
         21   -1    0    0  501  503 -0.00000000000E+00 -0.00000000000E+00 -0.55394920149E+02  0.55394920149E+02  0.00000000000E+00 0. -1.
          6    2    1    2  501    0 -0.27111879769E+01  0.78593947782E+02  0.21289496738E+03  0.28482655914E+03  0.17209747961E+03 0.  0.
         24    2    3    3    0    0 -0.14922753411E+02  0.11968782516E+03  0.17978931592E+03  0.23045834005E+03  0.78987241498E+02 0.  0.
         -6    2    1    2    0  502  0.27111879769E+01 -0.78593947782E+02  0.43920664199E+03  0.47806489053E+03  0.17163684342E+03 0.  0.
        -24    2    5    5    0    0 -0.33762616713E+02  0.12749777534E+02  0.25290824936E+03  0.26734423260E+03  0.78790132583E+02 0.  0.
          5    1    3    3  501    0  0.12211565434E+02 -0.41093877376E+02  0.33105651455E+02  0.54368219085E+02  0.47000000000E+01 0. -1.
        -11    1    4    4    0    0 -0.11637946221E+02 -0.44995566913E+00  0.58728844586E+02  0.59872543280E+02  0.00000000000E+00 0.  1.
         12    1    4    4    0    0 -0.32848071900E+01  0.12013778083E+03  0.12106047133E+03  0.17058579677E+03  0.00000000000E+00 0. -1.
         -5    1    5    5    0  502  0.36473804690E+02 -0.91343725316E+02  0.18629839263E+03  0.21072065793E+03  0.47000000000E+01 0.  1.
         13    1    6    6    0    0 -0.52649646337E+01  0.37096381565E+02  0.19354486937E+03  0.19713822014E+03  0.00000000000E+00 0. -1.
        -14    1    6    6    0    0 -0.28497652079E+02 -0.24346604030E+02  0.59363379990E+02  0.70206012461E+02  0.00000000000E+00 0.  1.
</event>
<event>
12    1  0.8421768E-002  0.2054309E+03  0.7818608E-02  0.1145350E+00
         21   -1    0    0  501  502  0.00000000000E+00  0.00000000000E+00  0.56430325136E+02  0.56430325136E+02  0.00000000000E+00 0.  1.
         21   -1    0    0  502  503 -0.00000000000E+00 -0.00000000000E+00 -0.11361329521E+04  0.11361329521E+04  0.00000000000E+00 0.  1.
         -6    2    1    2    0  503  0.35670446426E+02 -0.10644561821E+03 -0.88886236414E+03  0.91216738784E+03  0.17137675066E+03 0.  0.
        -24    2    3    3    0    0 -0.31936564320E+02 -0.45822882777E+02 -0.64063034036E+03  0.64780579535E+03  0.78265156823E+02 0.  0.
          6    2    1    2  501    0 -0.35670446426E+02  0.10644561821E+03 -0.19084026282E+03  0.28039588940E+03  0.17204301349E+03 0.  0.
         24    2    5    5    0    0 -0.32726310419E+02  0.12657835121E+03 -0.87198120816E+02  0.17467087592E+03  0.76245080049E+02 0.  0.
          5    1    5    5  501    0 -0.29441360071E+01 -0.20132733002E+02 -0.10364214201E+03  0.10572501348E+03  0.47000000000E+01 0. -1.
        -11    1    6    6    0    0 -0.14650607346E+00  0.10108294576E+03 -0.86897092579E+02  0.13329999282E+03  0.00000000000E+00 0.  1.
         12    1    6    6    0    0 -0.32579804346E+02  0.25495405451E+02 -0.30102823720E+00  0.41370883098E+02  0.00000000000E+00 0. -1.
         -5    1    3    3    0  503  0.67607010746E+02 -0.60622735431E+02 -0.24823202378E+03  0.26436159248E+03  0.47000000000E+01 0.  1.
         11    1    4    4    0    0 -0.52286866840E+02 -0.20725137916E+02 -0.27154092595E+03  0.27730474617E+03  0.00000000000E+00 0. -1.
        -12    1    4    4    0    0  0.20350302520E+02 -0.25097744862E+02 -0.36908941441E+03  0.37050104918E+03  0.00000000000E+00 0.  1.
</event>
<event>
12    1  0.8421768E-002  0.1881679E+03  0.7818608E-02  0.1162548E+00
         21   -1    0    0  503  502  0.00000000000E+00  0.00000000000E+00  0.25515427848E+03  0.25515427848E+03  0.00000000000E+00 0. -1.
         21   -1    0    0  501  503 -0.00000000000E+00 -0.00000000000E+00 -0.19186558182E+03  0.19186558182E+03  0.00000000000E+00 0. -1.
          6    2    1    2  501    0 -0.46859097402E+02  0.33209313338E+02  0.15660430637E+03  0.23698424823E+03  0.16833891895E+03 0.  0.
         24    2    3    3    0    0 -0.48446555822E+02  0.82806745447E+02  0.13076142899E+03  0.18083828125E+03  0.79999417460E+02 0.  0.
         -6    2    1    2    0  502  0.46859097402E+02 -0.33209313338E+02 -0.93315609715E+02  0.21003561207E+03  0.17918850917E+03 0.  0.
        -24    2    5    5    0    0  0.19299346818E+02 -0.80437340049E+02 -0.10288632767E+03  0.15432461673E+03  0.79924091765E+02 0.  0.
          5    1    3    3  501    0  0.15874584198E+01 -0.49597432109E+02  0.25842877384E+02  0.56145966975E+02  0.47000000000E+01 0. -1.
        -13    1    4    4    0    0  0.75814949514E+00  0.50164711605E+02  0.17546507254E+02  0.53150286903E+02  0.00000000000E+00 0.  1.
         14    1    4    4    0    0 -0.49204705317E+02  0.32642033843E+02  0.11321492173E+03  0.12768799435E+03  0.00000000000E+00 0. -1.
         -5    1    5    5    0  502  0.27559750584E+02  0.47228026711E+02  0.95707179593E+01  0.55710995338E+02  0.47000000000E+01 0.  1.
         11    1    6    6    0    0  0.35136806030E+02 -0.57880621640E+02 -0.10683165754E+03  0.12648226971E+03  0.00000000000E+00 0. -1.
        -12    1    6    6    0    0 -0.15837459212E+02 -0.22556718410E+02  0.39453298629E+01  0.27842347017E+02  0.00000000000E+00 0.  1.
</event>
<event>
12    1  0.8421768E-002  0.1875468E+03  0.7818608E-02  0.1164079E+00
         21   -1    0    0  503  502  0.00000000000E+00  0.00000000000E+00  0.42105692018E+03  0.42105692018E+03  0.00000000000E+00 0. -1.
         21   -1    0    0  501  503 -0.00000000000E+00 -0.00000000000E+00 -0.20776638300E+03  0.20776638300E+03  0.00000000000E+00 0. -1.
          6    2    1    2  501    0 -0.84618490879E-01  0.13539150833E+02 -0.14394417406E+03  0.22535031149E+03  0.17285694049E+03 0.  0.
         24    2    3    3    0    0 -0.89223959189E+01  0.62229229858E+02 -0.35516862980E+02  0.10607163823E+03  0.77702372448E+02 0.  0.
         -6    2    1    2    0  502  0.84618490879E-01 -0.13539150833E+02  0.35723471123E+03  0.40347299169E+03  0.18705747874E+03 0.  0.
        -24    2    5    5    0    0  0.15994442281E+02  0.63425778142E+02  0.16279346796E+03  0.19369642039E+03  0.82084947113E+02 0.  0.
          5    1    3    3  501    0  0.88377774280E+01 -0.48690079025E+02 -0.10842731108E+03  0.11927867325E+03  0.47000000000E+01 0. -1.
        -11    1    4    4    0    0  0.54817282661E+01  0.29125421371E+02  0.22863154218E+02  0.37430780591E+02  0.00000000000E+00 0.  1.
         12    1    4    4    0    0 -0.14404124185E+02  0.33103808487E+02 -0.58380017198E+02  0.68640857643E+02  0.00000000000E+00 0. -1.
         -5    1    5    5    0  502 -0.15909823790E+02 -0.76964928975E+02  0.19444124327E+03  0.20977657130E+03  0.47000000000E+01 0.  1.
         13    1    6    6    0    0 -0.23027768883E+02  0.15960818485E+02  0.10730885081E+03  0.11090633583E+03  0.00000000000E+00 0. -1.
        -14    1    6    6    0    0  0.39022211164E+02  0.47464959658E+02  0.55484617156E+02  0.82790084554E+02  0.00000000000E+00 0.  1.
</event>
<event>
12    1  0.8421768E-002  0.1753440E+03  0.7818608E-02  0.1173024E+00
         21   -1    0    0  503  502  0.00000000000E+00  0.00000000000E+00  0.19125356560E+04  0.19125356560E+04  0.00000000000E+00 0.  1.
         21   -1    0    0  501  503 -0.00000000000E+00 -0.00000000000E+00 -0.16251704504E+02  0.16251704504E+02  0.00000000000E+00 0.  1.
          6    2    1    2  501    0  0.17560890413E+02 -0.75835010063E+01  0.78888953027E+03  0.80759694871E+03  0.17175635715E+03 0.  0.
         24    2    3    3    0    0  0.53691914233E+02 -0.31860735911E+02  0.27455595115E+03  0.29140322961E+03  0.75079582909E+02 0.  0.
         -6    2    1    2    0  502 -0.17560890413E+02  0.75835010063E+01  0.11073944212E+04  0.11211904118E+04  0.17429756451E+03 0.  0.
        -24    2    5    5    0    0  0.31706105351E+01  0.45385371153E+02  0.10151865178E+04  0.10192926004E+04  0.79270767525E+02 0.  0.
          5    1    3    3  501    0 -0.36131023820E+02  0.24277234905E+02  0.51433357912E+03  0.51619371909E+03  0.47000000000E+01 0. -1.
        -11    1    4    4    0    0 -0.36554643621E+01 -0.39067803129E+02  0.95387158744E+02  0.10314245350E+03  0.00000000000E+00 0.  1.
         12    1    4    4    0    0  0.57347378595E+02  0.72070672180E+01  0.17916879241E+03  0.18826077611E+03  0.00000000000E+00 0. -1.
         -5    1    5    5    0  502 -0.20731500948E+02 -0.37801870147E+02  0.92207903426E+02  0.10189781142E+03  0.47000000000E+01 0.  1.
         11    1    6    6    0    0 -0.10393052955E+02 -0.30036435127E+01  0.19192356533E+02  0.22031431487E+02  0.00000000000E+00 0. -1.
        -12    1    6    6    0    0  0.13563663490E+02  0.48389014666E+02  0.99599416127E+03  0.99726116890E+03  0.00000000000E+00 0.  1.
</event>
<event>
12    1  0.8421768E-002  0.1746930E+03  0.7818608E-02  0.1173679E+00
         21   -1    0    0  503  502  0.00000000000E+00  0.00000000000E+00  0.37951202829E+03  0.37951202829E+03  0.00000000000E+00 0. -1.
         21   -1    0    0  501  503 -0.00000000000E+00 -0.00000000000E+00 -0.26519626107E+03  0.26519626107E+03  0.00000000000E+00 0. -1.
          6    2    1    2  501    0  0.10678247458E+02  0.17405278823E+02 -0.21263502773E+03  0.27519317635E+03  0.17349541951E+03 0.  0.
         24    2    3    3    0    0  0.58748700239E+02 -0.13213544467E+02 -0.69751431544E+02  0.12129030818E+03  0.78867414812E+02 0.  0.
         -6    2    1    2    0  502 -0.10678247458E+02 -0.17405278823E+02  0.32695079495E+03  0.36951511301E+03  0.17096089531E+03 0.  0.
        -24    2    5    5    0    0 -0.22066221156E+02  0.17130245289E+02  0.32423916802E+03  0.33274785460E+03  0.69352240329E+02 0.  0.
          5    1    3    3  501    0 -0.48070452781E+02  0.30618823290E+02 -0.14288359619E+03  0.15390286817E+03  0.47000000000E+01 0. -1.
        -13    1    4    4    0    0  0.39691864072E+01 -0.38230651133E+01  0.17218088037E+02  0.18078518281E+02  0.00000000000E+00 0.  1.
         14    1    4    4    0    0  0.54779513832E+02 -0.93904793533E+01 -0.86969519581E+02  0.10321178990E+03  0.00000000000E+00 0. -1.
         -5    1    5    5    0  502  0.11387973698E+02 -0.34535524112E+02  0.27116269252E+01  0.36767258413E+02  0.47000000000E+01 0.  1.
         13    1    6    6    0    0 -0.27552040508E+02  0.41207708498E+02  0.23385335718E+03  0.23904933140E+03  0.00000000000E+00 0. -1.
        -14    1    6    6    0    0  0.54858193523E+01 -0.24077463208E+02  0.90385810838E+02  0.93698523198E+02  0.00000000000E+00 0.  1.
</event>
<event>
12    1  0.8421768E-002  0.2015761E+03  0.7818608E-02  0.1148697E+00
         21   -1    0    0  503  502  0.00000000000E+00  0.00000000000E+00  0.49169869828E+02  0.49169869828E+02  0.00000000000E+00 0. -1.
         21   -1    0    0  501  503 -0.00000000000E+00 -0.00000000000E+00 -0.12910073331E+04  0.12910073331E+04  0.00000000000E+00 0. -1.
          6    2    1    2  501    0 -0.66054760012E+02  0.77569468168E+02 -0.10265985082E+04  0.10462014222E+04  0.17393293265E+03 0.  0.
         24    2    3    3    0    0 -0.16574181464E+02  0.59386869948E+02 -0.26289636791E+03  0.28066763221E+03  0.76539634809E+02 0.  0.
         -6    2    1    2    0  502  0.66054760012E+02 -0.77569468168E+02 -0.21523895513E+03  0.29397578078E+03  0.17237661724E+03 0.  0.
        -24    2    5    5    0    0  0.22566471501E+02 -0.11151575200E+03 -0.18516552778E+03  0.23096719045E+03  0.78195663594E+02 0.  0.
          5    1    3    3  501    0 -0.49480578548E+02  0.18182598220E+02 -0.76370214027E+03  0.76553378997E+03  0.47000000000E+01 0. -1.
        -13    1    4    4    0    0  0.21944310104E+02  0.12474872745E+02 -0.26481110234E+02  0.36584482984E+02  0.00000000000E+00 0.  1.
         14    1    4    4    0    0 -0.38518491568E+02  0.46911997203E+02 -0.23641525768E+03  0.24408314923E+03  0.00000000000E+00 0. -1.
         -5    1    5    5    0  502  0.43488288511E+02  0.33946283834E+02 -0.30073427351E+02  0.63008590338E+02  0.47000000000E+01 0.  1.
         13    1    6    6    0    0 -0.20786791336E+02 -0.45935822001E+01 -0.18154409574E+02  0.27978103554E+02  0.00000000000E+00 0. -1.
        -14    1    6    6    0    0  0.43353262838E+02 -0.10692216980E+03 -0.16701111820E+03  0.20298908689E+03  0.00000000000E+00 0.  1.
</event>
<event>
12    1  0.8421768E-002  0.1955082E+03  0.7818608E-02  0.1155015E+00
         21   -1    0    0  501  502  0.00000000000E+00  0.00000000000E+00  0.28141772588E+03  0.28141772588E+03  0.00000000000E+00 0. -1.
         21   -1    0    0  502  503 -0.00000000000E+00 -0.00000000000E+00 -0.23193352740E+03  0.23193352740E+03  0.00000000000E+00 0. -1.
         -6    2    1    2    0  503  0.53030960394E+02 -0.55630544809E+02 -0.14449319452E+03  0.23794120504E+03  0.17271564352E+03 0.  0.
        -24    2    3    3    0    0  0.78073225645E+02 -0.54871703720E+02 -0.43289850561E+02  0.13357695006E+03  0.82839954092E+02 0.  0.
          6    2    1    2  501    0 -0.53030960394E+02  0.55630544809E+02  0.19397739301E+03  0.27541004823E+03  0.17976769842E+03 0.  0.
         24    2    5    5    0    0  0.43934963246E+01 -0.94011696203E+01  0.16285778551E+03  0.18312130525E+03  0.83084711800E+02 0.  0.
          5    1    5    5  501    0 -0.57424456718E+02  0.65031714430E+02  0.31119607496E+02  0.92288742985E+02  0.47000000000E+01 0. -1.
        -13    1    6    6    0    0  0.25059115140E+02 -0.25407766851E+02  0.26941352752E+02  0.44714095721E+02  0.00000000000E+00 0.  1.
         14    1    6    6    0    0 -0.20665618816E+02  0.16006597231E+02  0.13591643276E+03  0.13840720953E+03  0.00000000000E+00 0. -1.
         -5    1    3    3    0  503 -0.25042265252E+02 -0.75884108884E+00 -0.10120334396E+03  0.10436425498E+03  0.47000000000E+01 0.  1.
         11    1    4    4    0    0  0.42299504852E+02  0.14679532446E+01 -0.51135689916E+02  0.66379678974E+02  0.00000000000E+00 0. -1.
        -12    1    4    4    0    0  0.35773720793E+02 -0.56339656965E+02  0.78458393551E+01  0.67197271087E+02  0.00000000000E+00 0.  1.
</event>
<event>
12    1  0.8421768E-002  0.1861380E+03  0.7818608E-02  0.1162279E+00
         21   -1    0    0  503  502  0.00000000000E+00  0.00000000000E+00  0.28592360538E+03  0.28592360538E+03  0.00000000000E+00 0.  1.
         21   -1    0    0  501  503 -0.00000000000E+00 -0.00000000000E+00 -0.26936136955E+03  0.26936136955E+03  0.00000000000E+00 0.  1.
          6    2    1    2  501    0 -0.50768022894E+02 -0.50678232030E+02 -0.19821859798E+03  0.27106997680E+03  0.17041902590E+03 0.  0.
         24    2    3    3    0    0 -0.67442096148E+02 -0.22686216322E+02 -0.47681957014E+02  0.11697601866E+03  0.79666298856E+02 0.  0.
         -6    2    1    2    0  502  0.50768022894E+02  0.50678232030E+02  0.21478083381E+03  0.28421499812E+03  0.17176054038E+03 0.  0.
        -24    2    5    5    0    0  0.78200273643E+02  0.83304785804E+02  0.13727514400E+03  0.19563598059E+03  0.79837344687E+02 0.  0.
          5    1    3    3  501    0  0.16674073254E+02 -0.27992015708E+02 -0.15053664097E+03  0.15409395814E+03  0.47000000000E+01 0. -1.
        -11    1    4    4    0    0 -0.24147194921E+02  0.27797626597E+02 -0.31675266953E+02  0.48570748435E+02  0.00000000000E+00 0.  1.
         12    1    4    4    0    0 -0.43294901228E+02 -0.50483842919E+02 -0.16006690061E+02  0.68405270228E+02  0.00000000000E+00 0. -1.
         -5    1    5    5    0  502 -0.27432250749E+02 -0.32626553774E+02  0.77505689813E+02  0.88579017525E+02  0.47000000000E+01 0.  1.
         11    1    6    6    0    0  0.95275828685E+01 -0.33763079090E+01 -0.81183500291E+01  0.12964640281E+02  0.00000000000E+00 0. -1.
        -12    1    6    6    0    0  0.68672690774E+02  0.86681093713E+02  0.14539349403E+03  0.18267134031E+03  0.00000000000E+00 0.  1.
</event>
<event>
12    1  0.8421768E-002  0.1833450E+03  0.7818608E-02  0.1164961E+00
         21   -1    0    0  503  502  0.00000000000E+00  0.00000000000E+00  0.71461670417E+02  0.71461670417E+02  0.00000000000E+00 0.  1.
         21   -1    0    0  501  503 -0.00000000000E+00 -0.00000000000E+00 -0.49830856106E+03  0.49830856106E+03  0.00000000000E+00 0.  1.
          6    2    1    2  501    0 -0.56152122345E+02 -0.18776697931E+02 -0.28451995085E+03  0.33766605639E+03  0.17193352779E+03 0.  0.
         24    2    3    3    0    0  0.33223115362E+02 -0.27258362968E+02 -0.11338424495E+03  0.14435441268E+03  0.78328894501E+02 0.  0.
         -6    2    1    2    0  502  0.56152122345E+02  0.18776697931E+02 -0.14232693979E+03  0.23210417508E+03  0.17352165592E+03 0.  0.
        -24    2    5    5    0    0 -0.34164041844E+02  0.28563537291E+02 -0.49609976565E+02  0.10221454113E+03  0.77482935063E+02 0.  0.
          5    1    3    3  501    0 -0.89375237706E+02  0.84816650369E+01 -0.17113570591E+03  0.19331164371E+03  0.47000000000E+01 0. -1.
        -11    1    4    4    0    0 -0.19635410921E+02 -0.45789646622E-01 -0.42694694052E+01  0.20094273506E+02  0.00000000000E+00 0.  1.
         12    1    4    4    0    0  0.52858526283E+02 -0.27212573321E+02 -0.10911477554E+03  0.12426013918E+03  0.00000000000E+00 0. -1.
         -5    1    5    5    0  502  0.90316164189E+02 -0.97868393603E+01 -0.92716963227E+02  0.12988963395E+03  0.47000000000E+01 0.  1.
         11    1    6    6    0    0 -0.28436711644E+02  0.69466720675E+01 -0.67501459870E+02  0.73575470821E+02  0.00000000000E+00 0. -1.
        -12    1    6    6    0    0 -0.57273302004E+01  0.21616865224E+02  0.17891483305E+02  0.28639070309E+02  0.00000000000E+00 0.  1.
</event>
<event>
12    1  0.8421768E-002  0.1744537E+03  0.7818608E-02  0.1175646E+00
         21   -1    0    0  501  502  0.00000000000E+00  0.00000000000E+00  0.39084388602E+03  0.39084388602E+03  0.00000000000E+00 0.  1.
         21   -1    0    0  502  503 -0.00000000000E+00 -0.00000000000E+00 -0.73963510665E+02  0.73963510665E+02  0.00000000000E+00 0.  1.
         -6    2    1    2    0  503  0.17269673729E+01  0.35137908970E+02  0.14515358449E+03  0.22001320940E+03  0.16155059318E+03 0.  0.
        -24    2    3    3    0    0 -0.52003353018E+02  0.39157038018E+02  0.63678062275E+02  0.12222030860E+03  0.81518622823E+02 0.  0.
          6    2    1    2  501    0 -0.17269673729E+01 -0.35137908970E+02  0.17172679086E+03  0.24479418728E+03  0.17086968240E+03 0.  0.
         24    2    5    5    0    0  0.35161444110E+02 -0.33049103134E+02  0.18402493277E+03  0.20557107794E+03  0.77882744128E+02 0.  0.
          5    1    5    5  501    0 -0.36888411482E+02 -0.20888058359E+01 -0.12298141916E+02  0.39223109338E+02  0.47000000000E+01 0. -1.
        -13    1    6    6    0    0 -0.12460179724E+02 -0.41130941986E+02  0.77839443731E+02  0.88915631178E+02  0.00000000000E+00 0.  1.
         14    1    6    6    0    0  0.47621623834E+02  0.80818388520E+01  0.10618548904E+03  0.11665544676E+03  0.00000000000E+00 0. -1.
         -5    1    3    3    0  503  0.53730320390E+02 -0.40191290477E+01  0.81475522217E+02  0.97792900807E+02  0.47000000000E+01 0. -1.
         13    1    4    4    0    0 -0.53718819527E+02 -0.99676392186E+01  0.27355052693E+02  0.61101262759E+02  0.00000000000E+00 0. -1.
        -14    1    4    4    0    0  0.17154665094E+01  0.49124677236E+02  0.36323009582E+02  0.61119045837E+02  0.00000000000E+00 0.  1.
</event>
<event>
12    1  0.8421768E-002  0.2164420E+03  0.7818608E-02  0.1136691E+00
         21   -1    0    0  503  502  0.00000000000E+00  0.00000000000E+00  0.40879401525E+03  0.40879401525E+03  0.00000000000E+00 0.  1.
         21   -1    0    0  501  503 -0.00000000000E+00 -0.00000000000E+00 -0.12258739786E+03  0.12258739786E+03  0.00000000000E+00 0.  1.
          6    2    1    2  501    0  0.64411762434E+02 -0.11364743108E+03  0.21221022727E+03  0.30264010391E+03  0.17173595491E+03 0.  0.
         24    2    3    3    0    0 -0.13488784835E+02 -0.60072748597E+02  0.44145278536E+02  0.10974982718E+03  0.79407408395E+02 0.  0.
         -6    2    1    2    0  502 -0.64411762434E+02  0.11364743108E+03  0.73996390124E+02  0.22874130919E+03  0.17257609060E+03 0.  0.
        -24    2    5    5    0    0  0.83709357753E+01  0.11989119605E+03  0.49440349255E+02  0.15153123923E+03  0.77932001589E+02 0.  0.
          5    1    3    3  501    0  0.77900547270E+02 -0.53574682481E+02  0.16806494873E+03  0.19289027674E+03  0.47000000000E+01 0. -1.
        -11    1    4    4    0    0  0.26929379173E+02 -0.25480894950E+02  0.42674751040E+02  0.56529654576E+02  0.00000000000E+00 0.  1.
         12    1    4    4    0    0 -0.40418164009E+02 -0.34591853646E+02  0.14705274964E+01  0.53220172601E+02  0.00000000000E+00 0. -1.
         -5    1    5    5    0  502 -0.72782698209E+02 -0.62437649747E+01  0.24556040869E+02  0.77210069958E+02  0.47000000000E+01 0.  1.
         11    1    6    6    0    0 -0.26313355268E+01 -0.14812510422E+01  0.27544840915E+02  0.27709859118E+02  0.00000000000E+00 0. -1.
        -12    1    6    6    0    0  0.11002271302E+02  0.12137244709E+03  0.21895508340E+02  0.12382138011E+03  0.00000000000E+00 0.  1.
</event>
<event>
12    1  0.8421768E-002  0.1913901E+03  0.7818608E-02  0.1157350E+00
         21   -1    0    0  501  502  0.00000000000E+00  0.00000000000E+00  0.12851093539E+04  0.12851093539E+04  0.00000000000E+00 0. -1.
         21   -1    0    0  502  503 -0.00000000000E+00 -0.00000000000E+00 -0.28931236379E+02  0.28931236379E+02  0.00000000000E+00 0. -1.
         -6    2    1    2    0  503  0.40971002480E+02  0.72384816077E+02  0.53917496400E+03  0.57193298887E+03  0.17169600259E+03 0.  0.
        -24    2    3    3    0    0 -0.18805041911E+02  0.88262436334E+02  0.37013735012E+03  0.39187444501E+03  0.91760751037E+02 0.  0.
          6    2    1    2  501    0 -0.40971002480E+02 -0.72384816077E+02  0.71700315352E+03  0.74210760141E+03  0.17237164870E+03 0.  0.
         24    2    5    5    0    0  0.37554176543E+02 -0.36923633873E+02  0.51620324219E+03  0.52355235994E+03  0.69768298253E+02 0.  0.
          5    1    5    5  501    0 -0.78525179023E+02 -0.35461182203E+02  0.20079991133E+03  0.21855524147E+03  0.47000000000E+01 0. -1.
        -13    1    6    6    0    0  0.24769215374E+02 -0.46994792490E+02  0.20013326361E+03  0.20706363214E+03  0.00000000000E+00 0.  1.
         14    1    6    6    0    0  0.12784961169E+02  0.10071158617E+02  0.31606997857E+03  0.31648872780E+03  0.00000000000E+00 0. -1.
         -5    1    3    3    0  503  0.59776044391E+02 -0.15877620258E+02  0.16903761388E+03  0.18005854385E+03  0.47000000000E+01 0.  1.
         11    1    4    4    0    0  0.17075668553E+02  0.83532778002E+02  0.31158994211E+03  0.32304426241E+03  0.00000000000E+00 0. -1.
        -12    1    4    4    0    0 -0.35880710463E+02  0.47296583324E+01  0.58547408014E+02  0.68830182598E+02  0.00000000000E+00 0.  1.
</event>
<event>
12    1  0.8421768E-002  0.2375526E+03  0.7818608E-02  0.1121502E+00
         21   -1    0    0  503  502  0.00000000000E+00  0.00000000000E+00  0.36842921017E+03  0.36842921017E+03  0.00000000000E+00 0.  1.
         21   -1    0    0  501  503 -0.00000000000E+00 -0.00000000000E+00 -0.71802194400E+03  0.71802194400E+03  0.00000000000E+00 0. -1.
          6    2    1    2  501    0 -0.14714719264E+03 -0.71151662671E+02 -0.65675356810E+03  0.69839563785E+03  0.17238434485E+03 0.  0.
         24    2    3    3    0    0 -0.42761757621E+02  0.11184311277E+02 -0.15838157220E+03  0.18257370350E+03  0.79339637417E+02 0.  0.
         -6    2    1    2    0  502  0.14714719264E+03  0.71151662671E+02  0.30716083427E+03  0.38805551632E+03  0.17182680300E+03 0.  0.
        -24    2    5    5    0    0  0.99732038529E+02 -0.24895330196E+02  0.16788687003E+03  0.21229275350E+03  0.79472983357E+02 0.  0.
          5    1    3    3  501    0 -0.10438543502E+03 -0.82335973948E+02 -0.49837199591E+03  0.51582193435E+03  0.47000000000E+01 0. -1.
        -11    1    4    4    0    0 -0.64795296410E+02  0.12018874857E+02 -0.96276836210E+02  0.11667096031E+03  0.00000000000E+00 0.  1.
         12    1    4    4    0    0  0.22033538789E+02 -0.83456357993E+00 -0.62104735986E+02  0.65902743189E+02  0.00000000000E+00 0. -1.
         -5    1    5    5    0  502  0.47415154114E+02  0.96046992866E+02  0.13927396424E+03  0.17576276282E+03  0.47000000000E+01 0.  1.
         13    1    6    6    0    0  0.10767386618E+03 -0.19810907024E+02  0.11580528789E+03  0.15936435674E+03  0.00000000000E+00 0. -1.
        -14    1    6    6    0    0 -0.79418276476E+01 -0.50844231722E+01  0.52081582140E+02  0.52928396760E+02  0.00000000000E+00 0.  1.
</event>
<event>
12    1  0.8421768E-002  0.3192308E+03  0.7818608E-02  0.1076068E+00
         21   -1    0    0  503  502  0.00000000000E+00  0.00000000000E+00  0.11174687868E+03  0.11174687868E+03  0.00000000000E+00 0. -1.
         21   -1    0    0  501  503 -0.00000000000E+00 -0.00000000000E+00 -0.10210887433E+04  0.10210887433E+04  0.00000000000E+00 0.  1.
          6    2    1    2  501    0 -0.26774064669E+03  0.21692712232E+02 -0.26779386066E+03  0.41625197330E+03  0.17145415076E+03 0.  0.
         24    2    3    3    0    0 -0.40588516880E+02  0.12605663080E+02 -0.85689941382E+02  0.12493669399E+03  0.80374629130E+02 0.  0.
         -6    2    1    2    0  502  0.26774064669E+03 -0.21692712232E+02 -0.64154800392E+03  0.71658364864E+03  0.17248958376E+03 0.  0.
        -24    2    5    5    0    0  0.11379335451E+03  0.42119780314E+02 -0.22225126371E+03  0.26535903791E+03  0.79352324197E+02 0.  0.
          5    1    3    3  501    0 -0.22715212981E+03  0.90870491516E+01 -0.18210391928E+03  0.29131527930E+03  0.47000000000E+01 0. -1.
        -11    1    4    4    0    0 -0.14153394255E+02  0.23987924428E+02  0.62945755484E+01  0.28554522735E+02  0.00000000000E+00 0.  1.
         12    1    4    4    0    0 -0.26435122625E+02 -0.11382261348E+02 -0.91984516930E+02  0.96382171259E+02  0.00000000000E+00 0. -1.
         -5    1    5    5    0  502  0.15394729218E+03 -0.63812492546E+02 -0.41929674021E+03  0.45122461073E+03  0.47000000000E+01 0.  1.
         11    1    6    6    0    0 -0.43089098999E+01  0.19008388944E+01 -0.62426315437E+02  0.62603711967E+02  0.00000000000E+00 0. -1.
        -12    1    6    6    0    0  0.11810226441E+03  0.40218941420E+02 -0.15982494827E+03  0.20275532594E+03  0.00000000000E+00 0.  1.
</event>
<event>
12    1  0.8421768E-002  0.1804645E+03  0.7818608E-02  0.1167775E+00
         21   -1    0    0  501  502  0.00000000000E+00  0.00000000000E+00  0.28792865258E+03  0.28792865258E+03  0.00000000000E+00 0.  1.
         21   -1    0    0  502  503 -0.00000000000E+00 -0.00000000000E+00 -0.11558750199E+03  0.11558750199E+03  0.00000000000E+00 0.  1.
         -6    2    1    2    0  503  0.34867677911E+02  0.36408146069E+02  0.51149325858E+02  0.18757315516E+03  0.17328048631E+03 0.  0.
        -24    2    3    3    0    0 -0.22659088961E+02  0.42758991583E+02  0.78481654869E+02  0.12339521226E+03  0.82007576378E+02 0.  0.
          6    2    1    2  501    0 -0.34867677911E+02 -0.36408146069E+02  0.12119182473E+03  0.21594299942E+03  0.17147190018E+03 0.  0.
         24    2    5    5    0    0 -0.63677550484E+02 -0.19831842909E+02  0.16313146071E+02  0.10582302021E+03  0.80524905725E+02 0.  0.
          5    1    5    5  501    0  0.28809872573E+02 -0.16576303160E+02  0.10487867866E+03  0.11011997921E+03  0.47000000000E+01 0. -1.
        -11    1    6    6    0    0 -0.33733104390E+02  0.30810781635E+02  0.57031294637E+01  0.46040767614E+02  0.00000000000E+00 0.  1.
         12    1    6    6    0    0 -0.29944446093E+02 -0.50642624545E+02  0.10610016608E+02  0.59782252592E+02  0.00000000000E+00 0. -1.
         -5    1    3    3    0  503  0.57526766872E+02 -0.63508455144E+01 -0.27332329011E+02  0.64177942898E+02  0.47000000000E+01 0.  1.
         13    1    4    4    0    0 -0.20841901632E+02  0.49686026298E+02  0.10321655308E+02  0.54860027718E+02  0.00000000000E+00 0. -1.
        -14    1    4    4    0    0 -0.18171873293E+01 -0.69270347149E+01  0.68159999560E+02  0.68535184539E+02  0.00000000000E+00 0.  1.
</event>
<event>
12    1  0.8421768E-002  0.1987765E+03  0.7818608E-02  0.1150978E+00
         21   -1    0    0  501  502  0.00000000000E+00  0.00000000000E+00  0.59612597343E+02  0.59612597343E+02  0.00000000000E+00 0.  1.
         21   -1    0    0  502  503 -0.00000000000E+00 -0.00000000000E+00 -0.77782005596E+03  0.77782005596E+03  0.00000000000E+00 0. -1.
         -6    2    1    2    0  503 -0.10041389059E+03  0.16193531427E+01 -0.52157980664E+03  0.55783558354E+03  0.17043905610E+03 0.  0.
        -24    2    3    3    0    0 -0.10640367393E+03  0.15483019434E+02 -0.52360937460E+03  0.54188917662E+03  0.88969864810E+02 0.  0.
          6    2    1    2  501    0  0.10041389059E+03 -0.16193531427E+01 -0.19662765198E+03  0.27959706976E+03  0.17154158729E+03 0.  0.
         24    2    5    5    0    0  0.10516879174E+03 -0.55111457128E+02 -0.12436853237E+03  0.18944450663E+03  0.79523215381E+02 0.  0.
          5    1    5    5  501    0 -0.47549011491E+01  0.53492103986E+02 -0.72259119601E+02  0.90152563132E+02  0.47000000000E+01 0. -1.
        -11    1    6    6    0    0  0.55268061170E+02 -0.65958055855E+02 -0.50923468532E+02  0.99991116431E+02  0.00000000000E+00 0.  1.
         12    1    6    6    0    0  0.49900730565E+02  0.10846598727E+02 -0.73445063842E+02  0.89453390197E+02  0.00000000000E+00 0. -1.
         -5    1    3    3    0  503  0.59897833471E+01 -0.13863666291E+02  0.20295679663E+01  0.15946406922E+02  0.47000000000E+01 0.  1.
         11    1    4    4    0    0 -0.48048654053E+01  0.25081295698E+02 -0.38761638330E+02  0.46417913907E+02  0.00000000000E+00 0. -1.
        -12    1    4    4    0    0 -0.10159880853E+03 -0.95982762637E+01 -0.48484773627E+03  0.49547126271E+03  0.00000000000E+00 0.  1.
</event>
<event>
12    1  0.8421768E-002  0.2120135E+03  0.7818608E-02  0.1140173E+00
         21   -1    0    0  501  502  0.00000000000E+00  0.00000000000E+00  0.14249194397E+03  0.14249194397E+03  0.00000000000E+00 0.  1.
         21   -1    0    0  502  503 -0.00000000000E+00 -0.00000000000E+00 -0.33570999911E+03  0.33570999911E+03  0.00000000000E+00 0. -1.
         -6    2    1    2    0  503 -0.12095234756E+03  0.27172871132E+01 -0.15720369783E+03  0.26315131057E+03  0.17291256639E+03 0.  0.
        -24    2    3    3    0    0 -0.15737960166E+03 -0.34487884532E+01 -0.12725584680E+03  0.21536083966E+03  0.73525557141E+02 0.  0.
          6    2    1    2  501    0  0.12095234756E+03 -0.27172871132E+01 -0.36014357308E+02  0.21505063250E+03  0.17410596365E+03 0.  0.
         24    2    5    5    0    0  0.11665653441E+03  0.14542079100E+02 -0.83070929085E+02  0.16452587936E+03  0.79672872637E+02 0.  0.
          5    1    5    5  501    0  0.42958131503E+01 -0.17259366214E+02  0.47056571778E+02  0.50524753143E+02  0.47000000000E+01 0. -1.
        -11    1    6    6    0    0  0.28531998991E+02  0.36721488967E+02 -0.91740835207E+01  0.47399435933E+02  0.00000000000E+00 0.  1.
         12    1    6    6    0    0  0.88124535418E+02 -0.22179409867E+02 -0.73896845565E+02  0.11712644342E+03  0.00000000000E+00 0. -1.
         -5    1    3    3    0  503  0.36427254101E+02  0.61660755664E+01 -0.29947851031E+02  0.47790470918E+02  0.47000000000E+01 0.  1.
         13    1    4    4    0    0 -0.26271804868E+02  0.17875787179E+02 -0.53759127494E+00  0.31781134383E+02  0.00000000000E+00 0. -1.
        -14    1    4    4    0    0 -0.13110779679E+03 -0.21324575632E+02 -0.12671825552E+03  0.18357970527E+03  0.00000000000E+00 0.  1.
</event>
<event>
12    1  0.8421768E-002  0.1913762E+03  0.7818608E-02  0.1158989E+00
         21   -1    0    0  501  502  0.00000000000E+00  0.00000000000E+00  0.19599340401E+04  0.19599340401E+04  0.00000000000E+00 0. -1.
         21   -1    0    0  502  503 -0.00000000000E+00 -0.00000000000E+00 -0.29616092930E+02  0.29616092930E+02  0.00000000000E+00 0. -1.
         -6    2    1    2    0  503 -0.13233477649E+02  0.63154036154E+02  0.35267837939E+03  0.40125664481E+03  0.18017019316E+03 0.  0.
        -24    2    3    3    0    0  0.18548377145E+02  0.98299488585E+02  0.17917388211E+03  0.22133669123E+03  0.82944674955E+02 0.  0.
          6    2    1    2  501    0  0.13233477649E+02 -0.63154036154E+02  0.15776395678E+04  0.15882934882E+04  0.17194778765E+03 0.  0.
         24    2    5    5    0    0 -0.18402951296E+02  0.18227877175E+02  0.51051142763E+03  0.51758884316E+03  0.81273419385E+02 0.  0.
          5    1    5    5  501    0  0.31636428945E+02 -0.81381913329E+02  0.10671281401E+04  0.10707046451E+04  0.47000000000E+01 0. -1.
        -13    1    6    6    0    0 -0.29845896342E+02 -0.72445874470E+00  0.47365062412E+03  0.47459057734E+03  0.00000000000E+00 0.  1.
         14    1    6    6    0    0  0.11442945045E+02  0.18952335919E+02  0.36860803507E+02  0.42998265817E+02  0.00000000000E+00 0. -1.
         -5    1    3    3    0  503 -0.31781854794E+02 -0.35145452431E+02  0.17350449727E+03  0.17991995358E+03  0.47000000000E+01 0.  1.
         13    1    4    4    0    0  0.18935915704E+02  0.11327223040E+03  0.16149515275E+03  0.19816622176E+03  0.00000000000E+00 0. -1.
        -14    1    4    4    0    0 -0.38753855894E+00 -0.14972741819E+02  0.17678729359E+02  0.23170469471E+02  0.00000000000E+00 0.  1.
</event>
<event>
12    1  0.8421768E-002  0.1854233E+03  0.7818608E-02  0.1163511E+00
         21   -1    0    0  503  502  0.00000000000E+00  0.00000000000E+00  0.55643105629E+02  0.55643105629E+02  0.00000000000E+00 0.  1.
         21   -1    0    0  501  503 -0.00000000000E+00 -0.00000000000E+00 -0.61198236607E+03  0.61198236607E+03  0.00000000000E+00 0.  1.
          6    2    1    2  501    0 -0.10851465072E+02 -0.67665252636E+02 -0.31436906707E+03  0.36497905060E+03  0.17229467878E+03 0.  0.
         24    2    3    3    0    0 -0.35430695912E+02 -0.92568587407E+02 -0.14495459687E+03  0.19192510703E+03  0.77454076498E+02 0.  0.
         -6    2    1    2    0  502  0.10851465072E+02  0.67665252636E+02 -0.24197019336E+03  0.30264642110E+03  0.16837143765E+03 0.  0.
        -24    2    5    5    0    0 -0.88437455545E+01  0.10044293785E+02 -0.38223693659E+02  0.89942865972E+02  0.80309206877E+02 0.  0.
          5    1    3    3  501    0  0.24579230839E+02  0.24903334771E+02 -0.16941447020E+03  0.17305394357E+03  0.47000000000E+01 0. -1.
        -13    1    4    4    0    0 -0.52935018972E+02 -0.78624834268E+02 -0.82771733996E+02  0.12583775565E+03  0.00000000000E+00 0.  1.
         14    1    4    4    0    0  0.17504323060E+02 -0.13943753140E+02 -0.62182862874E+02  0.66087351382E+02  0.00000000000E+00 0. -1.
         -5    1    5    5    0  502  0.19695210627E+02  0.57620958852E+02 -0.20374649971E+03  0.21270355513E+03  0.47000000000E+01 0.  1.
         13    1    6    6    0    0  0.20620132490E+02  0.21032379618E+02  0.11076027856E+02  0.31467908246E+02  0.00000000000E+00 0. -1.
        -14    1    6    6    0    0 -0.29463878045E+02 -0.10988085833E+02 -0.49299721514E+02  0.58474957726E+02  0.00000000000E+00 0.  1.
</event>
<event>
12    1  0.8421768E-002  0.2504253E+03  0.7818608E-02  0.1113140E+00
         21   -1    0    0  503  502  0.00000000000E+00  0.00000000000E+00  0.44806721598E+03  0.44806721598E+03  0.00000000000E+00 0.  1.
         21   -1    0    0  501  503 -0.00000000000E+00 -0.00000000000E+00 -0.21262066320E+03  0.21262066320E+03  0.00000000000E+00 0.  1.
          6    2    1    2  501    0 -0.35557997513E+02 -0.17723051242E+03 -0.75772176969E+02  0.26163762534E+03  0.17331416120E+03 0.  0.
         24    2    3    3    0    0  0.48534815714E+02 -0.88337974134E+02 -0.28439711948E+02  0.13035191841E+03  0.77611722106E+02 0.  0.
         -6    2    1    2    0  502  0.35557997513E+02  0.17723051242E+03  0.31121872975E+03  0.39905025384E+03  0.17236293576E+03 0.  0.
        -24    2    5    5    0    0  0.71364514560E+02  0.13911008874E+03  0.15476136668E+03  0.23401610639E+03  0.79799415450E+02 0.  0.
          5    1    3    3  501    0 -0.84092813227E+02 -0.88892538285E+02 -0.47332465021E+02  0.13128570693E+03  0.47000000000E+01 0. -1.
        -11    1    4    4    0    0  0.41114365833E+02 -0.64815642991E+02 -0.54755005097E+02  0.94284512182E+02  0.00000000000E+00 0.  1.
         12    1    4    4    0    0  0.74204498806E+01 -0.23522331142E+02  0.26315293149E+02  0.36067406232E+02  0.00000000000E+00 0. -1.
         -5    1    5    5    0  502 -0.35806517046E+02  0.38120423674E+02  0.15645736307E+03  0.16503414744E+03  0.47000000000E+01 0.  1.
         11    1    6    6    0    0  0.36948468055E+01  0.65095367528E+02  0.24566409376E+02  0.69674724515E+02  0.00000000000E+00 0. -1.
        -12    1    6    6    0    0  0.67669667754E+02  0.74014721217E+02  0.13019495730E+03  0.16434138188E+03  0.00000000000E+00 0.  1.
</event>
<event>
12    1  0.8421768E-002  0.2363749E+03  0.7818608E-02  0.1122392E+00
         21   -1    0    0  503  502  0.00000000000E+00  0.00000000000E+00  0.39430192554E+03  0.39430192554E+03  0.00000000000E+00 0.  1.
         21   -1    0    0  501  503 -0.00000000000E+00 -0.00000000000E+00 -0.45500122888E+03  0.45500122888E+03  0.00000000000E+00 0.  1.
          6    2    1    2  501    0 -0.16200762582E+03 -0.12407544461E+02 -0.38306265969E+03  0.45012229325E+03  0.17167603107E+03 0.  0.
         24    2    3    3    0    0 -0.12307142061E+03 -0.73949190399E+02 -0.24798716422E+03  0.29659417941E+03  0.76520692047E+02 0.  0.
         -6    2    1    2    0  502  0.16200762582E+03  0.12407544461E+02  0.32236335635E+03  0.39918086116E+03  0.17037255771E+03 0.  0.
        -24    2    5    5    0    0  0.28575846865E+02 -0.29212112772E+02  0.82313906667E+02  0.12136426016E+03  0.79270283559E+02 0.  0.
          5    1    3    3  501    0 -0.38936205206E+02  0.61541645938E+02 -0.13507549547E+03  0.15352811383E+03  0.47000000000E+01 0. -1.
        -13    1    4    4    0    0 -0.89664638984E+02 -0.27573619210E+02 -0.96037574508E+02  0.13425076416E+03  0.00000000000E+00 0.  1.
         14    1    4    4    0    0 -0.33406781628E+02 -0.46375571188E+02 -0.15194958971E+03  0.16234341525E+03  0.00000000000E+00 0. -1.
         -5    1    5    5    0  502  0.13343177895E+03  0.41619657233E+02  0.24004944968E+03  0.27781660101E+03  0.47000000000E+01 0.  1.
         11    1    6    6    0    0 -0.19005460432E+02  0.14785760778E+02  0.18014566050E+02  0.30072426540E+02  0.00000000000E+00 0. -1.
        -12    1    6    6    0    0  0.47581307298E+02 -0.43997873550E+02  0.64299340617E+02  0.91291833615E+02  0.00000000000E+00 0.  1.
</event>
<event>
12    1  0.8421768E-002  0.3058090E+03  0.7818608E-02  0.1082741E+00
         21   -1    0    0  503  502  0.00000000000E+00  0.00000000000E+00  0.57423633625E+03  0.57423633625E+03  0.00000000000E+00 0. -1.
         21   -1    0    0  501  503 -0.00000000000E+00 -0.00000000000E+00 -0.22151328054E+03  0.22151328054E+03  0.00000000000E+00 0.  1.
          6    2    1    2  501    0  0.18008781453E+03  0.17157652818E+03 -0.30510650038E+02  0.30732725069E+03  0.17790169555E+03 0.  0.
         24    2    3    3    0    0  0.20392817949E+03  0.16393920590E+03 -0.82014629114E+01  0.27346751762E+03  0.79085103407E+02 0.  0.
         -6    2    1    2    0  502 -0.18008781453E+03 -0.17157652818E+03  0.38323370575E+03  0.48842236610E+03  0.17267949651E+03 0.  0.
        -24    2    5    5    0    0 -0.93818415673E+02 -0.24212426813E+02  0.11016968155E+03  0.16632822013E+03  0.78355480652E+02 0.  0.
          5    1    3    3  501    0 -0.23840364953E+02  0.76373222824E+01 -0.22309187127E+02  0.33859733061E+02  0.47000000000E+01 0. -1.
        -13    1    4    4    0    0  0.24852953198E+02  0.19593667151E+02 -0.28469223224E+02  0.42568506505E+02  0.00000000000E+00 0.  1.
         14    1    4    4    0    0  0.17907522629E+03  0.14434553875E+03  0.20267760312E+02  0.23089901112E+03  0.00000000000E+00 0. -1.
         -5    1    5    5    0  502 -0.86269398862E+02 -0.14736410137E+03  0.27306402420E+03  0.32209414597E+03  0.47000000000E+01 0.  1.
         11    1    6    6    0    0 -0.64284804114E+02 -0.88731529556E+01  0.11563794206E+03  0.13260242278E+03  0.00000000000E+00 0. -1.
        -12    1    6    6    0    0 -0.29533611559E+02 -0.15339273857E+02 -0.54682605083E+01  0.33725797354E+02  0.00000000000E+00 0.  1.
</event>
<event>
12    1  0.8421768E-002  0.2270094E+03  0.7818608E-02  0.1128833E+00
         21   -1    0    0  503  502  0.00000000000E+00  0.00000000000E+00  0.28154374589E+03  0.28154374589E+03  0.00000000000E+00 0. -1.
         21   -1    0    0  501  503 -0.00000000000E+00 -0.00000000000E+00 -0.42254979101E+03  0.42254979101E+03  0.00000000000E+00 0. -1.
          6    2    1    2  501    0 -0.33010383478E+02 -0.14436079961E+03 -0.33570019737E+03  0.40502988435E+03  0.17153675647E+03 0.  0.
         24    2    3    3    0    0 -0.69914083546E+02 -0.82899784696E+02 -0.13007398088E+03  0.18721443416E+03  0.79810090063E+02 0.  0.
         -6    2    1    2    0  502  0.33010383478E+02  0.14436079961E+03  0.19469415225E+03  0.29906365255E+03  0.17205676237E+03 0.  0.
        -24    2    5    5    0    0  0.18496999602E+02  0.11894846291E+03  0.21789449450E+03  0.26142363331E+03  0.79833761650E+02 0.  0.
          5    1    3    3  501    0  0.36903700069E+02 -0.61461014911E+02 -0.20562621648E+03  0.21781545018E+03  0.47000000000E+01 0. -1.
        -13    1    4    4    0    0 -0.56098555319E+02 -0.81668125748E+01 -0.40102650311E+02  0.69440386653E+02  0.00000000000E+00 0.  1.
         14    1    4    4    0    0 -0.13815528227E+02 -0.74732972121E+02 -0.89971330574E+02  0.11777404751E+03  0.00000000000E+00 0. -1.
         -5    1    5    5    0  502  0.14513383876E+02  0.25412336692E+02 -0.23200342247E+02  0.37640019236E+02  0.47000000000E+01 0.  1.
         11    1    6    6    0    0 -0.17106780545E+02  0.22653836492E+02  0.10525783448E+03  0.10901857625E+03  0.00000000000E+00 0. -1.
        -12    1    6    6    0    0  0.35603780146E+02  0.96294626422E+02  0.11263666001E+03  0.15240505706E+03  0.00000000000E+00 0.  1.
</event>
<event>
12    1  0.8421768E-002  0.2358607E+03  0.7818608E-02  0.1122625E+00
         21   -1    0    0  503  502  0.00000000000E+00  0.00000000000E+00  0.15516807064E+03  0.15516807064E+03  0.00000000000E+00 0.  1.
         21   -1    0    0  501  503 -0.00000000000E+00 -0.00000000000E+00 -0.42680481421E+03  0.42680481421E+03  0.00000000000E+00 0. -1.
          6    2    1    2  501    0  0.85365952306E+02  0.13567849282E+03 -0.25260430316E+03  0.34559978607E+03  0.17301525637E+03 0.  0.
         24    2    3    3    0    0  0.69864207563E+02  0.69514689563E+01 -0.11216182119E+03  0.15440059282E+03  0.79560910692E+02 0.  0.
         -6    2    1    2    0  502 -0.85365952306E+02 -0.13567849282E+03 -0.19032440410E+02  0.23637309877E+03  0.17266733568E+03 0.  0.
        -24    2    5    5    0    0  0.25266284652E+02 -0.30457670961E+02 -0.19349483140E+02  0.83621327188E+02  0.71077907977E+02 0.  0.
          5    1    3    3  501    0  0.15501744743E+02  0.12872702386E+03 -0.14044248197E+03  0.19119919326E+03  0.47000000000E+01 0. -1.
        -11    1    4    4    0    0  0.23189892222E+02  0.66968810272E+01  0.80507429941E+01  0.25444720071E+02  0.00000000000E+00 0.  1.
         12    1    4    4    0    0  0.46674315341E+02  0.25458792911E+00 -0.12021256418E+03  0.12895587274E+03  0.00000000000E+00 0. -1.
         -5    1    5    5    0  502 -0.11063223696E+03 -0.10522082185E+03  0.31704273004E+00  0.15275177158E+03  0.47000000000E+01 0.  1.
         13    1    6    6    0    0 -0.49360240536E+01 -0.43077910521E+02 -0.25519070628E+02  0.50311963528E+02  0.00000000000E+00 0. -1.
        -14    1    6    6    0    0  0.30202308705E+02  0.12620239560E+02  0.61695874880E+01  0.33309363660E+02  0.00000000000E+00 0.  1.
</event>
<event>
12    1  0.8421768E-002  0.2237212E+03  0.7818608E-02  0.1131174E+00
         21   -1    0    0  503  502  0.00000000000E+00  0.00000000000E+00  0.11418016513E+04  0.11418016513E+04  0.00000000000E+00 0.  1.
         21   -1    0    0  501  503 -0.00000000000E+00 -0.00000000000E+00 -0.12092569442E+03  0.12092569442E+03  0.00000000000E+00 0.  1.
          6    2    1    2  501    0  0.23132840419E+02 -0.14077190241E+03  0.62894782271E+01  0.22380955882E+03  0.17233486086E+03 0.  0.
         24    2    3    3    0    0  0.83758248758E+01 -0.20163484959E+02 -0.41470182069E+02  0.93167930615E+02  0.80521840057E+02 0.  0.
         -6    2    1    2    0  502 -0.23132840419E+02  0.14077190241E+03  0.10145864787E+04  0.10389177869E+04  0.17208308592E+03 0.  0.
        -24    2    5    5    0    0  0.48705305985E+02  0.74142654880E+02  0.67663062190E+03  0.68701378434E+03  0.79307006471E+02 0.  0.
          5    1    3    3  501    0  0.14757015543E+02 -0.12060841745E+03  0.47759660297E+02  0.13064162820E+03  0.47000000000E+01 0. -1.
        -13    1    4    4    0    0  0.41432011984E+02 -0.11342599661E+02 -0.40351961984E+02  0.58936805309E+02  0.00000000000E+00 0.  1.
         14    1    4    4    0    0 -0.33056187108E+02 -0.88208852976E+01 -0.11182200856E+01  0.34231125306E+02  0.00000000000E+00 0. -1.
         -5    1    5    5    0  502 -0.71838146403E+02  0.66629247528E+02  0.33795585675E+03  0.35190400256E+03  0.47000000000E+01 0.  1.
         11    1    6    6    0    0  0.42856445301E+02  0.30312750201E+01  0.16817476929E+03  0.17357596768E+03  0.00000000000E+00 0. -1.
        -12    1    6    6    0    0  0.58488606835E+01  0.71111379860E+02  0.50845585262E+03  0.51343781666E+03  0.00000000000E+00 0.  1.
</event>
<event>
12    1  0.8421768E-002  0.1863943E+03  0.7818608E-02  0.1162203E+00
         21   -1    0    0  501  502  0.00000000000E+00  0.00000000000E+00  0.22759515021E+03  0.22759515021E+03  0.00000000000E+00 0. -1.
         21   -1    0    0  502  503 -0.00000000000E+00 -0.00000000000E+00 -0.17716081402E+03  0.17716081402E+03  0.00000000000E+00 0. -1.
         -6    2    1    2    0  503 -0.56486463053E+02  0.31544231072E+02  0.10298255381E+03  0.21295123108E+03  0.17480578197E+03 0.  0.
        -24    2    3    3    0    0 -0.44761910338E+02  0.88196985229E+02  0.83152097479E+02  0.15161334158E+03  0.79309502649E+02 0.  0.
          6    2    1    2  501    0  0.56486463053E+02 -0.31544231072E+02 -0.52548217619E+02  0.19180473315E+03  0.17274831826E+03 0.  0.
         24    2    5    5    0    0 -0.56327223922E+01  0.37130215144E+02 -0.27575855464E+01  0.86561349479E+02  0.77941532622E+02 0.  0.
          5    1    5    5  501    0  0.62119185445E+02 -0.68674446215E+02 -0.49790632072E+02  0.10524338367E+03  0.47000000000E+01 0. -1.
        -11    1    6    6    0    0  0.73719888152E+01  0.99442609052E+01 -0.38131689350E+02  0.40090650740E+02  0.00000000000E+00 0.  1.
         12    1    6    6    0    0 -0.13004711207E+02  0.27185954239E+02  0.35374103804E+02  0.46470698740E+02  0.00000000000E+00 0. -1.
         -5    1    3    3    0  503 -0.11724552715E+02 -0.56652754157E+02  0.19830456330E+02  0.61337889499E+02  0.47000000000E+01 0.  1.
         11    1    4    4    0    0 -0.28764970122E+02  0.40296506249E+02 -0.52662090038E+01  0.49789204445E+02  0.00000000000E+00 0. -1.
        -12    1    4    4    0    0 -0.15996940216E+02  0.47900478980E+02  0.88418306483E+02  0.10182413714E+03  0.00000000000E+00 0.  1.
</event>
<event>
12    1  0.8421768E-002  0.2466661E+03  0.7818608E-02  0.1115749E+00
         21   -1    0    0  503  502  0.00000000000E+00  0.00000000000E+00  0.17343642926E+04  0.17343642926E+04  0.00000000000E+00 0.  1.
         21   -1    0    0  501  503 -0.00000000000E+00 -0.00000000000E+00 -0.35119698134E+02  0.35119698134E+02  0.00000000000E+00 0.  1.
          6    2    1    2  501    0 -0.27810074691E+02  0.17148816187E+03  0.76191692966E+03  0.80024340534E+03  0.17230934446E+03 0.  0.
         24    2    3    3    0    0 -0.60439441579E+02  0.11333402842E+03  0.67353081421E+03  0.68942475067E+03  0.71869333153E+02 0.  0.
         -6    2    1    2    0  502  0.27810074691E+02 -0.17148816187E+03  0.93732766480E+03  0.96924058538E+03  0.17510731347E+03 0.  0.
        -24    2    5    5    0    0  0.38718382471E+02 -0.19095848539E+03  0.90599020700E+03  0.93048221934E+03  0.83753501655E+02 0.  0.
          5    1    3    3  501    0  0.32629366888E+02  0.58154133449E+02  0.88386115442E+02  0.11081865467E+03  0.47000000000E+01 0. -1.
        -11    1    4    4    0    0 -0.41806817752E+02  0.11157358950E+02  0.18991177822E+03  0.19477879806E+03  0.00000000000E+00 0.  1.
         12    1    4    4    0    0 -0.18632623827E+02  0.10217666947E+03  0.48361903599E+03  0.49464595261E+03  0.00000000000E+00 0. -1.
         -5    1    5    5    0  502 -0.10908307780E+02  0.19470323525E+02  0.31337457799E+02  0.38758366041E+02  0.47000000000E+01 0.  1.
         13    1    6    6    0    0  0.32535912952E+02 -0.25048993020E+02  0.11125664992E+03  0.11859207323E+03  0.00000000000E+00 0. -1.
        -14    1    6    6    0    0  0.61824695195E+01 -0.16590949237E+03  0.79473355708E+03  0.81189014610E+03  0.00000000000E+00 0.  1.
</event>
<event>
12    1  0.8421768E-002  0.1768410E+03  0.7818608E-02  0.1171872E+00
         21   -1    0    0  501  502  0.00000000000E+00  0.00000000000E+00  0.14519851550E+04  0.14519851550E+04  0.00000000000E+00 0. -1.
         21   -1    0    0  502  503 -0.00000000000E+00 -0.00000000000E+00 -0.29550576965E+02  0.29550576965E+02  0.00000000000E+00 0. -1.
         -6    2    1    2    0  503 -0.39992972287E+02 -0.39279137838E+01  0.30865613015E+03  0.35380564219E+03  0.16821105620E+03 0.  0.
        -24    2    3    3    0    0 -0.77134122577E+02  0.33943916677E+02  0.24427666606E+03  0.27025598041E+03  0.79153919801E+02 0.  0.
          6    2    1    2  501    0  0.39992972287E+02  0.39279137838E+01  0.11137784479E+04  0.11277300897E+04  0.17221456985E+03 0.  0.
         24    2    5    5    0    0 -0.26605188204E+01 -0.25898467459E+02  0.29499130370E+03  0.30727691573E+03  0.81984295465E+02 0.  0.
          5    1    5    5  501    0  0.42653491107E+02  0.29826381243E+02  0.81878714415E+03  0.82045317401E+03  0.47000000000E+01 0. -1.
        -11    1    6    6    0    0 -0.27338313731E+01 -0.16123484456E+02  0.29687224860E+03  0.29732233783E+03  0.00000000000E+00 0.  1.
         12    1    6    6    0    0  0.73312552775E-01 -0.97749830037E+01 -0.18809448956E+01  0.99545778993E+01  0.00000000000E+00 0. -1.
         -5    1    3    3    0  503  0.37141150290E+02 -0.37871830461E+02  0.64379464084E+02  0.83549661777E+02  0.47000000000E+01 0.  1.
         13    1    4    4    0    0  0.10034039058E+02  0.97424994798E+01  0.56984894732E+01  0.15102020335E+02  0.00000000000E+00 0. -1.
        -14    1    4    4    0    0 -0.87168161636E+02  0.24201417197E+02  0.23857817659E+03  0.25515396008E+03  0.00000000000E+00 0.  1.
</event>
<event>
12    1  0.8421768E-002  0.2742520E+03  0.7818608E-02  0.1099169E+00
         21   -1    0    0  503  502  0.00000000000E+00  0.00000000000E+00  0.21641470170E+03  0.21641470170E+03  0.00000000000E+00 0. -1.
         21   -1    0    0  501  503 -0.00000000000E+00 -0.00000000000E+00 -0.34596945270E+03  0.34596945270E+03  0.00000000000E+00 0. -1.
          6    2    1    2  501    0 -0.20750565137E+03 -0.44429084241E+02 -0.80398454471E+02  0.28376169018E+03  0.17036503884E+03 0.  0.
         24    2    3    3    0    0 -0.93521200676E+02  0.34565740408E+02 -0.11729545023E+02  0.12893873825E+03  0.80911127841E+02 0.  0.
         -6    2    1    2    0  502  0.20750565137E+03  0.44429084241E+02 -0.49156296527E+02  0.27862246422E+03  0.17372851581E+03 0.  0.
        -24    2    5    5    0    0  0.16664598861E+03  0.14607601360E+02 -0.96302790401E+02  0.20931362809E+03  0.80954925272E+02 0.  0.
          5    1    3    3  501    0 -0.11398445069E+03 -0.78994824649E+02 -0.68668909449E+02  0.15482295194E+03  0.47000000000E+01 0. -1.
        -13    1    4    4    0    0 -0.79157302888E+02 -0.83104195769E+00  0.17214269670E+02  0.81011729469E+02  0.00000000000E+00 0.  1.
         14    1    4    4    0    0 -0.14363897788E+02  0.35396782366E+02 -0.28943814693E+02  0.47927008779E+02  0.00000000000E+00 0. -1.
         -5    1    5    5    0  502  0.40859662755E+02  0.29821482881E+02  0.47146493874E+02  0.69308836135E+02  0.47000000000E+01 0.  1.
         13    1    6    6    0    0  0.12628040288E+03 -0.90707193501E+01 -0.33446139792E+02  0.13094908311E+03  0.00000000000E+00 0. -1.
        -14    1    6    6    0    0  0.40365585732E+02  0.23678320710E+02 -0.62856650609E+02  0.78364544974E+02  0.00000000000E+00 0.  1.
</event>
<event>
12    1  0.8421768E-002  0.2249363E+03  0.7818608E-02  0.1132411E+00
         21   -1    0    0  501  502  0.00000000000E+00  0.00000000000E+00  0.81123084616E+03  0.81123084616E+03  0.00000000000E+00 0. -1.
         21   -1    0    0  502  503 -0.00000000000E+00 -0.00000000000E+00 -0.18119015787E+03  0.18119015787E+03  0.00000000000E+00 0. -1.
         -6    2    1    2    0  503  0.14630443778E+03 -0.46599325785E+01 -0.94802965895E+02  0.23347789623E+03  0.15523408840E+03 0.  0.
        -24    2    3    3    0    0  0.10636812980E+03 -0.15478567548E+02 -0.12460795771E+03  0.18226872620E+03  0.78364407334E+02 0.  0.
          6    2    1    2  501    0 -0.14630443778E+03  0.46599325785E+01  0.72484365418E+03  0.75894310780E+03  0.17079114259E+03 0.  0.
         24    2    5    5    0    0 -0.42514577168E+02  0.40397099522E+02  0.48731009855E+03  0.49722998180E+03  0.79543118738E+02 0.  0.
          5    1    5    5  501    0 -0.10378986061E+03 -0.35737166944E+02  0.23753355563E+03  0.26171312600E+03  0.47000000000E+01 0. -1.
        -11    1    6    6    0    0 -0.60562015254E+01  0.94305732204E+01  0.45343196998E+01  0.12090216843E+02  0.00000000000E+00 0.  1.
         12    1    6    6    0    0 -0.36458375643E+02  0.30966526302E+02  0.48277577885E+03  0.48513976496E+03  0.00000000000E+00 0. -1.
         -5    1    3    3    0  503  0.39936307983E+02  0.10818634969E+02  0.29804991816E+02  0.51209170029E+02  0.47000000000E+01 0.  1.
         13    1    4    4    0    0 -0.56888494111E+01 -0.18797406091E+02 -0.10357302105E+02  0.22203134694E+02  0.00000000000E+00 0. -1.
        -14    1    4    4    0    0  0.11205697921E+03  0.33188385432E+01 -0.11425065561E+03  0.16006559151E+03  0.00000000000E+00 0.  1.
</event>
<event>
12    1  0.8421768E-002  0.1922681E+03  0.7818608E-02  0.1156817E+00
         21   -1    0    0  503  502  0.00000000000E+00  0.00000000000E+00  0.46984852783E+02  0.46984852783E+02  0.00000000000E+00 0.  1.
         21   -1    0    0  501  503 -0.00000000000E+00 -0.00000000000E+00 -0.10588134404E+04  0.10588134404E+04  0.00000000000E+00 0.  1.
          6    2    1    2  501    0  0.76901199051E+02  0.38341301088E+02 -0.78808841232E+03  0.81079543569E+03  0.17006482035E+03 0.  0.
         24    2    3    3    0    0 -0.28223102455E+01  0.18452210764E+02 -0.59744209368E+03  0.60314302743E+03  0.80597808363E+02 0.  0.
         -6    2    1    2    0  502 -0.76901199051E+02 -0.38341301088E+02 -0.22374017530E+03  0.29500285749E+03  0.17199758749E+03 0.  0.
        -24    2    5    5    0    0 -0.52032532573E+02 -0.26608601926E+02 -0.24187897160E+03  0.26172805121E+03  0.81121721786E+02 0.  0.
          5    1    3    3  501    0  0.79723509296E+02  0.19889090325E+02 -0.19064631864E+03  0.20765240827E+03  0.47000000000E+01 0. -1.
        -13    1    4    4    0    0  0.45841390461E+01  0.49750199082E+02 -0.39815101298E+03  0.40127338035E+03  0.00000000000E+00 0.  1.
         14    1    4    4    0    0 -0.74064492916E+01 -0.31297988319E+02 -0.19929108070E+03  0.20186964708E+03  0.00000000000E+00 0. -1.
         -5    1    5    5    0  502 -0.24868666477E+02 -0.11732699163E+02  0.18138796300E+02  0.33274806284E+02  0.47000000000E+01 0.  1.
         11    1    6    6    0    0 -0.32256181931E+02 -0.55951636649E+02 -0.15817404054E+03  0.17085102873E+03  0.00000000000E+00 0. -1.
        -12    1    6    6    0    0 -0.19776350642E+02  0.29343034724E+02 -0.83704931057E+02  0.90877022479E+02  0.00000000000E+00 0.  1.
</event>
<event>
12    1  0.8421768E-002  0.2075549E+03  0.7818608E-02  0.1143783E+00
         21   -1    0    0  503  502  0.00000000000E+00  0.00000000000E+00  0.42553467925E+02  0.42553467925E+02  0.00000000000E+00 0.  1.
         21   -1    0    0  501  503 -0.00000000000E+00 -0.00000000000E+00 -0.11390121429E+04  0.11390121429E+04  0.00000000000E+00 0. -1.
          6    2    1    2  501    0 -0.11224424163E+03  0.22458532551E+02 -0.74863232016E+03  0.77651965459E+03  0.17154960717E+03 0.  0.
         24    2    3    3    0    0 -0.89028386490E+02  0.80079852707E+02 -0.48348481690E+03  0.50415137276E+03  0.77924335540E+02 0.  0.
         -6    2    1    2    0  502  0.11224424163E+03 -0.22458532551E+02 -0.34782635485E+03  0.40504595627E+03  0.17313549057E+03 0.  0.
        -24    2    5    5    0    0  0.12666713404E+03  0.30541371477E+02 -0.26584433785E+03  0.30625248096E+03  0.78358355688E+02 0.  0.
          5    1    3    3  501    0 -0.23215855135E+02 -0.57621320157E+02 -0.26514750326E+03  0.27236828184E+03  0.47000000000E+01 0. -1.
        -11    1    4    4    0    0 -0.26863305645E+02  0.56186884211E+02 -0.34388881120E+03  0.34948264280E+03  0.00000000000E+00 0.  1.
         12    1    4    4    0    0 -0.62165080845E+02  0.23892968496E+02 -0.13959600569E+03  0.15466872996E+03  0.00000000000E+00 0. -1.
         -5    1    5    5    0  502 -0.14422892417E+02 -0.52999904027E+02 -0.81982016997E+02  0.98793475308E+02  0.47000000000E+01 0.  1.
         11    1    6    6    0    0  0.19325649101E+02  0.86301803068E+01 -0.13011693418E+03  0.13182707342E+03  0.00000000000E+00 0. -1.
        -12    1    6    6    0    0  0.10734148494E+03  0.21911191170E+02 -0.13572740367E+03  0.17442540754E+03  0.00000000000E+00 0.  1.
</event>
<event>
12    1  0.8421768E-002  0.1828156E+03  0.7818608E-02  0.1165148E+00
         21   -1    0    0  501  502  0.00000000000E+00  0.00000000000E+00  0.16391616423E+03  0.16391616423E+03  0.00000000000E+00 0.  1.
         21   -1    0    0  502  503 -0.00000000000E+00 -0.00000000000E+00 -0.38963919663E+03  0.38963919663E+03  0.00000000000E+00 0.  1.
         -6    2    1    2    0  503 -0.34453902325E+02 -0.53620161226E+02 -0.30409136110E+03  0.35481416661E+03  0.17134568525E+03 0.  0.
        -24    2    3    3    0    0 -0.70808300617E+02 -0.82739215395E+02 -0.21655795305E+03  0.25554811443E+03  0.80919086475E+02 0.  0.
          6    2    1    2  501    0  0.34453902325E+02  0.53620161226E+02  0.78368328705E+02  0.19874119426E+03  0.17115570185E+03 0.  0.
         24    2    5    5    0    0  0.60588701434E+02  0.77073556795E+00 -0.45629760694E+00  0.10019424489E+03  0.79794070747E+02 0.  0.
          5    1    5    5  501    0 -0.26134799109E+02  0.52849425658E+02  0.78824626312E+02  0.98546949370E+02  0.47000000000E+01 0. -1.
        -13    1    6    6    0    0 -0.12216038164E+02 -0.16224278026E+02  0.13163160599E+02  0.24201809495E+02  0.00000000000E+00 0.  1.
         14    1    6    6    0    0  0.72804739598E+02  0.16995013594E+02 -0.13619458206E+02  0.75992435392E+02  0.00000000000E+00 0. -1.
         -5    1    3    3    0  503  0.36354398292E+02  0.29119054169E+02 -0.87533408050E+02  0.99266052182E+02  0.47000000000E+01 0.  1.
         13    1    4    4    0    0 -0.18065005086E+02 -0.70646876811E+02 -0.77892103643E+02  0.10669819784E+03  0.00000000000E+00 0. -1.
        -14    1    4    4    0    0 -0.52743295531E+02 -0.12092338585E+02 -0.13866584941E+03  0.14884991659E+03  0.00000000000E+00 0.  1.
</event>
<event>
12    1  0.8421768E-002  0.3330087E+03  0.7818608E-02  0.1069974E+00
         21   -1    0    0  503  502  0.00000000000E+00  0.00000000000E+00  0.59123246824E+03  0.59123246824E+03  0.00000000000E+00 0. -1.
         21   -1    0    0  501  503 -0.00000000000E+00 -0.00000000000E+00 -0.23470256628E+03  0.23470256628E+03  0.00000000000E+00 0.  1.
          6    2    1    2  501    0 -0.12534711195E+03  0.25445235365E+03 -0.81082103820E+01  0.33310742783E+03  0.17446179137E+03 0.  0.
         24    2    3    3    0    0 -0.11239348815E+03  0.21636158151E+03  0.51256756287E+02  0.26123954516E+03  0.78576171690E+02 0.  0.
         -6    2    1    2    0  502  0.12534711195E+03 -0.25445235365E+03  0.36463811234E+03  0.49282760670E+03  0.17163973374E+03 0.  0.
        -24    2    5    5    0    0  0.61597541784E+02 -0.15744479082E+03  0.13983912754E+03  0.23978383872E+03  0.96737730028E+02 0.  0.
          5    1    3    3  501    0 -0.12953623802E+02  0.38090772138E+02 -0.59364966669E+02  0.71867882669E+02  0.47000000000E+01 0. -1.
        -13    1    4    4    0    0 -0.10086029939E+03  0.15357057988E+03  0.75782986480E+01  0.18388625181E+03  0.00000000000E+00 0.  1.
         14    1    4    4    0    0 -0.11533188759E+02  0.62791001638E+02  0.43678457639E+02  0.77353293346E+02  0.00000000000E+00 0. -1.
         -5    1    5    5    0  502  0.63749570167E+02 -0.97007562834E+02  0.22479898480E+03  0.25304376798E+03  0.47000000000E+01 0.  1.
         11    1    6    6    0    0  0.57993974378E+02 -0.12623813448E+03  0.15216100804E+03  0.20603965645E+03  0.00000000000E+00 0. -1.
        -12    1    6    6    0    0  0.36035674060E+01 -0.31206656342E+02 -0.12321880505E+02  0.33744182273E+02  0.00000000000E+00 0.  1.
</event>
<event>
12    1  0.8421768E-002  0.2143753E+03  0.7818608E-02  0.1138636E+00
         21   -1    0    0  503  502  0.00000000000E+00  0.00000000000E+00  0.10600635496E+03  0.10600635496E+03  0.00000000000E+00 0. -1.
         21   -1    0    0  501  503 -0.00000000000E+00 -0.00000000000E+00 -0.78492668520E+03  0.78492668520E+03  0.00000000000E+00 0. -1.
          6    2    1    2  501    0  0.64919490939E+01  0.12417310102E+03 -0.63856739793E+03  0.67279283819E+03  0.17152485825E+03 0.  0.
         24    2    3    3    0    0  0.42386401642E+02  0.13903235340E+03 -0.43717256251E+03  0.46763148988E+03  0.80204479818E+02 0.  0.
         -6    2    1    2    0  502 -0.64919490939E+01 -0.12417310102E+03 -0.40352932301E+02  0.21814020197E+03  0.17463013528E+03 0.  0.
        -24    2    5    5    0    0 -0.57478946206E+02 -0.71631194060E+02  0.19788434126E+02  0.12327503545E+03  0.79814127956E+02 0.  0.
          5    1    3    3  501    0 -0.35894452548E+02 -0.14859252376E+02 -0.20139483542E+03  0.20516134831E+03  0.47000000000E+01 0. -1.
        -13    1    4    4    0    0 -0.22084698034E+01  0.99872424120E+02 -0.20573454767E+03  0.22870523069E+03  0.00000000000E+00 0.  1.
         14    1    4    4    0    0  0.44594871445E+02  0.39159929277E+02 -0.23143801484E+03  0.23892625920E+03  0.00000000000E+00 0. -1.
         -5    1    5    5    0  502  0.50986997112E+02 -0.52541906961E+02 -0.60141366427E+02  0.94865166512E+02  0.47000000000E+01 0.  1.
         13    1    6    6    0    0  0.29503311792E+01 -0.58047152600E+02  0.19598752828E+02  0.61337488467E+02  0.00000000000E+00 0. -1.
        -14    1    6    6    0    0 -0.60429277386E+02 -0.13584041461E+02  0.18968129827E+00  0.61937546987E+02  0.00000000000E+00 0.  1.
</event>
<event>
12    1  0.8421768E-002  0.1968553E+03  0.7818608E-02  0.1152661E+00
         21   -1    0    0  503  502  0.00000000000E+00  0.00000000000E+00  0.65232578559E+03  0.65232578559E+03  0.00000000000E+00 0.  1.
         21   -1    0    0  501  503 -0.00000000000E+00 -0.00000000000E+00 -0.10668039820E+03  0.10668039820E+03  0.00000000000E+00 0.  1.
          6    2    1    2  501    0  0.94217047128E+02  0.21129633304E+02  0.19723945748E+02  0.19784099362E+03  0.17154798555E+03 0.  0.
         24    2    3    3    0    0  0.11381976553E+03 -0.25285567922E+02 -0.12139035968E+02  0.13804151973E+03  0.72895857252E+02 0.  0.
         -6    2    1    2    0  502 -0.94217047128E+02 -0.21129633304E+02  0.52592144165E+03  0.56116519017E+03  0.17026360299E+03 0.  0.
        -24    2    5    5    0    0  0.28457141192E+00  0.44857677876E+02  0.25240706348E+03  0.26431996753E+03  0.64369459321E+02 0.  0.
          5    1    3    3  501    0 -0.19602718401E+02  0.46415201226E+02  0.31862981716E+02  0.59799473889E+02  0.47000000000E+01 0. -1.
        -11    1    4    4    0    0  0.99337247103E+02 -0.40114515891E+02  0.10141774328E+02  0.10761003036E+03  0.00000000000E+00 0.  1.
         12    1    4    4    0    0  0.14482518426E+02  0.14828947969E+02 -0.22280810297E+02  0.30431489370E+02  0.00000000000E+00 0. -1.
         -5    1    5    5    0  502 -0.94501618540E+02 -0.65987311180E+02  0.27351437817E+03  0.29684522265E+03  0.47000000000E+01 0.  1.
         11    1    6    6    0    0  0.17666858249E+01  0.10103805213E+01  0.17749288265E+03  0.17750455048E+03  0.00000000000E+00 0. -1.
        -12    1    6    6    0    0 -0.14821144130E+01  0.43847297355E+02  0.74914180827E+02  0.86815417049E+02  0.00000000000E+00 0.  1.
</event>
<event>
12    1  0.8421768E-002  0.1807991E+03  0.7818608E-02  0.1167419E+00
         21   -1    0    0  501  502  0.00000000000E+00  0.00000000000E+00  0.16903152568E+03  0.16903152568E+03  0.00000000000E+00 0.  1.
         21   -1    0    0  502  503 -0.00000000000E+00 -0.00000000000E+00 -0.20305888728E+03  0.20305888728E+03  0.00000000000E+00 0.  1.
         -6    2    1    2    0  503 -0.49403405966E+02 -0.15561030453E+02  0.27108403708E+02  0.18123469546E+03  0.17154680731E+03 0.  0.
        -24    2    3    3    0    0 -0.16418321490E+02  0.17771403582E+02  0.76007651455E+02  0.11332082805E+03  0.80492626526E+02 0.  0.
          6    2    1    2  501    0  0.49403405966E+02  0.15561030453E+02 -0.61135765316E+02  0.19085571750E+03  0.17322090206E+03 0.  0.
         24    2    5    5    0    0  0.66833071568E+02 -0.27809185518E+02  0.34500020605E+01  0.11099220753E+03  0.84067576175E+02 0.  0.
          5    1    5    5  501    0 -0.17429665602E+02  0.43370215971E+02 -0.64585767376E+02  0.79863509965E+02  0.47000000000E+01 0. -1.
        -11    1    6    6    0    0  0.53103643869E+02 -0.17728485848E+01 -0.34210142737E+02  0.63193938399E+02  0.00000000000E+00 0.  1.
         12    1    6    6    0    0  0.13729427699E+02 -0.26036336933E+02  0.37660144798E+02  0.47798269132E+02  0.00000000000E+00 0. -1.
         -5    1    3    3    0  503 -0.32985084476E+02 -0.33332434035E+02 -0.48899247747E+02  0.67913867411E+02  0.47000000000E+01 0.  1.
         11    1    4    4    0    0  0.15790808811E+02  0.36823648457E+02  0.17169671466E+02  0.43590461650E+02  0.00000000000E+00 0. -1.
        -12    1    4    4    0    0 -0.32209130301E+02 -0.19052244875E+02  0.58837979989E+02  0.69730366403E+02  0.00000000000E+00 0.  1.
</event>
<event>
12    1  0.8421768E-002  0.2142661E+03  0.7818608E-02  0.1139250E+00
         21   -1    0    0  503  502  0.00000000000E+00  0.00000000000E+00  0.39487497016E+03  0.39487497016E+03  0.00000000000E+00 0.  1.
         21   -1    0    0  501  503 -0.00000000000E+00 -0.00000000000E+00 -0.15137592255E+03  0.15137592255E+03  0.00000000000E+00 0.  1.
          6    2    1    2  501    0  0.83539004683E+02 -0.95957354807E+02 -0.16068225375E+02  0.20967232745E+03  0.16588465205E+03 0.  0.
         24    2    3    3    0    0  0.10533660859E+03 -0.82255950752E+02 -0.52881976229E+02  0.16450368499E+03  0.80019475266E+02 0.  0.
         -6    2    1    2    0  502 -0.83539004683E+02  0.95957354807E+02  0.25956727298E+03  0.33657856526E+03  0.17240470454E+03 0.  0.
        -24    2    5    5    0    0 -0.34184880053E+02  0.95724684136E+02  0.84355187709E+02  0.15448724592E+03  0.80116729105E+02 0.  0.
          5    1    3    3  501    0 -0.21797603911E+02 -0.13701404055E+02  0.36813750853E+02  0.45168642455E+02  0.47000000000E+01 0. -1.
        -13    1    4    4    0    0  0.10091602433E+03 -0.94689803014E+02 -0.35840461775E+02  0.14295013628E+03  0.00000000000E+00 0.  1.
         14    1    4    4    0    0  0.44205842635E+01  0.12433852262E+02 -0.17041514454E+02  0.21553548714E+02  0.00000000000E+00 0. -1.
         -5    1    5    5    0  502 -0.49354124629E+02  0.23267067037E+00  0.17521208527E+03  0.18209131934E+03  0.47000000000E+01 0.  1.
         11    1    6    6    0    0  0.22111526992E+02  0.54824343211E+01  0.18878276494E+02  0.29586585396E+02  0.00000000000E+00 0. -1.
        -12    1    6    6    0    0 -0.56296407046E+02  0.90242249815E+02  0.65476911215E+02  0.12490066053E+03  0.00000000000E+00 0.  1.
</event>
<event>
12    1  0.8421768E-002  0.1841555E+03  0.7818608E-02  0.1164808E+00
         21   -1    0    0  501  502  0.00000000000E+00  0.00000000000E+00  0.12729010222E+03  0.12729010222E+03  0.00000000000E+00 0. -1.
         21   -1    0    0  502  503 -0.00000000000E+00 -0.00000000000E+00 -0.42728719811E+03  0.42728719811E+03  0.00000000000E+00 0. -1.
         -6    2    1    2    0  503 -0.54844716579E+02  0.25652109615E+02 -0.32421733129E+03  0.37286744073E+03  0.17391744244E+03 0.  0.
        -24    2    3    3    0    0  0.22578454549E+02  0.52377134148E+02 -0.13612425776E+03  0.16766103568E+03  0.79544066677E+02 0.  0.
          6    2    1    2  501    0  0.54844716579E+02 -0.25652109615E+02  0.24220235409E+02  0.18170985960E+03  0.16960506952E+03 0.  0.
         24    2    5    5    0    0  0.61195126070E+02 -0.10494300557E+02 -0.45460468746E+02  0.10996324011E+03  0.78551169046E+02 0.  0.
          5    1    5    5  501    0 -0.63504094909E+01 -0.15157809059E+02  0.69680704155E+02  0.71746619486E+02  0.47000000000E+01 0. -1.
        -13    1    6    6    0    0  0.43099130443E+02 -0.44284492690E+02 -0.28185338155E+02  0.67919545233E+02  0.00000000000E+00 0.  1.
         14    1    6    6    0    0  0.18095995627E+02  0.33790192133E+02 -0.17275130591E+02  0.42043694879E+02  0.00000000000E+00 0. -1.
         -5    1    3    3    0  503 -0.77423171128E+02 -0.26725024533E+02 -0.18809307353E+03  0.20520640506E+03  0.47000000000E+01 0.  1.
         11    1    4    4    0    0  0.45321357734E+01  0.24336181487E+02 -0.13171927725E+03  0.13402521399E+03  0.00000000000E+00 0. -1.
        -12    1    4    4    0    0  0.18046318776E+02  0.28040952662E+02 -0.44049805008E+01  0.33635821690E+02  0.00000000000E+00 0.  1.
</event>
<event>
12    1  0.8421768E-002  0.2836677E+03  0.7818608E-02  0.1093742E+00
         21   -1    0    0  501  502  0.00000000000E+00  0.00000000000E+00  0.66570774401E+03  0.66570774401E+03  0.00000000000E+00 0.  1.
         21   -1    0    0  502  503 -0.00000000000E+00 -0.00000000000E+00 -0.12104735538E+03  0.12104735538E+03  0.00000000000E+00 0.  1.
         -6    2    1    2    0  503 -0.14040929856E+03  0.17599925305E+03  0.29173790744E+03  0.40670620734E+03  0.17207098610E+03 0.  0.
        -24    2    3    3    0    0 -0.11547582492E+03  0.16637645680E+03  0.15246696763E+03  0.26481624649E+03  0.76587705734E+02 0.  0.
          6    2    1    2  501    0  0.14040929856E+03 -0.17599925305E+03  0.25292248119E+03  0.38004889205E+03  0.17255975968E+03 0.  0.
         24    2    5    5    0    0  0.61131167249E+02 -0.65551915481E+02  0.37933348047E+02  0.12563573624E+03  0.79443854978E+02 0.  0.
          5    1    5    5  501    0  0.79278131311E+02 -0.11044733757E+03  0.21498913314E+03  0.25441315581E+03  0.47000000000E+01 0. -1.
        -13    1    6    6    0    0  0.52342789997E+02 -0.32469723264E+01  0.34187388795E+02  0.62602620126E+02  0.00000000000E+00 0.  1.
         14    1    6    6    0    0  0.87883772514E+01 -0.62304943155E+02  0.37459592526E+01  0.63033116114E+02  0.00000000000E+00 0. -1.
         -5    1    3    3    0  503 -0.24933473643E+02  0.96227962515E+01  0.13927093981E+03  0.14188996085E+03  0.47000000000E+01 0.  1.
         11    1    4    4    0    0 -0.69568310827E+02  0.14960027298E+03  0.13407451149E+03  0.21259342929E+03  0.00000000000E+00 0. -1.
        -12    1    4    4    0    0 -0.45907514090E+02  0.16776183826E+02  0.18392456139E+02  0.52222817202E+02  0.00000000000E+00 0.  1.
</event>
<event>
12    1  0.8421768E-002  0.1722811E+03  0.7818608E-02  0.1175672E+00
         21   -1    0    0  501  502  0.00000000000E+00  0.00000000000E+00  0.97196692422E+03  0.97196692422E+03  0.00000000000E+00 0. -1.
         21   -1    0    0  502  503 -0.00000000000E+00 -0.00000000000E+00 -0.64425142377E+02  0.64425142377E+02  0.00000000000E+00 0. -1.
         -6    2    1    2    0  503  0.37515668239E+01  0.75070038201E+00  0.77686980057E+02  0.18898687478E+03  0.17223859661E+03 0.  0.
        -24    2    3    3    0    0 -0.36871638183E+02 -0.46969331001E+02  0.17457119324E+02  0.10193992018E+03  0.80754941366E+02 0.  0.
          6    2    1    2  501    0 -0.37515668239E+01 -0.75070038201E+00  0.82985480179E+03  0.84740519182E+03  0.17152821713E+03 0.  0.
         24    2    5    5    0    0 -0.83229730492E+01  0.59168915635E+02  0.38204354087E+03  0.39555535665E+03  0.83285896750E+02 0.  0.
          5    1    5    5  501    0  0.45714062254E+01 -0.59919616017E+02  0.44781126092E+03  0.45184983518E+03  0.47000000000E+01 0. -1.
        -13    1    6    6    0    0 -0.26653145351E+02  0.17183836445E+02  0.42991567123E+02  0.53422366437E+02  0.00000000000E+00 0.  1.
         14    1    6    6    0    0  0.18330172302E+02  0.41985079190E+02  0.33905197374E+03  0.34213299021E+03  0.00000000000E+00 0. -1.
         -5    1    3    3    0  503  0.40623205006E+02  0.47720031383E+02  0.60229860732E+02  0.87046954594E+02  0.47000000000E+01 0.  1.
         11    1    4    4    0    0  0.18120326326E+02 -0.24869619681E+01 -0.15437701913E+02  0.23934365385E+02  0.00000000000E+00 0. -1.
        -12    1    4    4    0    0 -0.54991964509E+02 -0.44482369033E+02  0.32894821237E+02  0.78005554799E+02  0.00000000000E+00 0.  1.
</event>
<event>
12    1  0.8421768E-002  0.2701019E+03  0.7818608E-02  0.1101703E+00
         21   -1    0    0  501  502  0.00000000000E+00  0.00000000000E+00  0.21158505660E+03  0.21158505660E+03  0.00000000000E+00 0. -1.
         21   -1    0    0  502  503 -0.00000000000E+00 -0.00000000000E+00 -0.80359215553E+03  0.80359215553E+03  0.00000000000E+00 0.  1.
         -6    2    1    2    0  503  0.11132788533E+03  0.17562119951E+03 -0.68209099338E+03  0.73362331876E+03  0.17239010069E+03 0.  0.
        -24    2    3    3    0    0  0.23070618445E+02  0.14741513091E+03 -0.35726981211E+03  0.39581299141E+03  0.82235827163E+02 0.  0.
          6    2    1    2  501    0 -0.11132788533E+03 -0.17562119951E+03  0.90083894450E+02  0.28155389337E+03  0.16709513178E+03 0.  0.
         24    2    5    5    0    0 -0.85142873084E+02 -0.10348527268E+03  0.12227206295E+03  0.19820273863E+03  0.79845837235E+02 0.  0.
          5    1    5    5  501    0 -0.26185012244E+02 -0.72135926831E+02 -0.32188168496E+02  0.83351154744E+02  0.47000000000E+01 0. -1.
        -11    1    6    6    0    0  0.13432188436E+02 -0.15507744925E+02  0.40594059693E+01  0.20913933529E+02  0.00000000000E+00 0.  1.
         12    1    6    6    0    0 -0.98575061521E+02 -0.87977527751E+02  0.11821265698E+03  0.17728880510E+03  0.00000000000E+00 0. -1.
         -5    1    3    3    0  503  0.88257266883E+02  0.28206068600E+02 -0.32482118127E+03  0.33781032735E+03  0.47000000000E+01 0.  1.
         13    1    4    4    0    0  0.15271107466E+02  0.81439634614E+01 -0.11468271170E+03  0.11598127101E+03  0.00000000000E+00 0. -1.
        -14    1    4    4    0    0  0.77995109788E+01  0.13927116745E+03 -0.24258710041E+03  0.27983172039E+03  0.00000000000E+00 0.  1.
</event>
<event>
12    1  0.8421768E-002  0.1978621E+03  0.7818608E-02  0.1151556E+00
         21   -1    0    0  501  502  0.00000000000E+00  0.00000000000E+00  0.19172659760E+03  0.19172659760E+03  0.00000000000E+00 0. -1.
         21   -1    0    0  502  503 -0.00000000000E+00 -0.00000000000E+00 -0.21262652825E+03  0.21262652825E+03  0.00000000000E+00 0. -1.
         -6    2    1    2    0  503 -0.79329689722E+02 -0.56285819932E+02  0.29825288425E+02  0.20009741691E+03  0.17230245276E+03 0.  0.
        -24    2    3    3    0    0 -0.11131062432E+03 -0.29660266784E+02 -0.11589638528E+02  0.14119931479E+03  0.80827843376E+02 0.  0.
          6    2    1    2  501    0  0.79329689722E+02  0.56285819932E+02 -0.50725219076E+02  0.20425570895E+03  0.17229641201E+03 0.  0.
         24    2    5    5    0    0  0.54314387813E+02  0.98687523947E+02 -0.66282196929E+01  0.13799633084E+03  0.79434085399E+02 0.  0.
          5    1    5    5  501    0  0.25015301908E+02 -0.42401704015E+02 -0.44096999383E+02  0.66259378110E+02  0.47000000000E+01 0. -1.
        -13    1    6    6    0    0  0.49914064096E+02  0.10690714561E+03 -0.21999171813E+02  0.12001881160E+03  0.00000000000E+00 0.  1.
         14    1    6    6    0    0  0.44003237176E+01 -0.82196216620E+01  0.15370952121E+02  0.17977519244E+02  0.00000000000E+00 0. -1.
         -5    1    3    3    0  503  0.31980934596E+02 -0.26625553147E+02  0.41414926953E+02  0.58898102114E+02  0.47000000000E+01 0.  1.
         11    1    4    4    0    0 -0.17990933700E+02 -0.40843578495E+02  0.76001688746E+01  0.45272885556E+02  0.00000000000E+00 0. -1.
        -12    1    4    4    0    0 -0.93319690617E+02  0.11183311711E+02 -0.19189807403E+02  0.95926429236E+02  0.00000000000E+00 0.  1.
</event>
<event>
12    1  0.8421768E-002  0.1738835E+03  0.7818608E-02  0.1174060E+00
         21   -1    0    0  503  502  0.00000000000E+00  0.00000000000E+00  0.23402084706E+03  0.23402084706E+03  0.00000000000E+00 0. -1.
         21   -1    0    0  501  503 -0.00000000000E+00 -0.00000000000E+00 -0.13554458849E+03  0.13554458849E+03  0.00000000000E+00 0. -1.
          6    2    1    2  501    0 -0.23078087453E+02  0.12577171338E+02  0.75428427424E+01  0.17404705549E+03  0.17188571694E+03 0.  0.
         24    2    3    3    0    0 -0.72687846546E+01  0.36374391994E+02  0.64555381385E+02  0.11010363262E+03  0.81114000191E+02 0.  0.
         -6    2    1    2    0  502  0.23078087453E+02 -0.12577171338E+02  0.90933415833E+02  0.19551838006E+03  0.17107824954E+03 0.  0.
        -24    2    5    5    0    0  0.12320957042E+02 -0.74747354200E+02  0.55183780639E+02  0.12284807038E+03  0.79419303754E+02 0.  0.
          5    1    3    3  501    0 -0.15809302799E+02 -0.23797220656E+02 -0.57012538642E+02  0.63943422871E+02  0.47000000000E+01 0. -1.
        -13    1    4    4    0    0  0.15368877837E+02 -0.61187750834E+01 -0.11459496439E+02  0.20123664505E+02  0.00000000000E+00 0.  1.
         14    1    4    4    0    0 -0.22637662491E+02  0.42493167077E+02  0.76014877824E+02  0.89979968114E+02  0.00000000000E+00 0. -1.
         -5    1    5    5    0  502  0.10757130412E+02  0.62170182862E+02  0.35749635194E+02  0.72670309676E+02  0.47000000000E+01 0.  1.
         11    1    6    6    0    0  0.25218160064E+02 -0.53982257758E+02 -0.30825519451E+01  0.59661896351E+02  0.00000000000E+00 0. -1.
        -12    1    6    6    0    0 -0.12897203022E+02 -0.20765096442E+02  0.58266332584E+02  0.63186174032E+02  0.00000000000E+00 0.  1.
</event>
<event>
12    1  0.8421768E-002  0.2303817E+03  0.7818608E-02  0.1126535E+00
         21   -1    0    0  501  502  0.00000000000E+00  0.00000000000E+00  0.66489581161E+03  0.66489581161E+03  0.00000000000E+00 0.  1.
         21   -1    0    0  502  503 -0.00000000000E+00 -0.00000000000E+00 -0.12645178017E+03  0.12645178017E+03  0.00000000000E+00 0. -1.
         -6    2    1    2    0  503 -0.42990582747E+01  0.15128251502E+03  0.27786759849E+02  0.23112747876E+03  0.17246137585E+03 0.  0.
        -24    2    3    3    0    0 -0.34089498470E+02  0.14954043719E+02  0.34868472048E+01  0.89404163212E+02  0.81211015058E+02 0.  0.
          6    2    1    2  501    0  0.42990582747E+01 -0.15128251502E+03  0.51065727158E+03  0.56022011302E+03  0.17369756692E+03 0.  0.
         24    2    5    5    0    0  0.19055097750E+02 -0.97119783105E+02  0.47917084737E+03  0.49568464107E+03  0.79392779270E+02 0.  0.
          5    1    5    5  501    0 -0.14756039475E+02 -0.54162731918E+02  0.31486424213E+02  0.64535471948E+02  0.47000000000E+01 0. -1.
        -11    1    6    6    0    0 -0.30566468428E+02 -0.32236770975E+02  0.14354961735E+03  0.15026646677E+03  0.00000000000E+00 0.  1.
         12    1    6    6    0    0  0.49621566177E+02 -0.64883012130E+02  0.33562123002E+03  0.34541817430E+03  0.00000000000E+00 0. -1.
         -5    1    3    3    0  503  0.29790440195E+02  0.13632847130E+03  0.24299912644E+02  0.14172331555E+03  0.47000000000E+01 0.  1.
         11    1    4    4    0    0 -0.94942626725E+00  0.43466378267E+02  0.11468784368E+02  0.44963990757E+02  0.00000000000E+00 0. -1.
        -12    1    4    4    0    0 -0.33140072202E+02 -0.28512334548E+02 -0.79819371634E+01  0.44440172455E+02  0.00000000000E+00 0.  1.
</event>
<event>
12    1  0.8421768E-002  0.2081125E+03  0.7818608E-02  0.1143592E+00
         21   -1    0    0  503  502  0.00000000000E+00  0.00000000000E+00  0.68099628481E+02  0.68099628481E+02  0.00000000000E+00 0.  1.
         21   -1    0    0  501  503 -0.00000000000E+00 -0.00000000000E+00 -0.71496512459E+03  0.71496512459E+03  0.00000000000E+00 0.  1.
          6    2    1    2  501    0  0.10507420130E+03 -0.50390764452E+02 -0.18874004515E+03  0.28095127274E+03  0.17242678472E+03 0.  0.
         24    2    3    3    0    0  0.15718566423E+02  0.16504940739E+02 -0.33812489886E+02  0.89943151873E+02  0.80168570508E+02 0.  0.
         -6    2    1    2    0  502 -0.10507420130E+03  0.50390764452E+02 -0.45812545096E+03  0.50211348034E+03  0.16929028737E+03 0.  0.
        -24    2    5    5    0    0 -0.75135312403E+01  0.10194470242E+02 -0.11902286502E+03  0.14694242267E+03  0.85236452342E+02 0.  0.
          5    1    3    3  501    0  0.89355634872E+02 -0.66895705190E+02 -0.15492755526E+03  0.19100812086E+03  0.47000000000E+01 0. -1.
        -11    1    4    4    0    0  0.35462943288E+02  0.39345825486E+02 -0.24395102673E+02  0.58316681698E+02  0.00000000000E+00 0.  1.
         12    1    4    4    0    0 -0.19744376865E+02 -0.22840884747E+02 -0.94173872137E+01  0.31626470175E+02  0.00000000000E+00 0. -1.
         -5    1    5    5    0  502 -0.97560670055E+02  0.40196294209E+02 -0.33910258594E+03  0.35517105766E+03  0.47000000000E+01 0.  1.
         11    1    6    6    0    0  0.30380207393E+02 -0.73422531908E+01 -0.92103697641E+02  0.97262309259E+02  0.00000000000E+00 0. -1.
        -12    1    6    6    0    0 -0.37893738633E+02  0.17536723433E+02 -0.26919167377E+02  0.49680113412E+02  0.00000000000E+00 0.  1.
</event>
<event>
12    1  0.8421768E-002  0.2676696E+03  0.7818608E-02  0.1103024E+00
         21   -1    0    0  501  502  0.00000000000E+00  0.00000000000E+00  0.29399050367E+03  0.29399050367E+03  0.00000000000E+00 0. -1.
         21   -1    0    0  502  503 -0.00000000000E+00 -0.00000000000E+00 -0.33893415267E+03  0.33893415267E+03  0.00000000000E+00 0.  1.
         -6    2    1    2    0  503 -0.19095877342E+03 -0.64884040242E+02 -0.19249925325E+03  0.32970137968E+03  0.17598819687E+03 0.  0.
        -24    2    3    3    0    0 -0.20046055251E+03 -0.93882972287E+02 -0.14706066432E+03  0.27476526015E+03  0.69790139667E+02 0.  0.
          6    2    1    2  501    0  0.19095877342E+03  0.64884040242E+02  0.14755560426E+03  0.30322327665E+03  0.17174547251E+03 0.  0.
         24    2    5    5    0    0  0.22360567987E+02  0.25862154792E+02  0.25713830365E+02  0.91526393617E+02  0.80913741758E+02 0.  0.
          5    1    5    5  501    0  0.16859820544E+03  0.39021885450E+02  0.12184177389E+03  0.21169688303E+03  0.47000000000E+01 0. -1.
        -11    1    6    6    0    0  0.88093644921E+01  0.19518487235E+02  0.54790021830E+02  0.58826207925E+02  0.00000000000E+00 0.  1.
         12    1    6    6    0    0  0.13551203495E+02  0.63436675579E+01 -0.29076191464E+02  0.32700185692E+02  0.00000000000E+00 0. -1.
         -5    1    3    3    0  503  0.95017790868E+01  0.28998932045E+02 -0.45438588936E+02  0.54936119539E+02  0.47000000000E+01 0.  1.
         11    1    4    4    0    0 -0.11198084484E+03 -0.17709552463E+02 -0.54597495588E+02  0.12583411455E+03  0.00000000000E+00 0. -1.
        -12    1    4    4    0    0 -0.88479707668E+02 -0.76173419824E+02 -0.92463168731E+02  0.14893114560E+03  0.00000000000E+00 0.  1.
</event>
<event>
12    1  0.8421768E-002  0.1738972E+03  0.7818608E-02  0.1177425E+00
         21   -1    0    0  501  502  0.00000000000E+00  0.00000000000E+00  0.14394952520E+02  0.14394952520E+02  0.00000000000E+00 0. -1.
         21   -1    0    0  502  503 -0.00000000000E+00 -0.00000000000E+00 -0.20534212181E+04  0.20534212181E+04  0.00000000000E+00 0. -1.
         -6    2    1    2    0  503  0.21807327970E+02  0.50344486867E+01 -0.13010946047E+04  0.13126642379E+04  0.17245093758E+03 0.  0.
        -24    2    3    3    0    0  0.72153729450E+02  0.17371594183E+01 -0.58438119838E+03  0.59416174726E+03  0.79483447939E+02 0.  0.
          6    2    1    2  501    0 -0.21807327970E+02 -0.50344486867E+01 -0.73793166087E+03  0.75515193270E+03  0.15877783260E+03 0.  0.
         24    2    5    5    0    0  0.20056695339E+02 -0.51628381532E+02 -0.37247740780E+03  0.38433864800E+03  0.76870125653E+02 0.  0.
          5    1    5    5  501    0 -0.41864023310E+02  0.46593932845E+02 -0.36545425307E+03  0.37081328470E+03  0.47000000000E+01 0. -1.
        -13    1    6    6    0    0  0.39115433179E+02 -0.35497956962E+02 -0.12633417327E+03  0.13693226572E+03  0.00000000000E+00 0.  1.
         14    1    6    6    0    0 -0.19058737839E+02 -0.16130424570E+02 -0.24614323454E+03  0.24740638228E+03  0.00000000000E+00 0. -1.
         -5    1    3    3    0  503 -0.50346401480E+02  0.32972892684E+01 -0.71671340634E+03  0.71850249066E+03  0.47000000000E+01 0.  1.
         13    1    4    4    0    0  0.47979162213E+02  0.26067246717E+02 -0.50150486931E+03  0.50446866632E+03  0.00000000000E+00 0. -1.
        -14    1    4    4    0    0  0.24174567237E+02 -0.24330087299E+02 -0.82876329070E+02  0.89693080944E+02  0.00000000000E+00 0.  1.
</event>
<event>
12    1  0.8421768E-002  0.1779702E+03  0.7818608E-02  0.1170045E+00
         21   -1    0    0  501  502  0.00000000000E+00  0.00000000000E+00  0.11536077657E+03  0.11536077657E+03  0.00000000000E+00 0.  1.
         21   -1    0    0  502  503 -0.00000000000E+00 -0.00000000000E+00 -0.38365071517E+03  0.38365071517E+03  0.00000000000E+00 0.  1.
         -6    2    1    2    0  503  0.37914128729E+01 -0.43833455872E+02 -0.26848021551E+03  0.32211023118E+03  0.17244601545E+03 0.  0.
        -24    2    3    3    0    0 -0.27446991073E+02 -0.22888437085E+02 -0.50576344449E+02  0.10093446687E+03  0.79703087232E+02 0.  0.
          6    2    1    2  501    0 -0.37914128729E+01  0.43833455872E+02  0.19027690694E+00  0.17690126056E+03  0.17134256073E+03 0.  0.
         24    2    5    5    0    0 -0.46338849893E+01  0.64908089790E+02 -0.55858311787E+02  0.11683143246E+03  0.79340403350E+02 0.  0.
          5    1    5    5  501    0  0.84247211640E+00 -0.21074633918E+02  0.56048588694E+02  0.60069828105E+02  0.47000000000E+01 0. -1.
        -13    1    6    6    0    0  0.23103076526E+02  0.93666048019E+01  0.95085668179E+01  0.26681421877E+02  0.00000000000E+00 0.  1.
         14    1    6    6    0    0 -0.27736961515E+02  0.55541484988E+02 -0.65366878605E+02  0.90150010578E+02  0.00000000000E+00 0. -1.
         -5    1    3    3    0  503  0.31238403946E+02 -0.20945018787E+02 -0.21790387106E+03  0.22117576430E+03  0.47000000000E+01 0.  1.
         11    1    4    4    0    0  0.60819577479E+01  0.25689245057E+02 -0.25822587914E+02  0.36928763427E+02  0.00000000000E+00 0. -1.
        -12    1    4    4    0    0 -0.33528948821E+02 -0.48577682142E+02 -0.24753756534E+02  0.64005703448E+02  0.00000000000E+00 0.  1.
</event>
<event>
12    1  0.8421768E-002  0.2607167E+03  0.7818608E-02  0.1108809E+00
         21   -1    0    0  501  502  0.00000000000E+00  0.00000000000E+00  0.58021433452E+03  0.58021433452E+03  0.00000000000E+00 0. -1.
         21   -1    0    0  502  503 -0.00000000000E+00 -0.00000000000E+00 -0.32392785423E+03  0.32392785423E+03  0.00000000000E+00 0.  1.
         -6    2    1    2    0  503 -0.17789588394E+03  0.18796832699E+02 -0.23705271831E+03  0.35237368171E+03  0.18966537338E+03 0.  0.
        -24    2    3    3    0    0 -0.88008121519E+02  0.80641342691E+02 -0.92181603651E+02  0.17095074184E+03  0.80487592075E+02 0.  0.
          6    2    1    2  501    0  0.17789588394E+03 -0.18796832699E+02  0.49333919860E+03  0.55176850704E+03  0.17048358880E+03 0.  0.
         24    2    5    5    0    0  0.63330516627E+02 -0.46861007721E+02  0.14479631036E+03  0.18377794161E+03  0.81250550445E+02 0.  0.
          5    1    5    5  501    0  0.11456536731E+03  0.28064175023E+02  0.34854288824E+03  0.36799056544E+03  0.47000000000E+01 0. -1.
        -11    1    6    6    0    0 -0.11861337988E+02  0.10986546015E+01  0.58418042042E+02  0.59620181288E+02  0.00000000000E+00 0.  1.
         12    1    6    6    0    0  0.75191854614E+02 -0.47959662323E+02  0.86378268317E+02  0.12415776032E+03  0.00000000000E+00 0. -1.
         -5    1    3    3    0  503 -0.89887762416E+02 -0.61844509992E+02 -0.14487111466E+03  0.18142293987E+03  0.47000000000E+01 0.  1.
         13    1    4    4    0    0 -0.96971601033E+02  0.72487474878E+02 -0.57146263904E+02  0.13387912794E+03  0.00000000000E+00 0. -1.
        -14    1    4    4    0    0  0.89634795137E+01  0.81538678135E+01 -0.35035339746E+02  0.37071613891E+02  0.00000000000E+00 0.  1.
</event>
<event>
12    1  0.8421768E-002  0.1740691E+03  0.7818608E-02  0.1173864E+00
         21   -1    0    0  501  502  0.00000000000E+00  0.00000000000E+00  0.67504320318E+02  0.67504320318E+02  0.00000000000E+00 0.  1.
         21   -1    0    0  502  503 -0.00000000000E+00 -0.00000000000E+00 -0.44927866373E+03  0.44927866373E+03  0.00000000000E+00 0.  1.
         -6    2    1    2    0  503  0.87732860930E+01  0.21579836547E+02 -0.20933256774E+03  0.27176005812E+03  0.17172869702E+03 0.  0.
        -24    2    3    3    0    0  0.68694646539E+02  0.26737044940E+01 -0.98047454222E+02  0.14387543138E+03  0.79754205635E+02 0.  0.
          6    2    1    2  501    0 -0.87732860930E+01 -0.21579836547E+02 -0.17244177568E+03  0.24502292593E+03  0.17250335747E+03 0.  0.
         24    2    5    5    0    0 -0.57387433799E+02  0.24115648035E+02 -0.68702043139E+02  0.12159102253E+03  0.78673527895E+02 0.  0.
          5    1    5    5  501    0  0.48614147706E+02 -0.45695484582E+02 -0.10373973254E+03  0.12343190339E+03  0.47000000000E+01 0. -1.
        -13    1    6    6    0    0  0.17616687556E+01 -0.12333542820E+02  0.10457469965E+02  0.16265867126E+02  0.00000000000E+00 0.  1.
         14    1    6    6    0    0 -0.59149102555E+02  0.36449190854E+02 -0.79159513105E+02  0.10532515541E+03  0.00000000000E+00 0. -1.
         -5    1    3    3    0  503 -0.59921360446E+02  0.18906132053E+02 -0.11128511352E+03  0.12788462674E+03  0.47000000000E+01 0.  1.
         11    1    4    4    0    0  0.15634252672E+02 -0.17659387563E+02  0.68637267542E+01  0.24564091082E+02  0.00000000000E+00 0. -1.
        -12    1    4    4    0    0  0.53060393867E+02  0.20333092057E+02 -0.10491118098E+03  0.11931134030E+03  0.00000000000E+00 0.  1.
</event>
<event>
12    1  0.8421768E-002  0.2130110E+03  0.7818608E-02  0.1139373E+00
         21   -1    0    0  503  502  0.00000000000E+00  0.00000000000E+00  0.83746791969E+03  0.83746791969E+03  0.00000000000E+00 0.  1.
         21   -1    0    0  501  503 -0.00000000000E+00 -0.00000000000E+00 -0.62810421340E+02  0.62810421340E+02  0.00000000000E+00 0.  1.
          6    2    1    2  501    0  0.98076933478E+02  0.77679968328E+02  0.21902570052E+03  0.30552565428E+03  0.17239607182E+03 0.  0.
         24    2    3    3    0    0  0.13072343345E+03  0.89701628720E+02  0.17565721572E+03  0.24972933045E+03  0.79839105739E+02 0.  0.
         -6    2    1    2    0  502 -0.98076933478E+02 -0.77679968328E+02  0.55563179784E+03  0.59475268675E+03  0.17132075551E+03 0.  0.
        -24    2    5    5    0    0 -0.41734268804E+02 -0.31740544615E+02  0.12070387476E+03  0.15376593549E+03  0.79531919191E+02 0.  0.
          5    1    3    3  501    0 -0.32646499977E+02 -0.12021660392E+02  0.43368484800E+02  0.55796323832E+02  0.47000000000E+01 0. -1.
        -13    1    4    4    0    0  0.74952401951E+02  0.52040249873E+01  0.88918746578E+02  0.11641085829E+03  0.00000000000E+00 0.  1.
         14    1    4    4    0    0  0.55771031504E+02  0.84497603733E+02  0.86738469139E+02  0.13331847216E+03  0.00000000000E+00 0. -1.
         -5    1    5    5    0  502 -0.56342664673E+02 -0.45939423713E+02  0.43492792307E+03  0.44098675126E+03  0.47000000000E+01 0.  1.
         13    1    6    6    0    0 -0.12388542412E+01 -0.11058541498E+02 -0.10258094070E+02  0.15134549674E+02  0.00000000000E+00 0. -1.
        -14    1    6    6    0    0 -0.40495414563E+02 -0.20682003117E+02  0.13096196883E+03  0.13863138582E+03  0.00000000000E+00 0.  1.
</event>
<event>
12    1  0.8421768E-002  0.2511603E+03  0.7818608E-02  0.1112643E+00
         21   -1    0    0  503  502  0.00000000000E+00  0.00000000000E+00  0.84530332605E+02  0.84530332605E+02  0.00000000000E+00 0. -1.
         21   -1    0    0  501  503 -0.00000000000E+00 -0.00000000000E+00 -0.10682699686E+04  0.10682699686E+04  0.00000000000E+00 0.  1.
          6    2    1    2  501    0 -0.18125521067E+03 -0.21143978845E+02 -0.80866905807E+03  0.84664476495E+03  0.17193368870E+03 0.  0.
         24    2    3    3    0    0 -0.20039862065E+03 -0.44093334215E+02 -0.69909914945E+03  0.73297507712E+03  0.80056315415E+02 0.  0.
         -6    2    1    2    0  502  0.18125521067E+03  0.21143978845E+02 -0.17507057792E+03  0.30615553625E+03  0.17257168333E+03 0.  0.
        -24    2    5    5    0    0  0.99483386343E+02  0.33471883961E+02 -0.24171889793E+02  0.13401863556E+03  0.79745866653E+02 0.  0.
          5    1    3    3  501    0  0.19143409978E+02  0.22949355370E+02 -0.10956990862E+03  0.11366968783E+03  0.47000000000E+01 0. -1.
        -11    1    4    4    0    0 -0.88846968730E+02 -0.86786243162E+01 -0.43559298676E+03  0.44464632292E+03  0.00000000000E+00 0.  1.
         12    1    4    4    0    0 -0.11155165192E+03 -0.35414709899E+02 -0.26350616269E+03  0.28832875420E+03  0.00000000000E+00 0. -1.
         -5    1    5    5    0  502  0.81771824325E+02 -0.12327905115E+02 -0.15089868813E+03  0.17213690068E+03  0.47000000000E+01 0.  1.
         13    1    6    6    0    0  0.28526133395E+02 -0.79187043872E+01  0.24593614605E+02  0.38487557015E+02  0.00000000000E+00 0. -1.
        -14    1    6    6    0    0  0.70957252948E+02  0.41390588348E+02 -0.48765504397E+02  0.95531078549E+02  0.00000000000E+00 0.  1.
</event>
<event>
12    1  0.8421768E-002  0.2014554E+03  0.7818608E-02  0.1148551E+00
         21   -1    0    0  501  502  0.00000000000E+00  0.00000000000E+00  0.60264541996E+03  0.60264541996E+03  0.00000000000E+00 0. -1.
         21   -1    0    0  502  503 -0.00000000000E+00 -0.00000000000E+00 -0.67510296386E+02  0.67510296386E+02  0.00000000000E+00 0. -1.
         -6    2    1    2    0  503  0.88244996241E+02 -0.56404849049E+02  0.28661782392E+03  0.35024145924E+03  0.17190292733E+03 0.  0.
        -24    2    3    3    0    0  0.11611839156E+03 -0.82420049188E+02  0.23387610092E+03  0.28499196767E+03  0.79030662988E+02 0.  0.
          6    2    1    2  501    0 -0.88244996241E+02  0.56404849049E+02  0.24851729965E+03  0.31991425710E+03  0.17209182814E+03 0.  0.
         24    2    5    5    0    0 -0.65605579042E+02  0.10326290467E+03  0.15691647256E+03  0.21445800024E+03  0.80013342793E+02 0.  0.
          5    1    5    5  501    0 -0.22639417199E+02 -0.46858055616E+02  0.91600827091E+02  0.10545625686E+03  0.47000000000E+01 0. -1.
        -13    1    6    6    0    0 -0.10388055684E+02  0.48084333529E+02  0.13239102826E+02  0.50943975850E+02  0.00000000000E+00 0.  1.
         14    1    6    6    0    0 -0.55217523358E+02  0.55178571137E+02  0.14367736973E+03  0.16351402439E+03  0.00000000000E+00 0. -1.
         -5    1    3    3    0  503 -0.27873395316E+02  0.26015200139E+02  0.52741723003E+02  0.65249491569E+02  0.47000000000E+01 0.  1.
         13    1    4    4    0    0  0.11771815230E+03 -0.67828897436E+02  0.23368858130E+03  0.27031218200E+03  0.00000000000E+00 0. -1.
        -14    1    4    4    0    0 -0.15997607385E+01 -0.14591151752E+02  0.18751961878E+00  0.14679785676E+02  0.00000000000E+00 0.  1.
</event>
<event>
12    1  0.8421768E-002  0.4046043E+03  0.7818608E-02  0.1042224E+00
         21   -1    0    0  501  502  0.00000000000E+00  0.00000000000E+00  0.21533101482E+03  0.21533101482E+03  0.00000000000E+00 0.  1.
         21   -1    0    0  502  503 -0.00000000000E+00 -0.00000000000E+00 -0.77728098945E+03  0.77728098945E+03  0.00000000000E+00 0. -1.
         -6    2    1    2    0  503 -0.29587417103E+03  0.21465853300E+03 -0.35563388279E+03  0.53844133533E+03  0.17269569230E+03 0.  0.
        -24    2    3    3    0    0 -0.17642852038E+03  0.20705946877E+03 -0.25130824842E+03  0.37959884347E+03  0.83299458751E+02 0.  0.
          6    2    1    2  501    0  0.29587417103E+03 -0.21465853300E+03 -0.20631609185E+03  0.45417066894E+03  0.17344986567E+03 0.  0.
         24    2    5    5    0    0  0.30031404364E+03 -0.20016757335E+03 -0.22246976506E+03  0.43152709284E+03  0.80419234413E+02 0.  0.
          5    1    5    5  501    0 -0.44398726073E+01 -0.14490959645E+02  0.16153673215E+02  0.22643576099E+02  0.47000000000E+01 0. -1.
        -13    1    6    6    0    0  0.12376612328E+03 -0.12878531505E+03 -0.94312728325E+02  0.20198663661E+03  0.00000000000E+00 0.  1.
         14    1    6    6    0    0  0.17654792035E+03 -0.71382258297E+02 -0.12815703674E+03  0.22954045623E+03  0.00000000000E+00 0. -1.
         -5    1    3    3    0  503 -0.11944565065E+03  0.75990642277E+01 -0.10432563437E+03  0.15884249186E+03  0.47000000000E+01 0.  1.
         11    1    4    4    0    0 -0.21223357567E+01 -0.28243839840E+01 -0.24658404927E+02  0.24910206493E+02  0.00000000000E+00 0. -1.
        -12    1    4    4    0    0 -0.17430618463E+03  0.20988385275E+03 -0.22664984349E+03  0.35468863698E+03  0.00000000000E+00 0.  1.
</event>
<event>
12    1  0.8421768E-002  0.2460580E+03  0.7818608E-02  0.1115992E+00
         21   -1    0    0  503  502  0.00000000000E+00  0.00000000000E+00  0.13316361647E+04  0.13316361647E+04  0.00000000000E+00 0. -1.
         21   -1    0    0  501  503 -0.00000000000E+00 -0.00000000000E+00 -0.11397639343E+03  0.11397639343E+03  0.00000000000E+00 0. -1.
          6    2    1    2  501    0 -0.49139356797E+02  0.16915446097E+03  0.47124981781E+02  0.24949541967E+03  0.17029178628E+03 0.  0.
         24    2    3    3    0    0  0.36146219721E+02  0.10514758498E+03  0.46964933599E+02  0.14275917769E+03  0.76235910173E+02 0.  0.
         -6    2    1    2    0  502  0.49139356797E+02 -0.16915446097E+03  0.11705347895E+04  0.11961171385E+04  0.17180397974E+03 0.  0.
        -24    2    5    5    0    0  0.67460325660E+02 -0.11396150276E+03  0.10601026235E+04  0.10712200855E+04  0.78465149750E+02 0.  0.
          5    1    3    3  501    0 -0.85285576519E+02  0.64006875995E+02  0.16004818187E+00  0.10673624198E+03  0.47000000000E+01 0. -1.
        -13    1    4    4    0    0 -0.15023886980E+02  0.72638118471E+02  0.26843743117E+02  0.78883458212E+02  0.00000000000E+00 0.  1.
         14    1    4    4    0    0  0.51170106702E+02  0.32509466509E+02  0.20121190481E+02  0.63875719479E+02  0.00000000000E+00 0. -1.
         -5    1    5    5    0  502 -0.18320968863E+02 -0.55192958218E+02  0.11043216606E+03  0.12489705295E+03  0.47000000000E+01 0.  1.
         11    1    6    6    0    0  0.13407807685E+02 -0.45992597954E+02  0.16217801750E+03  0.16910587729E+03  0.00000000000E+00 0. -1.
        -12    1    6    6    0    0  0.54052517975E+02 -0.67968904802E+02  0.89792460598E+03  0.90211420826E+03  0.00000000000E+00 0.  1.
</event>
<event>
12    1  0.8421768E-002  0.1931241E+03  0.7818608E-02  0.1156073E+00
         21   -1    0    0  503  502  0.00000000000E+00  0.00000000000E+00  0.32325499478E+03  0.32325499478E+03  0.00000000000E+00 0.  1.
         21   -1    0    0  501  503 -0.00000000000E+00 -0.00000000000E+00 -0.11473918931E+03  0.11473918931E+03  0.00000000000E+00 0.  1.
          6    2    1    2  501    0  0.74076010809E+02 -0.47923870435E+02  0.90324858782E+02  0.21157422133E+03  0.16976783642E+03 0.  0.
         24    2    3    3    0    0  0.15174787796E+02 -0.80700126495E+02  0.86867059635E+02  0.14391564162E+03  0.80143878440E+02 0.  0.
         -6    2    1    2    0  502 -0.74076010809E+02  0.47923870435E+02  0.11819094669E+03  0.22641996276E+03  0.17179332619E+03 0.  0.
        -24    2    5    5    0    0 -0.66554507334E+02  0.96148617339E+02  0.69645610491E+02  0.15742040555E+03  0.79098760809E+02 0.  0.
          5    1    3    3  501    0  0.58901223013E+02  0.32776256060E+02  0.34577991472E+01  0.67658579712E+02  0.47000000000E+01 0. -1.
        -11    1    4    4    0    0  0.40258085102E+02 -0.80094670349E+02  0.67129235069E+02  0.11199198112E+03  0.00000000000E+00 0.  1.
         12    1    4    4    0    0 -0.25083297306E+02 -0.60545614600E+00  0.19737824566E+02  0.31923660496E+02  0.00000000000E+00 0. -1.
         -5    1    5    5    0  502 -0.75215034746E+01 -0.48224746904E+02  0.48545336196E+02  0.68999557208E+02  0.47000000000E+01 0.  1.
         11    1    6    6    0    0 -0.21870042186E+02  0.18445336224E+02 -0.16561203140E+02  0.33057565292E+02  0.00000000000E+00 0. -1.
        -12    1    6    6    0    0 -0.44684465148E+02  0.77703281116E+02  0.86206813631E+02  0.12436284026E+03  0.00000000000E+00 0.  1.
</event>
<event>
12    1  0.8421768E-002  0.2273542E+03  0.7818608E-02  0.1128910E+00
         21   -1    0    0  501  502  0.00000000000E+00  0.00000000000E+00  0.46501060292E+02  0.46501060292E+02  0.00000000000E+00 0. -1.
         21   -1    0    0  502  503 -0.00000000000E+00 -0.00000000000E+00 -0.16775215593E+04  0.16775215593E+04  0.00000000000E+00 0. -1.
         -6    2    1    2    0  503 -0.56274056537E+02 -0.13296971639E+03 -0.13183047279E+04  0.13373948082E+04  0.17277095382E+03 0.  0.
        -24    2    3    3    0    0 -0.33070314616E+02 -0.47609955210E+02 -0.10628448561E+04  0.10670125999E+04  0.74272112201E+02 0.  0.
          6    2    1    2  501    0  0.56274056537E+02  0.13296971639E+03 -0.31271577114E+03  0.38662781142E+03  0.17561946399E+03 0.  0.
         24    2    5    5    0    0  0.94845561644E+02  0.58858664362E+02 -0.14948403056E+03  0.20319689753E+03  0.80520064827E+02 0.  0.
          5    1    5    5  501    0 -0.38571505107E+02  0.74111052024E+02 -0.16323174058E+03  0.18343091390E+03  0.47000000000E+01 0. -1.
        -11    1    6    6    0    0  0.44313542524E+02  0.12492256330E+02 -0.12003272661E+03  0.12855972144E+03  0.00000000000E+00 0.  1.
         12    1    6    6    0    0  0.50532019120E+02  0.46366408033E+02 -0.29451303945E+02  0.74637176087E+02  0.00000000000E+00 0. -1.
         -5    1    3    3    0  503 -0.23203741922E+02 -0.85359761177E+02 -0.25545987174E+03  0.27038220824E+03  0.47000000000E+01 0.  1.
         11    1    4    4    0    0 -0.55671475146E+02 -0.44301377793E+02 -0.83500530348E+03  0.83803089564E+03  0.00000000000E+00 0. -1.
        -12    1    4    4    0    0  0.22601160530E+02 -0.33085774165E+01 -0.22783955267E+03  0.22898170430E+03  0.00000000000E+00 0.  1.
</event>
<event>
12    1  0.8421768E-002  0.2239338E+03  0.7818608E-02  0.1131060E+00
         21   -1    0    0  503  502  0.00000000000E+00  0.00000000000E+00  0.17496044816E+04  0.17496044816E+04  0.00000000000E+00 0.  1.
         21   -1    0    0  501  503 -0.00000000000E+00 -0.00000000000E+00 -0.17360989679E+03  0.17360989679E+03  0.00000000000E+00 0.  1.
          6    2    1    2  501    0  0.14392887931E+03  0.87298449759E+00 -0.90696038044E+02  0.24160323866E+03  0.17155194318E+03 0.  0.
         24    2    3    3    0    0  0.11682753083E+03 -0.46408607509E+02 -0.10898746301E+03  0.18392570179E+03  0.78408965508E+02 0.  0.
         -6    2    1    2    0  502 -0.14392887931E+03 -0.87298449759E+00  0.16666906228E+04  0.16816111397E+04  0.17100324129E+03 0.  0.
        -24    2    5    5    0    0 -0.90519168466E+02 -0.18737607295E+02  0.55798385834E+03  0.57146496843E+03  0.81739869022E+02 0.  0.
          5    1    3    3  501    0  0.27101348480E+02  0.47281592007E+02  0.18291424969E+02  0.57677536871E+02  0.47000000000E+01 0. -1.
        -13    1    4    4    0    0  0.10216668269E+03 -0.21459453487E+02 -0.44966616842E+02  0.11366853490E+03  0.00000000000E+00 0.  1.
         14    1    4    4    0    0  0.14660848145E+02 -0.24949154022E+02 -0.64020846171E+02  0.70257166889E+02  0.00000000000E+00 0. -1.
         -5    1    5    5    0  502 -0.53409710849E+02  0.17864622797E+02  0.11087067645E+04  0.11101461713E+04  0.47000000000E+01 0.  1.
         11    1    6    6    0    0 -0.44210799318E+02  0.32084168825E+02  0.25119969111E+03  0.25707056128E+03  0.00000000000E+00 0. -1.
        -12    1    6    6    0    0 -0.46308369148E+02 -0.50821776120E+02  0.30678416724E+03  0.31439440715E+03  0.00000000000E+00 0.  1.
</event>
<event>
12    1  0.8421768E-002  0.1836085E+03  0.7818608E-02  0.1164986E+00
         21   -1    0    0  501  502  0.00000000000E+00  0.00000000000E+00  0.57980150217E+03  0.57980150217E+03  0.00000000000E+00 0. -1.
         21   -1    0    0  502  503 -0.00000000000E+00 -0.00000000000E+00 -0.57525078917E+02  0.57525078917E+02  0.00000000000E+00 0. -1.
         -6    2    1    2    0  503 -0.41680780337E+01 -0.62847274844E+02  0.27884402099E+03  0.33241442388E+03  0.16964141101E+03 0.  0.
        -24    2    3    3    0    0 -0.64665072092E+02 -0.27690187937E+02  0.12620034047E+03  0.16443201333E+03  0.78505050905E+02 0.  0.
          6    2    1    2  501    0  0.41680780337E+01  0.62847274844E+02  0.24343240226E+03  0.30491215721E+03  0.17246720358E+03 0.  0.
         24    2    5    5    0    0 -0.39043261976E+02  0.93410841267E+02  0.15637799508E+03  0.20292239641E+03  0.80457815326E+02 0.  0.
          5    1    5    5  501    0  0.43211340009E+02 -0.30563566422E+02  0.87054407181E+02  0.10198976080E+03  0.47000000000E+01 0. -1.
        -13    1    6    6    0    0 -0.24615930172E+02  0.45617953775E+02  0.16493672624E+02  0.54396534462E+02  0.00000000000E+00 0.  1.
         14    1    6    6    0    0 -0.14427331804E+02  0.47792887492E+02  0.13988432246E+03  0.14852586195E+03  0.00000000000E+00 0. -1.
         -5    1    3    3    0  503  0.60496994058E+02 -0.35157086907E+02  0.15264368052E+03  0.16798241054E+03  0.47000000000E+01 0.  1.
         11    1    4    4    0    0 -0.46904267409E+02  0.15267955513E+02  0.98912268858E+02  0.11052944267E+03  0.00000000000E+00 0. -1.
        -12    1    4    4    0    0 -0.17760804683E+02 -0.42958143450E+02  0.27288071613E+02  0.53902570663E+02  0.00000000000E+00 0.  1.
</event>
<event>
12    1  0.8421768E-002  0.2312661E+03  0.7818608E-02  0.1125879E+00
         21   -1    0    0  501  502  0.00000000000E+00  0.00000000000E+00  0.49879695700E+03  0.49879695700E+03  0.00000000000E+00 0.  1.
         21   -1    0    0  502  503 -0.00000000000E+00 -0.00000000000E+00 -0.32531608790E+03  0.32531608790E+03  0.00000000000E+00 0.  1.
         -6    2    1    2    0  503 -0.10278977416E+03  0.11426959736E+03 -0.25094721304E+03  0.34076720447E+03  0.17182696341E+03 0.  0.
        -24    2    3    3    0    0 -0.36735669214E+02  0.33125092306E+02 -0.18436071213E+03  0.21665665864E+03  0.10249124073E+03 0.  0.
          6    2    1    2  501    0  0.10278977416E+03 -0.11426959736E+03  0.42442808214E+03  0.48334584043E+03  0.17280256363E+03 0.  0.
         24    2    5    5    0    0  0.67960956144E+02 -0.14085657720E+03  0.38762205009E+03  0.42592904797E+03  0.81886710072E+02 0.  0.
          5    1    5    5  501    0  0.34828818019E+02  0.26586979835E+02  0.36806032048E+02  0.57416792461E+02  0.47000000000E+01 0. -1.
        -13    1    6    6    0    0  0.37958408281E+02 -0.41233112805E+02  0.59643811584E+02  0.81843720658E+02  0.00000000000E+00 0.  1.
         14    1    6    6    0    0  0.30002547863E+02 -0.99623464390E+02  0.32797823851E+03  0.34408532731E+03  0.00000000000E+00 0. -1.
         -5    1    3    3    0  503 -0.66054104948E+02  0.81144505054E+02 -0.66586500912E+02  0.12411054582E+03  0.47000000000E+01 0.  1.
         13    1    4    4    0    0  0.15376427809E+02  0.34903575416E+02 -0.14863221054E+03  0.15344780258E+03  0.00000000000E+00 0. -1.
        -14    1    4    4    0    0 -0.52112097023E+02 -0.17784831099E+01 -0.35728501589E+02  0.63208856057E+02  0.00000000000E+00 0.  1.
</event>
<event>
12    1  0.8421768E-002  0.1908648E+03  0.7818608E-02  0.1157805E+00
         21   -1    0    0  501  502  0.00000000000E+00  0.00000000000E+00  0.53412871794E+02  0.53412871794E+02  0.00000000000E+00 0. -1.
         21   -1    0    0  502  503 -0.00000000000E+00 -0.00000000000E+00 -0.11825553371E+04  0.11825553371E+04  0.00000000000E+00 0. -1.
         -6    2    1    2    0  503 -0.16558316617E+02 -0.79255832580E+02 -0.96693438728E+03  0.98548702453E+03  0.17224082374E+03 0.  0.
        -24    2    3    3    0    0  0.49170594411E+02 -0.79877378131E+02 -0.67595495354E+03  0.68713857569E+03  0.80288106825E+02 0.  0.
          6    2    1    2  501    0  0.16558316617E+02  0.79255832580E+02 -0.16220807805E+03  0.25048118439E+03  0.17284009460E+03 0.  0.
         24    2    5    5    0    0 -0.23760260727E+02  0.76493295482E+01 -0.14275113909E+03  0.16590139112E+03  0.80760891730E+02 0.  0.
          5    1    5    5  501    0  0.40318577345E+02  0.71606503032E+02 -0.19456938964E+02  0.84579793269E+02  0.47000000000E+01 0. -1.
        -11    1    6    6    0    0 -0.70543384262E+01  0.66011903207E+01 -0.14803386605E+03  0.14834879474E+03  0.00000000000E+00 0.  1.
         12    1    6    6    0    0 -0.16705922301E+02  0.10481392276E+01  0.52827269549E+01  0.17552596385E+02  0.00000000000E+00 0. -1.
         -5    1    3    3    0  503 -0.65728911028E+02  0.62154555112E+00 -0.29097943374E+03  0.29834844883E+03  0.47000000000E+01 0.  1.
         11    1    4    4    0    0 -0.20656437231E+01 -0.48488461390E+02 -0.14751548426E+03  0.15529396598E+03  0.00000000000E+00 0. -1.
        -12    1    4    4    0    0  0.51236238134E+02 -0.31388916742E+02 -0.52843946927E+03  0.53184460971E+03  0.00000000000E+00 0.  1.
</event>
<event>
12    1  0.8421768E-002  0.1737762E+03  0.7818608E-02  0.1174204E+00
         21   -1    0    0  501  502  0.00000000000E+00  0.00000000000E+00  0.98808467406E+02  0.98808467406E+02  0.00000000000E+00 0. -1.
         21   -1    0    0  502  503 -0.00000000000E+00 -0.00000000000E+00 -0.38186268780E+03  0.38186268780E+03  0.00000000000E+00 0. -1.
         -6    2    1    2    0  503  0.19345351986E+02  0.89869244555E+01 -0.24976305623E+03  0.30373478108E+03  0.17151742048E+03 0.  0.
        -24    2    3    3    0    0  0.44898441019E+01  0.71235730537E+02 -0.17480138388E+03  0.20505883521E+03  0.79993212741E+02 0.  0.
          6    2    1    2  501    0 -0.19345351986E+02 -0.89869244555E+01 -0.33291164158E+02  0.17693637412E+03  0.17246208691E+03 0.  0.
         24    2    5    5    0    0 -0.23812823620E+02  0.60442794715E+02 -0.22066300886E+02  0.10630683524E+03  0.81202460441E+02 0.  0.
          5    1    5    5  501    0  0.44674716338E+01 -0.69429719171E+02 -0.11224863272E+02  0.70629538880E+02  0.47000000000E+01 0. -1.
        -13    1    6    6    0    0  0.16900997420E+02  0.12165247092E+02 -0.36042346452E+02  0.41625565322E+02  0.00000000000E+00 0.  1.
         14    1    6    6    0    0 -0.40713821040E+02  0.48277547624E+02  0.13976045566E+02  0.64681269916E+02  0.00000000000E+00 0. -1.
         -5    1    3    3    0  503  0.14855507884E+02 -0.62248806081E+02 -0.74961672351E+02  0.98675945877E+02  0.47000000000E+01 0.  1.
         13    1    4    4    0    0  0.29839289056E+02  0.51483480198E+02 -0.15791820438E+03  0.16875749221E+03  0.00000000000E+00 0. -1.
        -14    1    4    4    0    0 -0.25349444954E+02  0.19752250339E+02 -0.16883179503E+02  0.36301342992E+02  0.00000000000E+00 0.  1.
</event>
<event>
12    1  0.8421768E-002  0.1832997E+03  0.7818608E-02  0.1164994E+00
         21   -1    0    0  503  502  0.00000000000E+00  0.00000000000E+00  0.25356003780E+02  0.25356003780E+02  0.00000000000E+00 0.  1.
         21   -1    0    0  501  503 -0.00000000000E+00 -0.00000000000E+00 -0.13171893129E+04  0.13171893129E+04  0.00000000000E+00 0.  1.
          6    2    1    2  501    0 -0.57811975517E+02  0.20241134203E+02 -0.61320383495E+03  0.63959671608E+03  0.17121065386E+03 0.  0.
         24    2    3    3    0    0 -0.46429992276E+02  0.60118175681E+02 -0.16858864398E+03  0.19302702833E+03  0.55383784223E+02 0.  0.
         -6    2    1    2    0  502  0.57811975517E+02 -0.20241134203E+02 -0.67862947420E+03  0.70294860063E+03  0.17276239130E+03 0.  0.
        -24    2    5    5    0    0  0.14633037613E+02 -0.16121256859E+02 -0.63763955896E+03  0.64308494539E+03  0.80622696049E+02 0.  0.
          5    1    3    3  501    0 -0.11381983241E+02 -0.39877041478E+02 -0.44461519097E+03  0.44656968776E+03  0.47000000000E+01 0. -1.
        -11    1    4    4    0    0  0.54100644985E+01  0.31896577191E+02 -0.39306696805E+02  0.50908514495E+02  0.00000000000E+00 0.  1.
         12    1    4    4    0    0 -0.51840056775E+02  0.28221598490E+02 -0.12928194718E+03  0.14211851383E+03  0.00000000000E+00 0. -1.
         -5    1    5    5    0  502  0.43178937904E+02 -0.41198773441E+01 -0.40989915238E+02  0.59863655243E+02  0.47000000000E+01 0.  1.
         13    1    6    6    0    0 -0.22711624004E+02  0.94177542187E+01 -0.82005127358E+02  0.85611639819E+02  0.00000000000E+00 0. -1.
        -14    1    6    6    0    0  0.37344661617E+02 -0.25539011078E+02 -0.55563443160E+03  0.55747330557E+03  0.00000000000E+00 0.  1.
</event>
<event>
12    1  0.8421768E-002  0.1757676E+03  0.7818608E-02  0.1172672E+00
         21   -1    0    0  501  502  0.00000000000E+00  0.00000000000E+00  0.22078230498E+03  0.22078230498E+03  0.00000000000E+00 0.  1.
         21   -1    0    0  502  503 -0.00000000000E+00 -0.00000000000E+00 -0.27947546224E+03  0.27947546224E+03  0.00000000000E+00 0.  1.
         -6    2    1    2    0  503  0.29308744893E+02 -0.37205789470E+01 -0.20738093328E+03  0.27003544675E+03  0.17040964109E+03 0.  0.
        -24    2    3    3    0    0 -0.27108042364E+02 -0.43204847862E+02 -0.15989358705E+03  0.18625597773E+03  0.80770200087E+02 0.  0.
          6    2    1    2  501    0 -0.29308744893E+02  0.37205789470E+01  0.14868777603E+03  0.23022232047E+03  0.17326689490E+03 0.  0.
         24    2    5    5    0    0 -0.35126308909E+01 -0.36661934148E+02  0.15860012447E+03  0.18106409112E+03  0.79207131108E+02 0.  0.
          5    1    5    5  501    0 -0.25796114002E+02  0.40382513095E+02 -0.99123484463E+01  0.49158229354E+02  0.47000000000E+01 0. -1.
        -13    1    6    6    0    0 -0.35911575612E+02 -0.51836469244E+01  0.39251550210E+02  0.53452742234E+02  0.00000000000E+00 0.  1.
         14    1    6    6    0    0  0.32398944721E+02 -0.31478287224E+02  0.11934857426E+03  0.12761134889E+03  0.00000000000E+00 0. -1.
         -5    1    3    3    0  503  0.56416787257E+02  0.39484268915E+02 -0.47487346231E+02  0.83779469014E+02  0.47000000000E+01 0.  1.
         11    1    4    4    0    0 -0.26863889544E+02 -0.27870216506E+02 -0.16557734356E+02  0.42101972597E+02  0.00000000000E+00 0. -1.
        -12    1    4    4    0    0 -0.24415281930E+00 -0.15334631356E+02 -0.14333585269E+03  0.14415400514E+03  0.00000000000E+00 0.  1.
</event>
<event>
12    1  0.8421768E-002  0.1866372E+03  0.7818608E-02  0.1161622E+00
         21   -1    0    0  501  502  0.00000000000E+00  0.00000000000E+00  0.12183686650E+03  0.12183686650E+03  0.00000000000E+00 0. -1.
         21   -1    0    0  502  503 -0.00000000000E+00 -0.00000000000E+00 -0.30503708220E+03  0.30503708220E+03  0.00000000000E+00 0. -1.
         -6    2    1    2    0  503  0.19373768571E+02 -0.67116963542E+02 -0.14581508871E+03  0.23652931841E+03  0.17263849127E+03 0.  0.
        -24    2    3    3    0    0  0.40130961970E+02  0.22173191196E+02 -0.57276592516E+02  0.10899599681E+03  0.80606294752E+02 0.  0.
          6    2    1    2  501    0 -0.19373768571E+02  0.67116963542E+02 -0.37385126993E+02  0.19034463029E+03  0.17307050834E+03 0.  0.
         24    2    5    5    0    0  0.33193289429E+02  0.34458441688E+02 -0.70518834209E+02  0.11998976414E+03  0.84471645269E+02 0.  0.
          5    1    5    5  501    0 -0.52567058000E+02  0.32658521854E+02  0.33133707216E+02  0.70354866146E+02  0.47000000000E+01 0. -1.
        -11    1    6    6    0    0 -0.90666246532E+01  0.43792429766E+02 -0.61067022287E+02  0.75691226693E+02  0.00000000000E+00 0.  1.
         12    1    6    6    0    0  0.42259914082E+02 -0.93339880771E+01 -0.94518119222E+01  0.44298537451E+02  0.00000000000E+00 0. -1.
         -5    1    3    3    0  503 -0.20757193399E+02 -0.89290154738E+02 -0.88538496197E+02  0.12753332161E+03  0.47000000000E+01 0.  1.
         13    1    4    4    0    0  0.14965293061E+02 -0.26877919304E+02 -0.41488935413E+02  0.51649920660E+02  0.00000000000E+00 0. -1.
        -14    1    4    4    0    0  0.25165668909E+02  0.49051110499E+02 -0.15787657103E+02  0.57346076148E+02  0.00000000000E+00 0.  1.
</event>
<event>
12    1  0.8421768E-002  0.2149840E+03  0.7818608E-02  0.1138069E+00
         21   -1    0    0  501  502  0.00000000000E+00  0.00000000000E+00  0.23018068838E+02  0.23018068838E+02  0.00000000000E+00 0.  1.
         21   -1    0    0  502  503 -0.00000000000E+00 -0.00000000000E+00 -0.21740595364E+04  0.21740595364E+04  0.00000000000E+00 0.  1.
         -6    2    1    2    0  503 -0.81511567718E+02 -0.99534872545E+02 -0.14006315575E+04  0.14170345376E+04  0.17224051267E+03 0.  0.
        -24    2    3    3    0    0  0.93476206913E+01 -0.63901219696E+01 -0.62509800063E+03  0.63064676773E+03  0.82702016837E+02 0.  0.
          6    2    1    2  501    0  0.81511567718E+02  0.99534872545E+02 -0.75040991007E+03  0.78004306770E+03  0.16970806644E+03 0.  0.
         24    2    5    5    0    0  0.12264294913E+03  0.81659653043E+02 -0.61158396810E+03  0.63407716013E+03  0.79431121467E+02 0.  0.
          5    1    5    5  501    0 -0.41131381410E+02  0.17875219502E+02 -0.13882594197E+03  0.14596590757E+03  0.47000000000E+01 0. -1.
        -11    1    6    6    0    0  0.40349684246E+02  0.29213770652E+02 -0.84952484909E+02  0.98480790547E+02  0.00000000000E+00 0.  1.
         12    1    6    6    0    0  0.82293264882E+02  0.52445882391E+02 -0.52663148319E+03  0.53559636958E+03  0.00000000000E+00 0. -1.
         -5    1    3    3    0  503 -0.90859188409E+02 -0.93144750575E+02 -0.77553355690E+03  0.78638776984E+03  0.47000000000E+01 0.  1.
         13    1    4    4    0    0  0.34960338045E+02 -0.31891041516E+02 -0.35918939184E+03  0.36229308988E+03  0.00000000000E+00 0. -1.
        -14    1    4    4    0    0 -0.25612717353E+02  0.25500919547E+02 -0.26590860879E+03  0.26835367785E+03  0.00000000000E+00 0.  1.
</event>
<event>
12    1  0.8421768E-002  0.3184185E+03  0.7818608E-02  0.1076385E+00
         21   -1    0    0  501  502  0.00000000000E+00  0.00000000000E+00  0.53886395064E+03  0.53886395064E+03  0.00000000000E+00 0. -1.
         21   -1    0    0  502  503 -0.00000000000E+00 -0.00000000000E+00 -0.21349355159E+03  0.21349355159E+03  0.00000000000E+00 0.  1.
         -6    2    1    2    0  503 -0.86064764510E+02  0.25376628239E+03  0.33030452689E+02  0.32012710568E+03  0.17200547438E+03 0.  0.
        -24    2    3    3    0    0 -0.11077365377E+03  0.25432072807E+03  0.29240134153E+02  0.29468514952E+03  0.95050075268E+02 0.  0.
          6    2    1    2  501    0  0.86064764510E+02 -0.25376628239E+03  0.29233994636E+03  0.43223039656E+03  0.17191859034E+03 0.  0.
         24    2    5    5    0    0  0.60873646984E+02 -0.21843507199E+03  0.15013210676E+03  0.28347540850E+03  0.79994850898E+02 0.  0.
          5    1    5    5  501    0  0.25191117525E+02 -0.35331210403E+02  0.14220783960E+03  0.14875498806E+03  0.47000000000E+01 0. -1.
        -13    1    6    6    0    0  0.93005178035E+01  0.38346204585E+01 -0.48643566940E+00  0.10071770705E+02  0.00000000000E+00 0.  1.
         14    1    6    6    0    0  0.51573129181E+02 -0.22226969245E+03  0.15061854243E+03  0.27340363779E+03  0.00000000000E+00 0. -1.
         -5    1    3    3    0  503  0.24708889258E+02 -0.55444567845E+00  0.37903185361E+01  0.25441956155E+02  0.47000000000E+01 0.  1.
         13    1    4    4    0    0 -0.10761674780E+03  0.21259568919E+03  0.56314036830E+02  0.24484599693E+03  0.00000000000E+00 0. -1.
        -14    1    4    4    0    0 -0.31569059692E+01  0.41725038879E+02 -0.27073902677E+02  0.49839152590E+02  0.00000000000E+00 0.  1.
</event>
<event>
12    1  0.8421768E-002  0.2657126E+03  0.7818608E-02  0.1103786E+00
         21   -1    0    0  501  502  0.00000000000E+00  0.00000000000E+00  0.48371758127E+03  0.48371758127E+03  0.00000000000E+00 0.  1.
         21   -1    0    0  502  503 -0.00000000000E+00 -0.00000000000E+00 -0.29173387483E+03  0.29173387483E+03  0.00000000000E+00 0. -1.
         -6    2    1    2    0  503 -0.50577236877E+02  0.19643842970E+03 -0.17819672921E+03  0.31977968570E+03  0.17134427196E+03 0.  0.
        -24    2    3    3    0    0 -0.65694963927E+02  0.14109236702E+03 -0.19323223791E+03  0.26028272068E+03  0.78648029868E+02 0.  0.
          6    2    1    2  501    0  0.50577236877E+02 -0.19643842970E+03  0.37018043566E+03  0.45567177040E+03  0.17163069028E+03 0.  0.
         24    2    5    5    0    0  0.42387606782E+02 -0.18083928615E+03  0.38314094411E+03  0.43330062605E+03  0.80329900140E+02 0.  0.
          5    1    5    5  501    0  0.81896300951E+01 -0.15599143550E+02 -0.12960508451E+02  0.22371144358E+02  0.47000000000E+01 0. -1.
        -13    1    6    6    0    0  0.20480171671E+02 -0.16875024273E+03  0.28342504961E+03  0.33049332913E+03  0.00000000000E+00 0.  1.
         14    1    6    6    0    0  0.21907435111E+02 -0.12089043422E+02  0.99715894494E+02  0.10280729691E+03  0.00000000000E+00 0. -1.
         -5    1    3    3    0  503  0.15117727050E+02  0.55346062675E+02  0.15035508694E+02  0.59496965019E+02  0.47000000000E+01 0.  1.
         13    1    4    4    0    0  0.97663415379E+01  0.37691116306E+02 -0.81691625853E+02  0.90495985601E+02  0.00000000000E+00 0. -1.
        -14    1    4    4    0    0 -0.75461305465E+02  0.10340125072E+03 -0.11154061205E+03  0.16978673508E+03  0.00000000000E+00 0.  1.
</event>
<event>
12    1  0.8421768E-002  0.1676166E+03  0.7818608E-02  0.1180398E+00
         21   -1    0    0  501  502  0.00000000000E+00  0.00000000000E+00  0.46355693815E+03  0.46355693815E+03  0.00000000000E+00 0. -1.
         21   -1    0    0  502  503 -0.00000000000E+00 -0.00000000000E+00 -0.75035534665E+02  0.75035534665E+02  0.00000000000E+00 0. -1.
         -6    2    1    2    0  503  0.88507067570E+01  0.42061581379E+01  0.75875087113E+02  0.18384884433E+03  0.16717458522E+03 0.  0.
        -24    2    3    3    0    0 -0.40738978078E+02 -0.32066854680E+02  0.74625535686E+02  0.12221671246E+03  0.81731308096E+02 0.  0.
          6    2    1    2  501    0 -0.88507067570E+01 -0.42061581379E+01  0.31264631637E+03  0.35474362848E+03  0.16732990178E+03 0.  0.
         24    2    5    5    0    0 -0.12851431694E+02  0.26431879710E+02  0.31201013154E+03  0.32348359178E+03  0.80171743203E+02 0.  0.
          5    1    5    5  501    0  0.40007249372E+01 -0.30638037848E+02  0.63618483229E+00  0.31260036698E+02  0.47000000000E+01 0. -1.
        -13    1    6    6    0    0 -0.15568361105E+02  0.52939703735E+02  0.16239841967E+03  0.17151744171E+03  0.00000000000E+00 0.  1.
         14    1    6    6    0    0  0.27169294106E+01 -0.26507824025E+02  0.14961171187E+03  0.15196615007E+03  0.00000000000E+00 0. -1.
         -5    1    3    3    0  503  0.49589684835E+02  0.36273012818E+02  0.12495514270E+01  0.61632131878E+02  0.47000000000E+01 0.  1.
         11    1    4    4    0    0 -0.27450298539E+01  0.20216694169E+02 -0.36300686044E+01  0.20722627973E+02  0.00000000000E+00 0. -1.
        -12    1    4    4    0    0 -0.37993948225E+02 -0.52283548850E+02  0.78255604291E+02  0.10149408448E+03  0.00000000000E+00 0.  1.
</event>
<event>
12    1  0.8421768E-002  0.1929626E+03  0.7818608E-02  0.1156268E+00
         21   -1    0    0  501  502  0.00000000000E+00  0.00000000000E+00  0.39172277408E+03  0.39172277408E+03  0.00000000000E+00 0.  1.
         21   -1    0    0  502  503 -0.00000000000E+00 -0.00000000000E+00 -0.95007705988E+02  0.95007705988E+02  0.00000000000E+00 0.  1.
         -6    2    1    2    0  503 -0.84931394731E+02 -0.65680800371E+01  0.17350318980E+03  0.25949553298E+03  0.17314182996E+03 0.  0.
        -24    2    3    3    0    0 -0.10037508591E+03 -0.11594139974E+02  0.55718747938E+02  0.14050379537E+03  0.80169543402E+02 0.  0.
          6    2    1    2  501    0  0.84931394731E+02  0.65680800371E+01  0.12321187829E+03  0.22723494708E+03  0.17087443558E+03 0.  0.
         24    2    5    5    0    0  0.23879955827E+01  0.36871273842E+02  0.10496147999E+03  0.13730795816E+03  0.80444824163E+02 0.  0.
          5    1    5    5  501    0  0.82543399148E+02 -0.30303193805E+02  0.18250398297E+02  0.89926988917E+02  0.47000000000E+01 0. -1.
        -11    1    6    6    0    0  0.39179250508E+02  0.28291737873E+02  0.74391309965E+02  0.88710219820E+02  0.00000000000E+00 0.  1.
         12    1    6    6    0    0 -0.36791254925E+02  0.85795359693E+01  0.30570170027E+02  0.48597738341E+02  0.00000000000E+00 0. -1.
         -5    1    3    3    0  503  0.15443691178E+02  0.50260599369E+01  0.11778444186E+03  0.11899173761E+03  0.47000000000E+01 0.  1.
         13    1    4    4    0    0  0.80968483368E+01  0.15169488776E+02  0.89508519947E+01  0.19385306140E+02  0.00000000000E+00 0. -1.
        -14    1    4    4    0    0 -0.10847193425E+03 -0.26763628750E+02  0.46767895944E+02  0.12111848923E+03  0.00000000000E+00 0.  1.
</event>
<event>
12    1  0.8421768E-002  0.2322021E+03  0.7818608E-02  0.1125187E+00
         21   -1    0    0  501  502  0.00000000000E+00  0.00000000000E+00  0.53536591894E+03  0.53536591894E+03  0.00000000000E+00 0.  1.
         21   -1    0    0  502  503 -0.00000000000E+00 -0.00000000000E+00 -0.26326854451E+03  0.26326854451E+03  0.00000000000E+00 0. -1.
         -6    2    1    2    0  503 -0.11647898468E+03 -0.10254008900E+03 -0.17799598035E+03  0.29217436660E+03  0.17205077086E+03 0.  0.
        -24    2    3    3    0    0 -0.10917579091E+02 -0.18725399673E+01 -0.90041801998E+02  0.12177720328E+03  0.81237067852E+02 0.  0.
          6    2    1    2  501    0  0.11647898468E+03  0.10254008900E+03  0.45009335478E+03  0.50646009686E+03  0.17273094097E+03 0.  0.
         24    2    5    5    0    0  0.10533379688E+03  0.92981052147E+01  0.20429601879E+03  0.24329341369E+03  0.79203272180E+02 0.  0.
          5    1    5    5  501    0  0.11145187797E+02  0.93241983780E+02  0.24579733599E+03  0.26316668317E+03  0.47000000000E+01 0. -1.
        -11    1    6    6    0    0  0.72551873578E+02 -0.54660274598E+01  0.19195484966E+03  0.20528106616E+03  0.00000000000E+00 0.  1.
         12    1    6    6    0    0  0.32781923306E+02  0.14764132674E+02  0.12341169134E+02  0.38012347532E+02  0.00000000000E+00 0. -1.
         -5    1    3    3    0  503 -0.10556140559E+03 -0.10066754903E+03 -0.87954178354E+02  0.17039716332E+03  0.47000000000E+01 0.  1.
         11    1    4    4    0    0 -0.34098114982E+02 -0.29818978681E+02 -0.44094712186E+02  0.63215477358E+02  0.00000000000E+00 0. -1.
        -12    1    4    4    0    0  0.23180535891E+02  0.27946438714E+02 -0.45947089812E+02  0.58561725924E+02  0.00000000000E+00 0.  1.
</event>
<event>
12    1  0.8421768E-002  0.1796113E+03  0.7818608E-02  0.1171526E+00
         21   -1    0    0  503  502  0.00000000000E+00  0.00000000000E+00  0.13518410056E+03  0.13518410056E+03  0.00000000000E+00 0.  1.
         21   -1    0    0  501  503 -0.00000000000E+00 -0.00000000000E+00 -0.23539604587E+03  0.23539604587E+03  0.00000000000E+00 0.  1.
          6    2    1    2  501    0 -0.59151485174E+02  0.73731963163E+01 -0.67156918425E+01  0.17973684947E+03  0.16943132036E+03 0.  0.
         24    2    3    3    0    0 -0.76036201784E+02  0.40254831694E+02  0.36079351967E+02  0.12299355582E+03  0.80148235650E+02 0.  0.
         -6    2    1    2    0  502  0.59151485174E+02 -0.73731963163E+01 -0.93496253464E+02  0.19084329695E+03  0.15532659901E+03 0.  0.
        -24    2    5    5    0    0 -0.44934618293E+01  0.34385420683E+02 -0.66081455670E+02  0.10979934276E+03  0.80539360149E+02 0.  0.
          5    1    3    3  501    0  0.16884716611E+02 -0.32881635378E+02 -0.42795043810E+02  0.56743293655E+02  0.47000000000E+01 0. -1.
        -11    1    4    4    0    0 -0.65838086343E+02  0.30971357833E+01  0.49243683390E+02  0.82275064370E+02  0.00000000000E+00 0.  1.
         12    1    4    4    0    0 -0.10198115441E+02  0.37157695911E+02 -0.13164331423E+02  0.40718491447E+02  0.00000000000E+00 0. -1.
         -5    1    5    5    0  502  0.63644947003E+02 -0.41758616999E+02 -0.27414797794E+02  0.81043954190E+02  0.47000000000E+01 0.  1.
         11    1    6    6    0    0 -0.21655801536E+02  0.29223717092E+02  0.47989976923E+01  0.36688278232E+02  0.00000000000E+00 0. -1.
        -12    1    6    6    0    0  0.17162339706E+02  0.51617035917E+01 -0.70880453363E+02  0.73111064532E+02  0.00000000000E+00 0.  1.
</event>
<event>
12    1  0.8421768E-002  0.1866451E+03  0.7818608E-02  0.1163809E+00
         21   -1    0    0  501  502  0.00000000000E+00  0.00000000000E+00  0.67719013507E+03  0.67719013507E+03  0.00000000000E+00 0.  1.
         21   -1    0    0  502  503 -0.00000000000E+00 -0.00000000000E+00 -0.50637998641E+02  0.50637998641E+02  0.00000000000E+00 0. -1.
         -6    2    1    2    0  503 -0.62963856346E+02  0.37041178180E+02  0.25239303778E+03  0.31390864794E+03  0.17175534241E+03 0.  0.
        -24    2    3    3    0    0 -0.28618545117E+02  0.61355114221E+02  0.68868452472E+02  0.12556287204E+03  0.80247740920E+02 0.  0.
          6    2    1    2  501    0  0.62963856346E+02 -0.37041178180E+02  0.37415909865E+03  0.41391948577E+03  0.16123837480E+03 0.  0.
         24    2    5    5    0    0  0.27960149350E+02 -0.73209469283E+02  0.32483914969E+03  0.34329405019E+03  0.78669786968E+02 0.  0.
          5    1    5    5  501    0  0.35003706996E+02  0.36168291103E+02  0.49319948959E+02  0.70625435574E+02  0.47000000000E+01 0. -1.
        -13    1    6    6    0    0  0.49250077851E+02 -0.73549652234E+02  0.27995863917E+03  0.29361873435E+03  0.00000000000E+00 0.  1.
         14    1    6    6    0    0 -0.21289928501E+02  0.34018295097E+00  0.44880510518E+02  0.49675315846E+02  0.00000000000E+00 0. -1.
         -5    1    3    3    0  503 -0.34345311229E+02 -0.24313936041E+02  0.18352458530E+03  0.18834577590E+03  0.47000000000E+01 0.  1.
         11    1    4    4    0    0 -0.35054448523E+02  0.78375820435E+02  0.62824875927E+02  0.10638866775E+03  0.00000000000E+00 0. -1.
        -12    1    4    4    0    0  0.64359034059E+01 -0.17020706214E+02  0.60435765452E+01  0.19174204289E+02  0.00000000000E+00 0.  1.
</event>
<event>
12    1  0.8421768E-002  0.1996859E+03  0.7818608E-02  0.1152029E+00
         21   -1    0    0  503  502  0.00000000000E+00  0.00000000000E+00  0.13265770368E+03  0.13265770368E+03  0.00000000000E+00 0. -1.
         21   -1    0    0  501  503 -0.00000000000E+00 -0.00000000000E+00 -0.40970868051E+03  0.40970868051E+03  0.00000000000E+00 0. -1.
          6    2    1    2  501    0  0.97507087138E+02  0.31834814168E+02 -0.28941086722E+03  0.35161501581E+03  0.17132828675E+03 0.  0.
         24    2    3    3    0    0  0.36190640899E+02 -0.25626262621E+00 -0.44963983088E+02  0.97516780963E+02  0.78599838645E+02 0.  0.
         -6    2    1    2    0  502 -0.97507087138E+02 -0.31834814168E+02  0.12359890396E+02  0.19075136838E+03  0.16035033587E+03 0.  0.
        -24    2    5    5    0    0 -0.10078679573E+03 -0.64525020605E+02  0.38550717843E+02  0.14847305801E+03  0.78972366256E+02 0.  0.
          5    1    3    3  501    0  0.61316446239E+02  0.32091076794E+02 -0.24444688413E+03  0.25409823485E+03  0.47000000000E+01 0. -1.
        -13    1    4    4    0    0  0.29852571919E+02  0.37678503755E+02 -0.24962001803E+02  0.54165923138E+02  0.00000000000E+00 0.  1.
         14    1    4    4    0    0  0.63380689796E+01 -0.37934766381E+02 -0.20001981285E+02  0.43350857825E+02  0.00000000000E+00 0. -1.
         -5    1    5    5    0  502  0.32797085900E+01  0.32690206438E+02 -0.26190827447E+02  0.42278310370E+02  0.47000000000E+01 0.  1.
         11    1    6    6    0    0 -0.18953804380E+02 -0.56180314281E+02  0.27904373212E+02  0.65529599858E+02  0.00000000000E+00 0. -1.
        -12    1    6    6    0    0 -0.81832991349E+02 -0.83447063248E+01  0.10646344631E+02  0.82943458155E+02  0.00000000000E+00 0.  1.
</event>
<event>
12    1  0.8421768E-002  0.2173733E+03  0.7818608E-02  0.1135999E+00
         21   -1    0    0  501  502  0.00000000000E+00  0.00000000000E+00  0.21608709087E+04  0.21608709087E+04  0.00000000000E+00 0.  1.
         21   -1    0    0  502  503 -0.00000000000E+00 -0.00000000000E+00 -0.48017658281E+02  0.48017658281E+02  0.00000000000E+00 0. -1.
         -6    2    1    2    0  503  0.10889577822E+03 -0.72164184208E+02  0.23936729057E+03  0.32283427177E+03  0.17279845844E+03 0.  0.
        -24    2    3    3    0    0  0.76694615836E+02 -0.46045304198E+02  0.52443512732E+02  0.13130960111E+03  0.80558396074E+02 0.  0.
          6    2    1    2  501    0 -0.10889577822E+03  0.72164184208E+02  0.18734859598E+04  0.18860542952E+04  0.17373889241E+03 0.  0.
         24    2    5    5    0    0 -0.70670623843E+02  0.22533670973E+02  0.16581450712E+04  0.16617372460E+04  0.80146702886E+02 0.  0.
          5    1    5    5  501    0 -0.38225154372E+02  0.49630513235E+02  0.21534088862E+03  0.22431704925E+03  0.47000000000E+01 0. -1.
        -13    1    6    6    0    0 -0.42867393504E+02  0.30723943103E+02  0.42614126073E+03  0.42939253394E+03  0.00000000000E+00 0.  1.
         14    1    6    6    0    0 -0.27803230340E+02 -0.81902721305E+01  0.12320038105E+04  0.12323447120E+04  0.00000000000E+00 0. -1.
         -5    1    3    3    0  503  0.32201162379E+02 -0.26118880010E+02  0.18692377784E+03  0.19152467067E+03  0.47000000000E+01 0.  1.
         11    1    4    4    0    0  0.71211969769E+02 -0.20260871294E+01  0.49703114050E+02  0.86865696415E+02  0.00000000000E+00 0. -1.
        -12    1    4    4    0    0  0.54826460669E+01 -0.44019217069E+02  0.27403986820E+01  0.44443904691E+02  0.00000000000E+00 0.  1.
</event>
<event>
12    1  0.8421768E-002  0.1992187E+03  0.7818608E-02  0.1150544E+00
         21   -1    0    0  503  502  0.00000000000E+00  0.00000000000E+00  0.19559310159E+03  0.19559310159E+03  0.00000000000E+00 0.  1.
         21   -1    0    0  501  503 -0.00000000000E+00 -0.00000000000E+00 -0.24322361183E+03  0.24322361183E+03  0.00000000000E+00 0.  1.
          6    2    1    2  501    0  0.82580574999E+02  0.54236445134E+02 -0.11386583789E+03  0.22887578811E+03  0.17221368702E+03 0.  0.
         24    2    3    3    0    0  0.56882631612E+02  0.21589014382E+02 -0.14558475514E+03  0.17639323157E+03  0.78853864177E+02 0.  0.
         -6    2    1    2    0  502 -0.82580574999E+02 -0.54236445134E+02  0.66235327652E+02  0.20994092531E+03  0.17299401766E+03 0.  0.
        -24    2    5    5    0    0  0.64741478839E+01 -0.11896952275E+01  0.69190497246E+02  0.10613570208E+03  0.80213043712E+02 0.  0.
          5    1    3    3  501    0  0.25697943387E+02  0.32647430752E+02  0.31718917248E+02  0.52482556535E+02  0.47000000000E+01 0. -1.
        -11    1    4    4    0    0 -0.13821690287E+02  0.24964139341E+02 -0.36040623875E+02  0.45969271744E+02  0.00000000000E+00 0.  1.
         12    1    4    4    0    0  0.70704321898E+02 -0.33751249591E+01 -0.10954413126E+03  0.13042395983E+03  0.00000000000E+00 0. -1.
         -5    1    5    5    0  502 -0.89054722883E+02 -0.53046749907E+02 -0.29551695941E+01  0.10380522323E+03  0.47000000000E+01 0.  1.
         13    1    6    6    0    0  0.24672995558E+02  0.31594240126E+02  0.49776998172E+02  0.63911675506E+02  0.00000000000E+00 0. -1.
        -14    1    6    6    0    0 -0.18198847674E+02 -0.32783935353E+02  0.19413499073E+02  0.42224026575E+02  0.00000000000E+00 0.  1.
</event>
<event>
12    1  0.8421768E-002  0.2442549E+03  0.7818608E-02  0.1117076E+00
         21   -1    0    0  501  502  0.00000000000E+00  0.00000000000E+00  0.15402123536E+03  0.15402123536E+03  0.00000000000E+00 0. -1.
         21   -1    0    0  502  503 -0.00000000000E+00 -0.00000000000E+00 -0.40242101525E+03  0.40242101525E+03  0.00000000000E+00 0.  1.
         -6    2    1    2    0  503 -0.13909588869E+03 -0.99165969047E+02 -0.17962726267E+03  0.30319371167E+03  0.17458212290E+03 0.  0.
        -24    2    3    3    0    0 -0.79251921882E+02 -0.99482969837E+02 -0.47841146595E+02  0.15837979230E+03  0.81348969833E+02 0.  0.
          6    2    1    2  501    0  0.13909588869E+03  0.99165969047E+02 -0.68772517225E+02  0.25324853894E+03  0.17384938218E+03 0.  0.
         24    2    5    5    0    0  0.94574236174E+02  0.88804421719E+02 -0.11287729418E+03  0.18955504982E+03  0.79745356642E+02 0.  0.
          5    1    5    5  501    0  0.44521652513E+02  0.10361547327E+02  0.44104776959E+02  0.63693489119E+02  0.47000000000E+01 0. -1.
        -13    1    6    6    0    0 -0.40093003712E+00  0.21242214651E+02  0.69869995752E+01  0.22365388242E+02  0.00000000000E+00 0.  1.
         14    1    6    6    0    0  0.94975166211E+02  0.67562207069E+02 -0.11986429376E+03  0.16718966158E+03  0.00000000000E+00 0. -1.
         -5    1    3    3    0  503 -0.59843966806E+02  0.31700079021E+00 -0.13178611608E+03  0.14481391937E+03  0.47000000000E+01 0.  1.
         13    1    4    4    0    0 -0.24385407126E+01  0.13678905460E+02 -0.15121734764E+01  0.13976609175E+02  0.00000000000E+00 0. -1.
        -14    1    4    4    0    0 -0.76813381169E+02 -0.11316187530E+03 -0.46328973119E+02  0.14440318313E+03  0.00000000000E+00 0.  1.
</event>
<event>
12    1  0.8421768E-002  0.2646509E+03  0.7818608E-02  0.1104537E+00
         21   -1    0    0  503  502  0.00000000000E+00  0.00000000000E+00  0.45056486762E+03  0.45056486762E+03  0.00000000000E+00 0. -1.
         21   -1    0    0  501  503 -0.00000000000E+00 -0.00000000000E+00 -0.23465511905E+03  0.23465511905E+03  0.00000000000E+00 0. -1.
          6    2    1    2  501    0 -0.10833823307E+03 -0.16809979482E+03 -0.92019088615E+02  0.27919006909E+03  0.17171158449E+03 0.  0.
         24    2    3    3    0    0  0.10822997880E+02 -0.64544787559E+02 -0.28189944094E+02  0.10883958280E+03  0.82269161610E+02 0.  0.
         -6    2    1    2    0  502  0.10833823307E+03  0.16809979482E+03  0.30792883719E+03  0.40602991758E+03  0.17333612271E+03 0.  0.
        -24    2    5    5    0    0  0.11819846252E+03  0.53028595961E+02  0.20485590929E+03  0.25115989661E+03  0.65821285012E+02 0.  0.
          5    1    3    3  501    0 -0.11916123095E+03 -0.10355500726E+03 -0.63829144521E+02  0.17035048629E+03  0.47000000000E+01 0. -1.
        -13    1    4    4    0    0  0.30257606338E+02 -0.23784452775E+02 -0.46282169955E+02  0.60193539444E+02  0.00000000000E+00 0.  1.
         14    1    4    4    0    0 -0.19434608457E+02 -0.40760334783E+02  0.18092225861E+02  0.48646043356E+02  0.00000000000E+00 0. -1.
         -5    1    5    5    0  502 -0.98602294496E+01  0.11507119885E+03  0.10307292790E+03  0.15487002097E+03  0.47000000000E+01 0.  1.
         11    1    6    6    0    0  0.33243006659E+02  0.49598484562E+02  0.95672708410E+02  0.11277576999E+03  0.00000000000E+00 0. -1.
        -12    1    6    6    0    0  0.84955455860E+02  0.34301113990E+01  0.10918320088E+03  0.13838412662E+03  0.00000000000E+00 0.  1.
</event>
<event>
12    1  0.8421768E-002  0.2282866E+03  0.7818608E-02  0.1127968E+00
         21   -1    0    0  501  502  0.00000000000E+00  0.00000000000E+00  0.21868317750E+03  0.21868317750E+03  0.00000000000E+00 0. -1.
         21   -1    0    0  502  503 -0.00000000000E+00 -0.00000000000E+00 -0.12908405555E+04  0.12908405555E+04  0.00000000000E+00 0.  1.
         -6    2    1    2    0  503  0.14578709395E+03  0.29787876873E+02 -0.12179789176E+04  0.12391882131E+04  0.17312882363E+03 0.  0.
        -24    2    3    3    0    0  0.53393893680E+02  0.64763615836E+02 -0.44746654446E+03  0.46235411702E+03  0.80621258366E+02 0.  0.
          6    2    1    2  501    0 -0.14578709395E+03 -0.29787876873E+02  0.14582153951E+03  0.27033551991E+03  0.17226774966E+03 0.  0.
         24    2    5    5    0    0 -0.13135513645E+03 -0.17758513782E+02  0.17182951010E+03  0.23790881012E+03  0.97497101018E+02 0.  0.
          5    1    5    5  501    0 -0.14431957496E+02 -0.12029363092E+02 -0.26007970594E+02  0.32426709793E+02  0.47000000000E+01 0. -1.
        -13    1    6    6    0    0 -0.45864654407E+02 -0.32373945281E+02  0.14062972955E+02  0.57874053471E+02  0.00000000000E+00 0.  1.
         14    1    6    6    0    0 -0.85490482047E+02  0.14615431499E+02  0.15776653715E+03  0.18003475665E+03  0.00000000000E+00 0. -1.
         -5    1    3    3    0  503  0.92393200270E+02 -0.34975738963E+02 -0.77051237310E+03  0.77683409610E+03  0.47000000000E+01 0.  1.
         13    1    4    4    0    0  0.36535630338E+02  0.54093094032E+02 -0.14253973335E+03  0.15677528725E+03  0.00000000000E+00 0. -1.
        -14    1    4    4    0    0  0.16858263342E+02  0.10670521804E+02 -0.30492681110E+03  0.30557882978E+03  0.00000000000E+00 0.  1.
</event>
<event>
12    1  0.8421768E-002  0.1845149E+03  0.7818608E-02  0.1163890E+00
         21   -1    0    0  503  502  0.00000000000E+00  0.00000000000E+00  0.78598779778E+02  0.78598779778E+02  0.00000000000E+00 0.  1.
         21   -1    0    0  501  503 -0.00000000000E+00 -0.00000000000E+00 -0.17917162495E+04  0.17917162495E+04  0.00000000000E+00 0.  1.
          6    2    1    2  501    0 -0.27120720004E+02 -0.53903868134E+02 -0.16729354710E+04  0.16830801636E+04  0.17436911019E+03 0.  0.
         24    2    3    3    0    0 -0.56886573305E+02 -0.83220107453E+01 -0.14444967897E+04  0.14481971441E+04  0.86015432513E+02 0.  0.
         -6    2    1    2    0  502  0.27120720004E+02  0.53903868134E+02 -0.40181998784E+02  0.18723486572E+03  0.17263007114E+03 0.  0.
        -24    2    5    5    0    0  0.50160679211E+02  0.56642925509E+02 -0.83819399640E+02  0.13758957481E+03  0.78617330102E+02 0.  0.
          5    1    3    3  501    0  0.29765853302E+02 -0.45581857389E+02 -0.22843868125E+03  0.23488301948E+03  0.47000000000E+01 0. -1.
        -11    1    4    4    0    0 -0.20503732106E+02 -0.46127917239E+02 -0.78032984802E+03  0.78196090663E+03  0.00000000000E+00 0.  1.
         12    1    4    4    0    0 -0.36382841199E+02  0.37805906493E+02 -0.66416694171E+03  0.66623623750E+03  0.00000000000E+00 0. -1.
         -5    1    5    5    0  502 -0.23039959207E+02 -0.27390573755E+01  0.43637400856E+02  0.49645290905E+02  0.47000000000E+01 0.  1.
         11    1    6    6    0    0  0.15403396091E+00  0.56113694905E+02 -0.60153552445E+02  0.82263116608E+02  0.00000000000E+00 0. -1.
        -12    1    6    6    0    0  0.50006645250E+02  0.52923060478E+00 -0.23665847196E+02  0.55326458207E+02  0.00000000000E+00 0.  1.
</event>
<event>
12    1  0.8421768E-002  0.4039076E+03  0.7818608E-02  0.1042507E+00
         21   -1    0    0  503  502  0.00000000000E+00  0.00000000000E+00  0.54596086103E+03  0.54596086103E+03  0.00000000000E+00 0.  1.
         21   -1    0    0  501  503 -0.00000000000E+00 -0.00000000000E+00 -0.48179409726E+03  0.48179409726E+03  0.00000000000E+00 0. -1.
          6    2    1    2  501    0  0.36244775611E+03 -0.39404897263E+02 -0.28511692780E+03  0.49440170668E+03  0.17383976306E+03 0.  0.
         24    2    3    3    0    0  0.11935872778E+03 -0.29561415842E+01 -0.45829463877E+02  0.15132537717E+03  0.80893666910E+02 0.  0.
         -6    2    1    2    0  502 -0.36244775611E+03  0.39404897263E+02  0.34928369156E+03  0.53335325161E+03  0.17188796345E+03 0.  0.
        -24    2    5    5    0    0 -0.21918600108E+03 -0.32006927639E+02  0.15691222342E+03  0.28304853543E+03  0.80175314544E+02 0.  0.
          5    1    3    3  501    0  0.24308902832E+03 -0.36448755679E+02 -0.23928746392E+03  0.34307632951E+03  0.47000000000E+01 0. -1.
        -11    1    4    4    0    0  0.81643996053E+02  0.31653422740E+02 -0.48440356225E+02  0.10007072186E+03  0.00000000000E+00 0.  1.
         12    1    4    4    0    0  0.37714731731E+02 -0.34609564325E+02  0.26108923481E+01  0.51254655312E+02  0.00000000000E+00 0. -1.
         -5    1    5    5    0  502 -0.14326175502E+03  0.71411824903E+02  0.19237146814E+03  0.25030471618E+03  0.47000000000E+01 0.  1.
         11    1    6    6    0    0 -0.14535040194E+03  0.14262392957E+02  0.78407668945E+02  0.16576464565E+03  0.00000000000E+00 0. -1.
        -12    1    6    6    0    0 -0.73835599141E+02 -0.46269320596E+02  0.78504554471E+02  0.11728388978E+03  0.00000000000E+00 0.  1.
</event>
<event>
12    1  0.8421768E-002  0.1744724E+03  0.7818608E-02  0.1173394E+00
         21   -1    0    0  503  502  0.00000000000E+00  0.00000000000E+00  0.12861277576E+04  0.12861277576E+04  0.00000000000E+00 0.  1.
         21   -1    0    0  501  503 -0.00000000000E+00 -0.00000000000E+00 -0.76779342926E+02  0.76779342926E+02  0.00000000000E+00 0.  1.
          6    2    1    2  501    0 -0.27689077496E+02  0.26406958852E+02  0.37249734197E+02  0.17789404964E+03  0.16969012261E+03 0.  0.
         24    2    3    3    0    0  0.35781048270E+02 -0.13023200935E+02 -0.10876017655E+02  0.88891957775E+02  0.79583950764E+02 0.  0.
         -6    2    1    2    0  502  0.27689077496E+02 -0.26406958852E+02  0.11720986805E+04  0.11850130509E+04  0.17022514944E+03 0.  0.
        -24    2    5    5    0    0  0.64016111880E+02 -0.27677754144E+02  0.10913472862E+04  0.10963330304E+04  0.77737339098E+02 0.  0.
          5    1    3    3  501    0 -0.63470125766E+02  0.39430159787E+02  0.48125751852E+02  0.89002091868E+02  0.47000000000E+01 0. -1.
        -13    1    4    4    0    0  0.15705994723E+02  0.25145583728E+01 -0.44214581948E+02  0.46988621292E+02  0.00000000000E+00 0.  1.
         14    1    4    4    0    0  0.20075053547E+02 -0.15537759308E+02  0.33338564294E+02  0.41903336483E+02  0.00000000000E+00 0. -1.
         -5    1    5    5    0  502 -0.36327034384E+02  0.12707952919E+01  0.80751394288E+02  0.88680020452E+02  0.47000000000E+01 0.  1.
         11    1    6    6    0    0  0.24669337538E+02  0.24946687261E+02  0.25399855541E+03  0.25641017837E+03  0.00000000000E+00 0. -1.
        -12    1    6    6    0    0  0.39346774342E+02 -0.52624441405E+02  0.83734873076E+03  0.83992285204E+03  0.00000000000E+00 0.  1.
</event>
<event>
12    1  0.8421768E-002  0.2038516E+03  0.7818608E-02  0.1148267E+00
         21   -1    0    0  501  502  0.00000000000E+00  0.00000000000E+00  0.12645061642E+03  0.12645061642E+03  0.00000000000E+00 0. -1.
         21   -1    0    0  502  503 -0.00000000000E+00 -0.00000000000E+00 -0.31878512191E+03  0.31878512191E+03  0.00000000000E+00 0. -1.
         -6    2    1    2    0  503 -0.58298142899E+01 -0.99008517323E+02 -0.71427404824E+02  0.20822522300E+03  0.16857993978E+03 0.  0.
        -24    2    3    3    0    0 -0.26626697206E+02 -0.12231900867E+03 -0.88218478951E+02  0.17244926018E+03  0.79280050592E+02 0.  0.
          6    2    1    2  501    0  0.58298142899E+01  0.99008517323E+02 -0.12090710066E+03  0.23701051533E+03  0.17809768148E+03 0.  0.
         24    2    5    5    0    0  0.41123927138E+02  0.19798665423E+02 -0.55215338665E+01  0.92595162736E+02  0.80375445816E+02 0.  0.
          5    1    5    5  501    0 -0.35294112848E+02  0.79209851900E+02 -0.11538556680E+03  0.14441535259E+03  0.47000000000E+01 0. -1.
        -11    1    6    6    0    0 -0.14721529253E+01 -0.28099889088E+02 -0.44424982862E+01  0.28486958279E+02  0.00000000000E+00 0.  1.
         12    1    6    6    0    0  0.42596080063E+02  0.47898554510E+02 -0.10790355803E+01  0.64108204457E+02  0.00000000000E+00 0. -1.
         -5    1    3    3    0  503  0.20796882916E+02  0.23310491343E+02  0.16791074127E+02  0.35775962824E+02  0.47000000000E+01 0.  1.
         13    1    4    4    0    0  0.19380303311E+02 -0.83994917294E+02 -0.37610798592E+02  0.94049531941E+02  0.00000000000E+00 0. -1.
        -14    1    4    4    0    0 -0.46007000517E+02 -0.38324091372E+02 -0.50607680359E+02  0.78399728235E+02  0.00000000000E+00 0.  1.
</event>
<event>
12    1  0.8421768E-002  0.1931629E+03  0.7818608E-02  0.1155796E+00
         21   -1    0    0  503  502  0.00000000000E+00  0.00000000000E+00  0.22569899369E+03  0.22569899369E+03  0.00000000000E+00 0. -1.
         21   -1    0    0  501  503 -0.00000000000E+00 -0.00000000000E+00 -0.18800215257E+03  0.18800215257E+03  0.00000000000E+00 0. -1.
          6    2    1    2  501    0 -0.28101418077E+02 -0.84430759515E+02  0.91688874021E+02  0.21381940614E+03  0.17144575227E+03 0.  0.
         24    2    3    3    0    0  0.48217342980E+01 -0.72996865486E+02  0.12404775096E+03  0.16602971256E+03  0.82620998803E+02 0.  0.
         -6    2    1    2    0  502  0.28101418077E+02  0.84430759515E+02 -0.53992032896E+02  0.19988174013E+03  0.17064386180E+03 0.  0.
        -24    2    5    5    0    0 -0.35081907253E+02  0.29931657169E+02  0.10916321087E+02  0.94063645394E+02  0.81253670695E+02 0.  0.
          5    1    3    3  501    0 -0.32923152375E+02 -0.11433894030E+02 -0.32358876938E+02  0.47789693572E+02  0.47000000000E+01 0. -1.
        -13    1    4    4    0    0 -0.35383508694E+02 -0.12887199484E+02  0.36071434582E+02  0.52146150297E+02  0.00000000000E+00 0.  1.
         14    1    4    4    0    0  0.40205242992E+02 -0.60109666002E+02  0.87976316378E+02  0.11388356227E+03  0.00000000000E+00 0. -1.
         -5    1    5    5    0  502  0.63183325331E+02  0.54499102346E+02 -0.64908353982E+02  0.10581809473E+03  0.47000000000E+01 0.  1.
         13    1    6    6    0    0  0.29654775632E+00  0.42760932071E+02  0.29640359809E+02  0.52030146855E+02  0.00000000000E+00 0. -1.
        -14    1    6    6    0    0 -0.35378455010E+02 -0.12829274901E+02 -0.18724038723E+02  0.42033498539E+02  0.00000000000E+00 0.  1.
</event>
<event>
12    1  0.8421768E-002  0.2344541E+03  0.7818608E-02  0.1123757E+00
         21   -1    0    0  503  502  0.00000000000E+00  0.00000000000E+00  0.10178438447E+04  0.10178438447E+04  0.00000000000E+00 0. -1.
         21   -1    0    0  501  503 -0.00000000000E+00 -0.00000000000E+00 -0.53818332904E+02  0.53818332904E+02  0.00000000000E+00 0.  1.
          6    2    1    2  501    0 -0.14198694440E+03  0.69429720065E+02  0.46030285882E+03  0.51657277228E+03  0.17317023075E+03 0.  0.
         24    2    3    3    0    0 -0.30193697650E+02 -0.16163196658E+02  0.23135854793E+03  0.24775784542E+03  0.81757348088E+02 0.  0.
         -6    2    1    2    0  502  0.14198694440E+03 -0.69429720065E+02  0.50372265300E+03  0.55508940534E+03  0.17148457183E+03 0.  0.
        -24    2    5    5    0    0  0.14197879734E+03 -0.29761404952E+02  0.48180299512E+03  0.50952476235E+03  0.80234887757E+02 0.  0.
          5    1    3    3  501    0 -0.11179324675E+03  0.85592916722E+02  0.22894431090E+03  0.26881492686E+03  0.47000000000E+01 0. -1.
        -11    1    4    4    0    0  0.77488727275E+01 -0.16185569485E+02  0.55496599923E+01  0.18783407948E+02  0.00000000000E+00 0.  1.
         12    1    4    4    0    0 -0.37942570378E+02  0.22372827246E-01  0.22580888793E+03  0.22897443748E+03  0.00000000000E+00 0. -1.
         -5    1    5    5    0  502  0.81470529701E-02 -0.39668315113E+02  0.21919657874E+02  0.45564642998E+02  0.47000000000E+01 0.  1.
         11    1    6    6    0    0  0.17525990665E+01  0.12765033392E+01 -0.31094938876E+01  0.37907804605E+01  0.00000000000E+00 0. -1.
        -12    1    6    6    0    0  0.14022619828E+03 -0.31037908291E+02  0.48491248901E+03  0.50573398189E+03  0.00000000000E+00 0.  1.
</event>
<event>
12    1  0.8421768E-002  0.1822702E+03  0.7818608E-02  0.1165851E+00
         21   -1    0    0  501  502  0.00000000000E+00  0.00000000000E+00  0.99819304696E+02  0.99819304696E+02  0.00000000000E+00 0. -1.
         21   -1    0    0  502  503 -0.00000000000E+00 -0.00000000000E+00 -0.38742922083E+03  0.38742922083E+03  0.00000000000E+00 0. -1.
         -6    2    1    2    0  503  0.43178457240E+02 -0.13150568046E+02 -0.50578359090E+02  0.18823952782E+03  0.17560931871E+03 0.  0.
        -24    2    3    3    0    0  0.58599154847E+02 -0.55449536733E+02 -0.75278310731E+02  0.13667230686E+03  0.80647277226E+02 0.  0.
          6    2    1    2  501    0 -0.43178457240E+02  0.13150568046E+02 -0.23703155704E+03  0.29900899770E+03  0.17659304930E+03 0.  0.
         24    2    5    5    0    0  0.18188532096E+02  0.35575788027E+02 -0.58269730366E+02  0.10862339281E+03  0.82505882190E+02 0.  0.
          5    1    5    5  501    0 -0.61366989336E+02 -0.22425219981E+02 -0.17876182667E+03  0.19038560488E+03  0.47000000000E+01 0. -1.
        -11    1    6    6    0    0 -0.33119899928E+01 -0.97659632029E+01  0.15972863593E+02  0.19012513941E+02  0.00000000000E+00 0.  1.
         12    1    6    6    0    0  0.21500522089E+02  0.45341751230E+02 -0.74242593959E+02  0.89610878873E+02  0.00000000000E+00 0. -1.
         -5    1    3    3    0  503 -0.15420697607E+02  0.42298968687E+02  0.24699951641E+02  0.51567220962E+02  0.47000000000E+01 0.  1.
         11    1    4    4    0    0  0.12884902650E+02 -0.11343248826E+02  0.17316028830E+02  0.24383085627E+02  0.00000000000E+00 0. -1.
        -12    1    4    4    0    0  0.45714252197E+02 -0.44106287907E+02 -0.92594339561E+02  0.11228922124E+03  0.00000000000E+00 0.  1.
</event>
<event>
12    1  0.8421768E-002  0.1789194E+03  0.7818608E-02  0.1169254E+00
         21   -1    0    0  503  502  0.00000000000E+00  0.00000000000E+00  0.36672539548E+02  0.36672539548E+02  0.00000000000E+00 0. -1.
         21   -1    0    0  501  503 -0.00000000000E+00 -0.00000000000E+00 -0.10674855884E+04  0.10674855884E+04  0.00000000000E+00 0. -1.
          6    2    1    2  501    0 -0.32072572474E+02 -0.12270934701E+02 -0.75396123261E+03  0.77452336744E+03  0.17392435337E+03 0.  0.
         24    2    3    3    0    0  0.39102144666E+02  0.13437874357E+02 -0.51894656789E+03  0.52758052820E+03  0.85592752152E+02 0.  0.
         -6    2    1    2    0  502  0.32072572474E+02  0.12270934701E+02 -0.27685181624E+03  0.32963476050E+03  0.17559305633E+03 0.  0.
        -24    2    5    5    0    0  0.84021734480E+02 -0.19136139494E+02 -0.19189871017E+03  0.22511567146E+03  0.80163001899E+02 0.  0.
          5    1    3    3  501    0 -0.71174717140E+02 -0.25708809058E+02 -0.23501466472E+03  0.24694283925E+03  0.47000000000E+01 0. -1.
        -11    1    4    4    0    0  0.86219943102E+00 -0.12027172575E+02 -0.77725424827E+01  0.14346033760E+02  0.00000000000E+00 0.  1.
         12    1    4    4    0    0  0.38239945235E+02  0.25465046932E+02 -0.51117402541E+03  0.51323449444E+03  0.00000000000E+00 0. -1.
         -5    1    5    5    0  502 -0.51949162006E+02  0.31407074195E+02 -0.84953106072E+02  0.10451908904E+03  0.47000000000E+01 0.  1.
         13    1    6    6    0    0  0.22116899074E+02  0.12638198215E+02 -0.53730084459E+01  0.26033641669E+02  0.00000000000E+00 0. -1.
        -14    1    6    6    0    0  0.61904835406E+02 -0.31774337709E+02 -0.18652570172E+03  0.19908202979E+03  0.00000000000E+00 0.  1.
</event>
<event>
12    1  0.8421768E-002  0.1882357E+03  0.7818608E-02  0.1160766E+00
         21   -1    0    0  503  502  0.00000000000E+00  0.00000000000E+00  0.33483677511E+03  0.33483677511E+03  0.00000000000E+00 0.  1.
         21   -1    0    0  501  503 -0.00000000000E+00 -0.00000000000E+00 -0.11529558735E+03  0.11529558735E+03  0.00000000000E+00 0.  1.
          6    2    1    2  501    0  0.66845380370E+02  0.40820412899E+02  0.40479349581E+02  0.19253894524E+03  0.17116675116E+03 0.  0.
         24    2    3    3    0    0  0.18383008217E+01 -0.35477356720E+02 -0.18157493293E+00  0.84267661773E+02  0.76413242710E+02 0.  0.
         -6    2    1    2    0  502 -0.66845380370E+02 -0.40820412899E+02  0.17906183817E+03  0.25759341723E+03  0.16779933171E+03 0.  0.
        -24    2    5    5    0    0 -0.83926898859E+02 -0.73431207930E+02  0.98608671389E+02  0.16899294165E+03  0.79994234825E+02 0.  0.
          5    1    3    3  501    0  0.65007079548E+02  0.76297769620E+02  0.40660924514E+02  0.10827128346E+03  0.47000000000E+01 0. -1.
        -11    1    4    4    0    0  0.16801586459E+02 -0.22766739779E+02 -0.34567623822E+02  0.44671449097E+02  0.00000000000E+00 0.  1.
         12    1    4    4    0    0 -0.14963285638E+02 -0.12710616941E+02  0.34386048889E+02  0.39596212676E+02  0.00000000000E+00 0. -1.
         -5    1    5    5    0  502  0.17081518489E+02  0.32610795031E+02  0.80453166785E+02  0.88600475575E+02  0.47000000000E+01 0.  1.
         11    1    6    6    0    0  0.77001520750E+01 -0.23795754980E+02 -0.73231923517E+00  0.25021322677E+02  0.00000000000E+00 0. -1.
        -12    1    6    6    0    0 -0.91627050934E+02 -0.49635452950E+02  0.99340990625E+02  0.14397161898E+03  0.00000000000E+00 0.  1.
</event>
<event>
12    1  0.8421768E-002  0.2318955E+03  0.7818608E-02  0.1125469E+00
         21   -1    0    0  501  502  0.00000000000E+00  0.00000000000E+00  0.15518297444E+03  0.15518297444E+03  0.00000000000E+00 0. -1.
         21   -1    0    0  502  503 -0.00000000000E+00 -0.00000000000E+00 -0.60107633153E+03  0.60107633153E+03  0.00000000000E+00 0.  1.
         -6    2    1    2    0  503  0.96775427268E+01 -0.15468489203E+03 -0.46941426183E+03  0.52317400618E+03  0.17128987384E+03 0.  0.
        -24    2    3    3    0    0 -0.16093222957E+02 -0.12060843610E+03 -0.18603220929E+03  0.23655088270E+03  0.80888506785E+02 0.  0.
          6    2    1    2  501    0 -0.96775427268E+01  0.15468489203E+03  0.23520904734E+02  0.23308529978E+03  0.17249479227E+03 0.  0.
         24    2    5    5    0    0  0.51835525940E+02  0.10291099281E+03 -0.19751817448E+02  0.14165766314E+03  0.79994781353E+02 0.  0.
          5    1    5    5  501    0 -0.61513068667E+02  0.51773899223E+02  0.43272722182E+02  0.91427636645E+02  0.47000000000E+01 0. -1.
        -11    1    6    6    0    0  0.70644865824E+02  0.57683523179E+02 -0.10460890358E+02  0.91801504022E+02  0.00000000000E+00 0.  1.
         12    1    6    6    0    0 -0.18809339884E+02  0.45227469628E+02 -0.92909270900E+01  0.49856159118E+02  0.00000000000E+00 0. -1.
         -5    1    3    3    0  503  0.25770765684E+02 -0.34076455931E+02 -0.28338205254E+03  0.28662312348E+03  0.47000000000E+01 0.  1.
         13    1    4    4    0    0  0.56866088482E+01  0.31430583115E+01 -0.53605389227E+02  0.53997723007E+02  0.00000000000E+00 0. -1.
        -14    1    4    4    0    0 -0.21779831805E+02 -0.12375149441E+03 -0.13242682006E+03  0.18255315969E+03  0.00000000000E+00 0.  1.
</event>
<event>
12    1  0.8421768E-002  0.1905792E+03  0.7818608E-02  0.1157985E+00
         21   -1    0    0  503  502  0.00000000000E+00  0.00000000000E+00  0.17038085966E+03  0.17038085966E+03  0.00000000000E+00 0. -1.
         21   -1    0    0  501  503 -0.00000000000E+00 -0.00000000000E+00 -0.96090891483E+03  0.96090891483E+03  0.00000000000E+00 0. -1.
          6    2    1    2  501    0 -0.50949146266E+01 -0.81146812590E+02 -0.89426555570E+03  0.91430613789E+03  0.17214548012E+03 0.  0.
         24    2    3    3    0    0 -0.35758023748E+02 -0.29241876949E+02 -0.77799246214E+03  0.78324939105E+03  0.77933393451E+02 0.  0.
         -6    2    1    2    0  502  0.50949146266E+01  0.81146812590E+02  0.10373750053E+03  0.21698363660E+03  0.17236492157E+03 0.  0.
        -24    2    5    5    0    0  0.66565293123E+02  0.35235503687E+02  0.76130661443E+02  0.13530938557E+03  0.82705944420E+02 0.  0.
          5    1    3    3  501    0  0.30663109121E+02 -0.51904935641E+02 -0.11627309356E+03  0.13105674683E+03  0.47000000000E+01 0. -1.
        -13    1    4    4    0    0  0.99117648368E+01  0.13360734144E+02 -0.38198918552E+03  0.38235126540E+03  0.00000000000E+00 0.  1.
         14    1    4    4    0    0 -0.45669788585E+02 -0.42602611092E+02 -0.39600327662E+03  0.40089812565E+03  0.00000000000E+00 0. -1.
         -5    1    5    5    0  502 -0.61470378496E+02  0.45911308903E+02  0.27606839091E+02  0.81674251036E+02  0.47000000000E+01 0.  1.
         13    1    6    6    0    0  0.65431485869E+01  0.40665597865E+02  0.41009636270E+01  0.41392288482E+02  0.00000000000E+00 0. -1.
        -14    1    6    6    0    0  0.60022144536E+02 -0.54300941784E+01  0.72029697816E+02  0.93917097085E+02  0.00000000000E+00 0.  1.
</event>
<event>
12    1  0.8421768E-002  0.2079253E+03  0.7818608E-02  0.1143310E+00
         21   -1    0    0  503  502  0.00000000000E+00  0.00000000000E+00  0.35179377079E+02  0.35179377079E+02  0.00000000000E+00 0. -1.
         21   -1    0    0  501  503 -0.00000000000E+00 -0.00000000000E+00 -0.16396121405E+04  0.16396121405E+04  0.00000000000E+00 0. -1.
          6    2    1    2  501    0 -0.10050763596E+03 -0.60728597554E+02 -0.12220204758E+04  0.12395075785E+04  0.17104165156E+03 0.  0.
         24    2    3    3    0    0 -0.63851202420E+02  0.16974504267E+02 -0.39498861369E+03  0.40801178356E+03  0.78054472842E+02 0.  0.
         -6    2    1    2    0  502  0.10050763596E+03  0.60728597554E+02 -0.38241228762E+03  0.43528393903E+03  0.17159021651E+03 0.  0.
        -24    2    5    5    0    0  0.87190903363E+02  0.10538273074E+03 -0.28698131316E+03  0.32898018620E+03  0.84628099607E+02 0.  0.
          5    1    3    3  501    0 -0.36656433539E+02 -0.77703101821E+02 -0.82703186207E+03  0.83149579495E+03  0.47000000000E+01 0. -1.
        -11    1    4    4    0    0 -0.26692794581E+02  0.12339109203E+02 -0.34124109419E+03  0.34250582953E+03  0.00000000000E+00 0.  1.
         12    1    4    4    0    0 -0.37158407839E+02  0.46353950643E+01 -0.53747519503E+02  0.65505954029E+02  0.00000000000E+00 0. -1.
         -5    1    5    5    0  502  0.13316732596E+02 -0.44654133186E+02 -0.95430974459E+02  0.10630375282E+03  0.47000000000E+01 0.  1.
         13    1    6    6    0    0  0.10227268136E+02 -0.76982102531E+00 -0.10047394501E+03  0.10099605569E+03  0.00000000000E+00 0. -1.
        -14    1    6    6    0    0  0.76963635228E+02  0.10615255177E+03 -0.18650736815E+03  0.22798413052E+03  0.00000000000E+00 0.  1.
</event>
<event>
12    1  0.8421768E-002  0.1804011E+03  0.7818608E-02  0.1167795E+00
         21   -1    0    0  501  502  0.00000000000E+00  0.00000000000E+00  0.72913444610E+03  0.72913444610E+03  0.00000000000E+00 0. -1.
         21   -1    0    0  502  503 -0.00000000000E+00 -0.00000000000E+00 -0.33185734436E+03  0.33185734436E+03  0.00000000000E+00 0. -1.
         -6    2    1    2    0  503  0.47340582726E+02 -0.20150407937E+02 -0.29511008109E+03  0.34588225356E+03  0.17290865697E+03 0.  0.
        -24    2    3    3    0    0 -0.37305058435E+02  0.49288924183E+01 -0.10847207083E+03  0.13936423317E+03  0.78995176882E+02 0.  0.
          6    2    1    2  501    0 -0.47340582726E+02  0.20150407937E+02  0.69238718283E+03  0.71510953690E+03  0.17127308342E+03 0.  0.
         24    2    5    5    0    0 -0.37073716677E+02 -0.40277197230E+02  0.24952237674E+03  0.26799855462E+03  0.81025278139E+02 0.  0.
          5    1    5    5  501    0 -0.10266866049E+02  0.60427605167E+02  0.44286480608E+03  0.44711098227E+03  0.47000000000E+01 0. -1.
        -11    1    6    6    0    0  0.31794190486E+01 -0.25790409095E+02  0.20354286788E+03  0.20519491459E+03  0.00000000000E+00 0.  1.
         12    1    6    6    0    0 -0.40253135726E+02 -0.14486788135E+02  0.45979508863E+02  0.62803640033E+02  0.00000000000E+00 0. -1.
         -5    1    3    3    0  503  0.84645641160E+02 -0.25079300355E+02 -0.18663801026E+03  0.20651802039E+03  0.47000000000E+01 0.  1.
         11    1    4    4    0    0  0.85957796540E+01 -0.28949901555E+02 -0.42660522578E+02  0.52267623005E+02  0.00000000000E+00 0. -1.
        -12    1    4    4    0    0 -0.45900838089E+02  0.33878793974E+02 -0.65811548252E+02  0.87096610162E+02  0.00000000000E+00 0.  1.
</event>
<event>
12    1  0.8421768E-002  0.1883411E+03  0.7818608E-02  0.1159994E+00
         21   -1    0    0  501  502  0.00000000000E+00  0.00000000000E+00  0.10832919037E+03  0.10832919037E+03  0.00000000000E+00 0.  1.
         21   -1    0    0  502  503 -0.00000000000E+00 -0.00000000000E+00 -0.49065727056E+03  0.49065727056E+03  0.00000000000E+00 0. -1.
         -6    2    1    2    0  503  0.69284376345E+02 -0.31235412592E+02 -0.36404868382E+03  0.40988266668E+03  0.17232637768E+03 0.  0.
        -24    2    3    3    0    0  0.18320559719E+01  0.40808580961E+02 -0.17261919593E+03  0.19445868620E+03  0.79674946659E+02 0.  0.
          6    2    1    2  501    0 -0.69284376345E+02  0.31235412592E+02 -0.18279396360E+02  0.18910379425E+03  0.17219213938E+03 0.  0.
         24    2    5    5    0    0 -0.66193105519E+02 -0.44249891149E+02 -0.12527917853E+02  0.11319097227E+03  0.79471173340E+02 0.  0.
          5    1    5    5  501    0 -0.30912708257E+01  0.75485303741E+02 -0.57514785077E+01  0.75912821982E+02  0.47000000000E+01 0. -1.
        -11    1    6    6    0    0 -0.19856526735E+02 -0.24088640317E+02  0.32818865367E+02  0.45294836023E+02  0.00000000000E+00 0.  1.
         12    1    6    6    0    0 -0.46336578784E+02 -0.20161250832E+02 -0.45346783220E+02  0.67896136244E+02  0.00000000000E+00 0. -1.
         -5    1    3    3    0  503  0.67452320373E+02 -0.72043993553E+02 -0.19142948789E+03  0.21542398048E+03  0.47000000000E+01 0.  1.
         11    1    4    4    0    0 -0.35617028046E+02  0.46023813891E+01 -0.88608231108E+02  0.95609482905E+02  0.00000000000E+00 0. -1.
        -12    1    4    4    0    0  0.37449084018E+02  0.36206199572E+02 -0.84010964821E+02  0.98849203291E+02  0.00000000000E+00 0.  1.
</event>
<event>
12    1  0.8421768E-002  0.1719640E+03  0.7818608E-02  0.1175868E+00
         21   -1    0    0  503  502  0.00000000000E+00  0.00000000000E+00  0.16688563068E+04  0.16688563068E+04  0.00000000000E+00 0. -1.
         21   -1    0    0  501  503 -0.00000000000E+00 -0.00000000000E+00 -0.18275593106E+02  0.18275593106E+02  0.00000000000E+00 0. -1.
          6    2    1    2  501    0  0.35208133027E+00 -0.12172151904E+02  0.67586095482E+03  0.69739490741E+03  0.17153233334E+03 0.  0.
         24    2    3    3    0    0  0.20685587063E+02  0.28728833501E+02  0.61499709348E+03  0.62115291320E+03  0.79726264226E+02 0.  0.
         -6    2    1    2    0  502 -0.35208133027E+00  0.12172151904E+02  0.97471975884E+03  0.98973699247E+03  0.17132548188E+03 0.  0.
        -24    2    5    5    0    0 -0.51177243598E+02  0.46070490906E+02  0.73348166980E+03  0.74083902118E+03  0.78137666829E+02 0.  0.
          5    1    3    3  501    0 -0.20333505733E+02 -0.40900985405E+02  0.60863861342E+02  0.76241994202E+02  0.47000000000E+01 0. -1.
        -13    1    4    4    0    0 -0.15576603184E+02  0.26180004828E+01  0.25711653187E+02  0.30175712136E+02  0.00000000000E+00 0.  1.
         14    1    4    4    0    0  0.36262190247E+02  0.26110833018E+02  0.58928544029E+03  0.59097720107E+03  0.00000000000E+00 0. -1.
         -5    1    5    5    0  502  0.50825162268E+02 -0.33898339001E+02  0.24123808905E+03  0.24889797129E+03  0.47000000000E+01 0.  1.
         13    1    6    6    0    0 -0.38741896018E+02 -0.11572010634E+02  0.41324535180E+03  0.41521869746E+03  0.00000000000E+00 0. -1.
        -14    1    6    6    0    0 -0.12435347580E+02  0.57642501540E+02  0.32023631800E+03  0.32562032372E+03  0.00000000000E+00 0.  1.
</event>
<event>
12    1  0.8421768E-002  0.2280741E+03  0.7818608E-02  0.1128720E+00
         21   -1    0    0  503  502  0.00000000000E+00  0.00000000000E+00  0.88837133712E+02  0.88837133712E+02  0.00000000000E+00 0. -1.
         21   -1    0    0  501  503 -0.00000000000E+00 -0.00000000000E+00 -0.94433230695E+03  0.94433230695E+03  0.00000000000E+00 0.  1.
          6    2    1    2  501    0 -0.14117753666E+03  0.26779184226E+02 -0.74835613780E+03  0.78118416979E+03  0.17194061934E+03 0.  0.
         24    2    3    3    0    0 -0.13839497837E+03 -0.29717533918E+02 -0.47937608869E+03  0.50628058921E+03  0.80512724153E+02 0.  0.
         -6    2    1    2    0  502  0.14117753666E+03 -0.26779184226E+02 -0.10713903544E+03  0.25198527088E+03  0.17711460205E+03 0.  0.
        -24    2    5    5    0    0  0.57340762838E+02 -0.77338575368E+02 -0.85386117427E+02  0.15158538980E+03  0.80113188865E+02 0.  0.
          5    1    3    3  501    0 -0.27825582940E+01  0.56496718144E+02 -0.26898004911E+03  0.27490358057E+03  0.47000000000E+01 0. -1.
        -11    1    4    4    0    0 -0.35002789286E+01  0.17754362687E+02 -0.81523483883E+02  0.83507770725E+02  0.00000000000E+00 0.  1.
         12    1    4    4    0    0 -0.13489469944E+03 -0.47471896605E+02 -0.39785260480E+03  0.42277281849E+03  0.00000000000E+00 0. -1.
         -5    1    5    5    0  502  0.83836773822E+02  0.50559391141E+02 -0.21752918017E+02  0.10039988107E+03  0.47000000000E+01 0.  1.
         11    1    6    6    0    0 -0.74029527209E+01 -0.61575181400E+00  0.10432706950E+02  0.12807194603E+02  0.00000000000E+00 0. -1.
        -12    1    6    6    0    0  0.64743715559E+02 -0.76722823554E+02 -0.95818824377E+02  0.13877819520E+03  0.00000000000E+00 0.  1.
</event>
<event>
12    1  0.8421768E-002  0.1964818E+03  0.7818608E-02  0.1153784E+00
         21   -1    0    0  503  502  0.00000000000E+00  0.00000000000E+00  0.59940053732E+03  0.59940053732E+03  0.00000000000E+00 0.  1.
         21   -1    0    0  501  503 -0.00000000000E+00 -0.00000000000E+00 -0.12585419582E+03  0.12585419582E+03  0.00000000000E+00 0.  1.
          6    2    1    2  501    0  0.13390652679E+02 -0.84746694493E+02 -0.18331714646E+02  0.19733512736E+03  0.17675912684E+03 0.  0.
         24    2    3    3    0    0 -0.54386290415E+02 -0.12925384734E+02 -0.50796372096E+01  0.97586833603E+02  0.79827646984E+02 0.  0.
         -6    2    1    2    0  502 -0.13390652679E+02  0.84746694493E+02  0.49187805615E+03  0.52791960578E+03  0.17144613218E+03 0.  0.
        -24    2    5    5    0    0  0.25022163939E+02  0.72588414727E+02  0.16703827001E+03  0.20055689424E+03  0.80162943677E+02 0.  0.
          5    1    3    3  501    0  0.67776943093E+02 -0.71821309759E+02 -0.13252077436E+02  0.99748293755E+02  0.47000000000E+01 0. -1.
        -13    1    4    4    0    0  0.42244230733E+01 -0.17132231066E+02 -0.29159579150E+02  0.34082842426E+02  0.00000000000E+00 0.  1.
         14    1    4    4    0    0 -0.58610713488E+02  0.42068463322E+01  0.24079941941E+02  0.63503991178E+02  0.00000000000E+00 0. -1.
         -5    1    5    5    0  502 -0.38412816617E+02  0.12158279766E+02  0.32483978613E+03  0.32736271153E+03  0.47000000000E+01 0.  1.
         11    1    6    6    0    0 -0.63387437052E+00  0.20638166080E+02 -0.30489809152E+01  0.20871798689E+02  0.00000000000E+00 0. -1.
        -12    1    6    6    0    0  0.25656038309E+02  0.51950248647E+02  0.17008725093E+03  0.17968509556E+03  0.00000000000E+00 0.  1.
</event>
<event>
12    1  0.8421768E-002  0.1967360E+03  0.7818608E-02  0.1152886E+00
         21   -1    0    0  501  502  0.00000000000E+00  0.00000000000E+00  0.21243862382E+03  0.21243862382E+03  0.00000000000E+00 0.  1.
         21   -1    0    0  502  503 -0.00000000000E+00 -0.00000000000E+00 -0.28770726355E+03  0.28770726355E+03  0.00000000000E+00 0.  1.
         -6    2    1    2    0  503 -0.84411952695E+02  0.46652734600E+02 -0.19008402449E+03  0.27235730192E+03  0.16954264401E+03 0.  0.
        -24    2    3    3    0    0 -0.74863669779E+02  0.92336210721E+02 -0.11552679129E+03  0.18427199826E+03  0.80493384665E+02 0.  0.
          6    2    1    2  501    0  0.84411952695E+02 -0.46652734600E+02  0.11481538476E+03  0.22778858545E+03  0.17147364719E+03 0.  0.
         24    2    5    5    0    0 -0.20294766931E+02 -0.38770563751E+02  0.45431636607E+02  0.10184486683E+03  0.79958171043E+02 0.  0.
          5    1    5    5  501    0  0.10470671963E+03 -0.78821708487E+01  0.69383748155E+02  0.12594371862E+03  0.47000000000E+01 0. -1.
        -13    1    6    6    0    0 -0.70359958547E+01 -0.31793142841E+02  0.67631496177E+02  0.75062163868E+02  0.00000000000E+00 0.  1.
         14    1    6    6    0    0 -0.13258771076E+02 -0.69774209099E+01 -0.22199859570E+02  0.26782702962E+02  0.00000000000E+00 0. -1.
         -5    1    3    3    0  503 -0.95482829158E+01 -0.45683476121E+02 -0.74557233200E+02  0.88085303653E+02  0.47000000000E+01 0.  1.
         13    1    4    4    0    0 -0.26214359422E+02  0.47970527785E+02 -0.40658243189E+01  0.54816923512E+02  0.00000000000E+00 0. -1.
        -14    1    4    4    0    0 -0.48649310357E+02  0.44365682935E+02 -0.11146096697E+03  0.12945507475E+03  0.00000000000E+00 0.  1.
</event>
<event>
12    1  0.8421768E-002  0.1950497E+03  0.7818608E-02  0.1154167E+00
         21   -1    0    0  503  502  0.00000000000E+00  0.00000000000E+00  0.78369472952E+02  0.78369472952E+02  0.00000000000E+00 0.  1.
         21   -1    0    0  501  503 -0.00000000000E+00 -0.00000000000E+00 -0.12349492274E+04  0.12349492274E+04  0.00000000000E+00 0.  1.
          6    2    1    2  501    0 -0.50620631350E+02 -0.76315511311E+02 -0.10900776573E+04  0.11072436414E+04  0.17126785138E+03 0.  0.
         24    2    3    3    0    0 -0.84397050212E+02 -0.41378874112E+02 -0.96663129696E+03  0.97449384303E+03  0.80169274215E+02 0.  0.
         -6    2    1    2    0  502  0.50620631350E+02  0.76315511311E+02 -0.66502097173E+02  0.20607505897E+03  0.17221467828E+03 0.  0.
        -24    2    5    5    0    0  0.33070824938E+02 -0.35430530762E+01 -0.87962197900E+02  0.12141094653E+03  0.76792167512E+02 0.  0.
          5    1    3    3  501    0  0.33776418862E+02 -0.34936637199E+02 -0.12344636034E+03  0.13274979838E+03  0.47000000000E+01 0. -1.
        -13    1    4    4    0    0  0.79832912948E+01 -0.13442403362E+02 -0.35058303335E+03  0.35093146685E+03  0.00000000000E+00 0.  1.
         14    1    4    4    0    0 -0.92380341507E+02 -0.27936470750E+02 -0.61604826361E+03  0.62356237618E+03  0.00000000000E+00 0. -1.
         -5    1    5    5    0  502  0.17549806412E+02  0.79858564387E+02  0.21460100727E+02  0.84664112434E+02  0.47000000000E+01 0.  1.
         13    1    6    6    0    0  0.51443883111E+02  0.24993080458E+01 -0.88121470016E+02  0.10206915855E+03  0.00000000000E+00 0. -1.
        -14    1    6    6    0    0 -0.18373058173E+02 -0.60423611220E+01  0.15927211598E+00  0.19341787977E+02  0.00000000000E+00 0.  1.
</event>
<event>
12    1  0.8421768E-002  0.1729429E+03  0.7818608E-02  0.1175074E+00
         21   -1    0    0  503  502  0.00000000000E+00  0.00000000000E+00  0.60591467420E+03  0.60591467420E+03  0.00000000000E+00 0. -1.
         21   -1    0    0  501  503 -0.00000000000E+00 -0.00000000000E+00 -0.49437478021E+02  0.49437478021E+02  0.00000000000E+00 0. -1.
          6    2    1    2  501    0  0.12516925304E+02 -0.16391186813E+01  0.30726149476E+03  0.35258881779E+03  0.17248155884E+03 0.  0.
         24    2    3    3    0    0  0.68808446813E+02  0.24319948093E+02  0.16321399356E+03  0.19569910767E+03  0.79581849807E+02 0.  0.
         -6    2    1    2    0  502 -0.12516925304E+02  0.16391186813E+01  0.24921570142E+03  0.30276333443E+03  0.17145789778E+03 0.  0.
        -24    2    5    5    0    0 -0.57164927655E+02 -0.95213856578E+01  0.73100111634E+02  0.12067326898E+03  0.76550152099E+02 0.  0.
          5    1    3    3  501    0 -0.56291521509E+02 -0.25959066775E+02  0.14404750120E+03  0.15688971013E+03  0.47000000000E+01 0. -1.
        -11    1    4    4    0    0  0.67454489471E+02 -0.14441353352E+02  0.98523550052E+02  0.12027281801E+03  0.00000000000E+00 0.  1.
         12    1    4    4    0    0  0.13539573422E+01  0.38761301446E+02  0.64690443510E+02  0.75426289659E+02  0.00000000000E+00 0. -1.
         -5    1    5    5    0  502  0.44648002351E+02  0.11160504339E+02  0.17611558978E+03  0.18209006545E+03  0.47000000000E+01 0.  1.
         11    1    6    6    0    0 -0.27743473164E+02  0.19104438749E+02 -0.33993118841E+01  0.33856095528E+02  0.00000000000E+00 0. -1.
        -12    1    6    6    0    0 -0.29421454492E+02 -0.28625824407E+02  0.76499423518E+02  0.86817173451E+02  0.00000000000E+00 0.  1.
</event>
<event>
12    1  0.8421768E-002  0.2699245E+03  0.7818608E-02  0.1101356E+00
         21   -1    0    0  501  502  0.00000000000E+00  0.00000000000E+00  0.29278530209E+03  0.29278530209E+03  0.00000000000E+00 0. -1.
         21   -1    0    0  502  503 -0.00000000000E+00 -0.00000000000E+00 -0.28174172512E+03  0.28174172512E+03  0.00000000000E+00 0.  1.
         -6    2    1    2    0  503 -0.11276878406E+03  0.17483516841E+03 -0.92952924804E+02  0.28526155056E+03  0.17160935648E+03 0.  0.
        -24    2    3    3    0    0 -0.12154196530E+03  0.10910469011E+03 -0.11502216639E+03  0.21521438138E+03  0.80067774171E+02 0.  0.
          6    2    1    2  501    0  0.11276878406E+03 -0.17483516841E+03  0.10399650178E+03  0.28926547665E+03  0.17197415162E+03 0.  0.
         24    2    5    5    0    0  0.63889629844E+02 -0.15016936382E+03  0.13486322663E+03  0.22623835283E+03  0.79768287956E+02 0.  0.
          5    1    5    5  501    0  0.48879154219E+02 -0.24665804587E+02 -0.30866724854E+02  0.63027123814E+02  0.47000000000E+01 0. -1.
        -13    1    6    6    0    0  0.17903726004E+02 -0.12343552904E+03  0.72484872252E+02  0.14425993879E+03  0.00000000000E+00 0.  1.
         14    1    6    6    0    0  0.45985903840E+02 -0.26733834780E+02  0.62378354377E+02  0.81978414042E+02  0.00000000000E+00 0. -1.
         -5    1    3    3    0  503  0.87731812394E+01  0.65730478296E+02  0.22069241583E+02  0.70047169180E+02  0.47000000000E+01 0.  1.
         11    1    4    4    0    0 -0.27275189921E+02  0.32675895774E+02 -0.77102723075E+02  0.88070880860E+02  0.00000000000E+00 0. -1.
        -12    1    4    4    0    0 -0.94266775382E+02  0.76428794337E+02 -0.37919443312E+02  0.12714350052E+03  0.00000000000E+00 0.  1.
</event>
<event>
12    1  0.8421768E-002  0.2940856E+03  0.7818608E-02  0.1088310E+00
         21   -1    0    0  503  502  0.00000000000E+00  0.00000000000E+00  0.30168466512E+04  0.30168466512E+04  0.00000000000E+00 0.  1.
         21   -1    0    0  501  503 -0.00000000000E+00 -0.00000000000E+00 -0.41953985973E+02  0.41953985973E+02  0.00000000000E+00 0. -1.
          6    2    1    2  501    0  0.65605338437E+02 -0.22822082292E+03  0.62392002503E+03  0.68950565490E+03  0.17249071296E+03 0.  0.
         24    2    3    3    0    0  0.10665762346E+03 -0.13959243173E+03  0.44395960940E+03  0.48469324555E+03  0.83459642120E+02 0.  0.
         -6    2    1    2    0  502 -0.65605338437E+02  0.22822082292E+03  0.23509726402E+04  0.23692949823E+04  0.17348646526E+03 0.  0.
        -24    2    5    5    0    0 -0.37153173103E+02  0.24264863694E+03  0.19350059533E+04  0.19520803347E+04  0.78172083224E+02 0.  0.
          5    1    3    3  501    0 -0.41052285022E+02 -0.88628391190E+02  0.17996041563E+03  0.20481240935E+03  0.47000000000E+01 0. -1.
        -13    1    4    4    0    0 -0.70384941084E+01 -0.21714686688E+02  0.11472687810E+03  0.11697574354E+03  0.00000000000E+00 0.  1.
         14    1    4    4    0    0  0.11369611757E+03 -0.11787774504E+03  0.32923273129E+03  0.36771750201E+03  0.00000000000E+00 0. -1.
         -5    1    5    5    0  502 -0.28452165334E+02 -0.14427814021E+02  0.41596668692E+03  0.41721464758E+03  0.47000000000E+01 0.  1.
         11    1    6    6    0    0 -0.54635702783E+01  0.14737967752E+03  0.87624810415E+03  0.88857265317E+03  0.00000000000E+00 0. -1.
        -12    1    6    6    0    0 -0.31689602825E+02  0.95268959420E+02  0.10587578492E+04  0.10635076815E+04  0.00000000000E+00 0.  1.
</event>
<event>
12    1  0.8421768E-002  0.1868406E+03  0.7818608E-02  0.1162239E+00
         21   -1    0    0  501  502  0.00000000000E+00  0.00000000000E+00  0.21517296960E+04  0.21517296960E+04  0.00000000000E+00 0.  1.
         21   -1    0    0  502  503 -0.00000000000E+00 -0.00000000000E+00 -0.96171869684E+02  0.96171869684E+02  0.00000000000E+00 0.  1.
         -6    2    1    2    0  503 -0.38100565054E+02 -0.43431924037E+02  0.26556042129E+01  0.18685947876E+03  0.17768350370E+03 0.  0.
        -24    2    3    3    0    0 -0.17074540795E+02  0.30032024235E+02  0.41514278024E+02  0.10100418235E+03  0.85351901848E+02 0.  0.
          6    2    1    2  501    0  0.38100565054E+02  0.43431924037E+02  0.20529022221E+04  0.20610420869E+04  0.17363457449E+03 0.  0.
         24    2    5    5    0    0 -0.26114170993E+02 -0.15395822147E+02  0.66364797876E+03  0.66905297824E+03  0.79273366964E+02 0.  0.
          5    1    5    5  501    0  0.64214736046E+02  0.58827746184E+02  0.13892542433E+04  0.13919891086E+04  0.47000000000E+01 0. -1.
        -11    1    6    6    0    0 -0.33649375496E+02 -0.33841181698E+02  0.60932644431E+03  0.61119245888E+03  0.00000000000E+00 0.  1.
         12    1    6    6    0    0  0.75352045037E+01  0.18445359551E+02  0.54321534447E+02  0.57860519360E+02  0.00000000000E+00 0. -1.
         -5    1    3    3    0  503 -0.21026024258E+02 -0.73463948272E+02 -0.38858673811E+02  0.85855296413E+02  0.47000000000E+01 0.  1.
         11    1    4    4    0    0 -0.49288083202E+01  0.26933352308E+01  0.63582358988E+02  0.63829958332E+02  0.00000000000E+00 0. -1.
        -12    1    4    4    0    0 -0.12145732475E+02  0.27338689004E+02 -0.22068080964E+02  0.37174224017E+02  0.00000000000E+00 0.  1.
</event>
<event>
12    1  0.8421768E-002  0.1910152E+03  0.7818608E-02  0.1157639E+00
         21   -1    0    0  501  502  0.00000000000E+00  0.00000000000E+00  0.61217516960E+03  0.61217516960E+03  0.00000000000E+00 0. -1.
         21   -1    0    0  502  503 -0.00000000000E+00 -0.00000000000E+00 -0.59589063340E+02  0.59589063340E+02  0.00000000000E+00 0. -1.
         -6    2    1    2    0  503  0.61213881909E+02 -0.52973178486E+02  0.26194934167E+03  0.32419789853E+03  0.17301307128E+03 0.  0.
        -24    2    3    3    0    0 -0.13998208499E+02  0.23260631706E+02  0.94581357448E+02  0.12544532747E+03  0.77806748933E+02 0.  0.
          6    2    1    2  501    0 -0.61213881909E+02  0.52973178486E+02  0.29063676459E+03  0.34756633440E+03  0.17256688820E+03 0.  0.
         24    2    5    5    0    0  0.22403997573E+02  0.30368409402E+02  0.77735158336E+02  0.11767046820E+03  0.79871176576E+02 0.  0.
          5    1    5    5  501    0 -0.83617879482E+02  0.22604769084E+02  0.21290160625E+03  0.22989586621E+03  0.47000000000E+01 0. -1.
        -13    1    6    6    0    0  0.42065315845E+02  0.27881902024E+02  0.83023942262E+02  0.97158974091E+02  0.00000000000E+00 0.  1.
         14    1    6    6    0    0 -0.19661318272E+02  0.24865073778E+01 -0.52887839262E+01  0.20511494108E+02  0.00000000000E+00 0. -1.
         -5    1    3    3    0  503  0.75212090408E+02 -0.76233810192E+02  0.16736798422E+03  0.19875257106E+03  0.47000000000E+01 0.  1.
         11    1    4    4    0    0 -0.36461623159E+01  0.43855074475E+02  0.21817428533E+02  0.49117840391E+02  0.00000000000E+00 0. -1.
        -12    1    4    4    0    0 -0.10352046183E+02 -0.20594442769E+02  0.72763928914E+02  0.76327487082E+02  0.00000000000E+00 0.  1.
</event>
<event>
12    1  0.8421768E-002  0.1935542E+03  0.7818608E-02  0.1155369E+00
         21   -1    0    0  503  502  0.00000000000E+00  0.00000000000E+00  0.55178256589E+02  0.55178256589E+02  0.00000000000E+00 0.  1.
         21   -1    0    0  501  503 -0.00000000000E+00 -0.00000000000E+00 -0.15712128116E+04  0.15712128116E+04  0.00000000000E+00 0.  1.
          6    2    1    2  501    0 -0.82819331702E+02  0.31812209000E+02 -0.13709469558E+04  0.13844951371E+04  0.17163965413E+03 0.  0.
         24    2    3    3    0    0 -0.12297275418E+03  0.22243980735E+02 -0.95343766814E+03  0.96492399467E+03  0.80111394451E+02 0.  0.
         -6    2    1    2    0  502  0.82819331702E+02 -0.31812209000E+02 -0.14508759921E+03  0.24189593102E+03  0.17202375317E+03 0.  0.
        -24    2    5    5    0    0  0.19496197390E+02 -0.55235956278E+02 -0.14412806292E+03  0.17420913773E+03  0.78388854877E+02 0.  0.
          5    1    3    3  501    0  0.40153422475E+02  0.95682282648E+01 -0.41750928763E+03  0.41957114246E+03  0.47000000000E+01 0. -1.
        -13    1    4    4    0    0 -0.36533663584E+02  0.42844200229E+02 -0.47282568842E+03  0.47616642647E+03  0.00000000000E+00 0.  1.
         14    1    4    4    0    0 -0.86439090593E+02 -0.20600219494E+02 -0.48061197972E+03  0.48875756821E+03  0.00000000000E+00 0. -1.
         -5    1    5    5    0  502  0.63323134312E+02  0.23423747278E+02 -0.95953628245E+00  0.67686793287E+02  0.47000000000E+01 0.  1.
         11    1    6    6    0    0  0.29732649743E+02 -0.48958566654E+02 -0.41138633697E+02  0.70522045433E+02  0.00000000000E+00 0. -1.
        -12    1    6    6    0    0 -0.10236452352E+02 -0.62773896234E+01 -0.10298942923E+03  0.10368709230E+03  0.00000000000E+00 0.  1.
</event>
<event>
12    1  0.8421768E-002  0.2374379E+03  0.7818608E-02  0.1121600E+00
         21   -1    0    0  501  502  0.00000000000E+00  0.00000000000E+00  0.23119844661E+03  0.23119844661E+03  0.00000000000E+00 0.  1.
         21   -1    0    0  502  503 -0.00000000000E+00 -0.00000000000E+00 -0.94069356749E+03  0.94069356749E+03  0.00000000000E+00 0.  1.
         -6    2    1    2    0  503  0.14737295793E+03  0.70203335072E+02 -0.85915604144E+03  0.89122291020E+03  0.17170286878E+03 0.  0.
        -24    2    3    3    0    0  0.87519675240E+02  0.10248724084E+03 -0.47498819388E+03  0.50105411197E+03  0.85311843869E+02 0.  0.
          6    2    1    2  501    0 -0.14737295793E+03 -0.70203335072E+02  0.14966092057E+03  0.28066910389E+03  0.17242232381E+03 0.  0.
         24    2    5    5    0    0 -0.13890529949E+03 -0.57571564507E+02  0.17907435320E+03  0.24722507773E+03  0.80271089539E+02 0.  0.
          5    1    5    5  501    0 -0.84676584401E+01 -0.12631770565E+02 -0.29413432632E+02  0.33444026167E+02  0.47000000000E+01 0. -1.
        -13    1    6    6    0    0 -0.45811856774E+02  0.19049534761E+02  0.58567609281E+02  0.76757904170E+02  0.00000000000E+00 0.  1.
         14    1    6    6    0    0 -0.93093442719E+02 -0.76621099268E+02  0.12050674392E+03  0.17046717356E+03  0.00000000000E+00 0. -1.
         -5    1    3    3    0  503  0.59853282693E+02 -0.32283905767E+02 -0.38416784755E+03  0.39016879823E+03  0.47000000000E+01 0.  1.
         11    1    4    4    0    0 -0.52071919576E+01  0.51956672454E+02 -0.19307764905E+03  0.20001397257E+03  0.00000000000E+00 0. -1.
        -12    1    4    4    0    0  0.92726867198E+02  0.50530568385E+02 -0.28191054484E+03  0.30104013940E+03  0.00000000000E+00 0.  1.
</event>
<event>
12    1  0.8421768E-002  0.1974567E+03  0.7818608E-02  0.1153940E+00
         21   -1    0    0  503  502  0.00000000000E+00  0.00000000000E+00  0.42067367584E+03  0.42067367584E+03  0.00000000000E+00 0. -1.
         21   -1    0    0  501  503 -0.00000000000E+00 -0.00000000000E+00 -0.90940903819E+02  0.90940903819E+02  0.00000000000E+00 0. -1.
          6    2    1    2  501    0 -0.57651529559E+02 -0.48449349743E+02  0.12586875263E+03  0.23416256694E+03  0.18253253550E+03 0.  0.
         24    2    3    3    0    0 -0.44889344949E+02 -0.98863477869E+01  0.15778629446E+03  0.18228966503E+03  0.78868333928E+02 0.  0.
         -6    2    1    2    0  502  0.57651529559E+02  0.48449349743E+02  0.20386401938E+03  0.27745201271E+03  0.17247620882E+03 0.  0.
        -24    2    5    5    0    0  0.44139509820E+02 -0.37436241532E+02  0.13413724615E+03  0.16590461305E+03  0.78624241299E+02 0.  0.
          5    1    3    3  501    0 -0.12762184610E+02 -0.38563001956E+02 -0.31917541826E+02  0.51872901905E+02  0.47000000000E+01 0. -1.
        -11    1    4    4    0    0 -0.81350297957E+01  0.33224535674E+02  0.51044898611E+02  0.61446156550E+02  0.00000000000E+00 0.  1.
         12    1    4    4    0    0 -0.36754315154E+02 -0.43110883461E+02  0.10674139585E+03  0.12084350848E+03  0.00000000000E+00 0. -1.
         -5    1    5    5    0  502  0.13512019739E+02  0.85885591275E+02  0.69726773232E+02  0.11154739966E+03  0.47000000000E+01 0.  1.
         11    1    6    6    0    0  0.18062291871E+02  0.22934949269E+02  0.24758142854E+02  0.38278243470E+02  0.00000000000E+00 0. -1.
        -12    1    6    6    0    0  0.26077217949E+02 -0.60371190800E+02  0.10937910330E+03  0.12762636958E+03  0.00000000000E+00 0.  1.
</event>
<event>
12    1  0.8421768E-002  0.1983296E+03  0.7818608E-02  0.1151794E+00
         21   -1    0    0  501  502  0.00000000000E+00  0.00000000000E+00  0.49664967028E+02  0.49664967028E+02  0.00000000000E+00 0. -1.
         21   -1    0    0  502  503 -0.00000000000E+00 -0.00000000000E+00 -0.99918782658E+03  0.99918782658E+03  0.00000000000E+00 0. -1.
         -6    2    1    2    0  503  0.16410701520E+02 -0.97816484180E+02 -0.72306136133E+03  0.74976820965E+03  0.17174766447E+03 0.  0.
        -24    2    3    3    0    0 -0.46858091527E+00 -0.63554073163E+02 -0.69396519157E+03  0.70152403820E+03  0.80678059449E+02 0.  0.
          6    2    1    2  501    0 -0.16410701520E+02  0.97816484180E+02 -0.22646149823E+03  0.29908458396E+03  0.16831340554E+03 0.  0.
         24    2    5    5    0    0 -0.74526286905E+02  0.50076647409E+02 -0.15033351874E+03  0.19196748663E+03  0.78673445405E+02 0.  0.
          5    1    5    5  501    0  0.58115585385E+02  0.47739836771E+02 -0.76127979488E+02  0.10711709733E+03  0.47000000000E+01 0. -1.
        -13    1    6    6    0    0 -0.15143253692E+02  0.78263697844E+01  0.71137022087E+01  0.18470921891E+02  0.00000000000E+00 0.  1.
         14    1    6    6    0    0 -0.59383033213E+02  0.42250277625E+02 -0.15744722095E+03  0.17349656474E+03  0.00000000000E+00 0. -1.
         -5    1    3    3    0  503  0.16879282435E+02 -0.34262411017E+02 -0.29096169757E+02  0.48244171448E+02  0.47000000000E+01 0.  1.
         13    1    4    4    0    0  0.32761645188E+02 -0.54168225336E+02 -0.54203806222E+03  0.54572225805E+03  0.00000000000E+00 0. -1.
        -14    1    4    4    0    0 -0.33230226103E+02 -0.93858478270E+01 -0.15192712935E+03  0.15580178015E+03  0.00000000000E+00 0.  1.
</event>
<event>
12    1  0.8421768E-002  0.1767507E+03  0.7818608E-02  0.1172466E+00
         21   -1    0    0  501  502  0.00000000000E+00  0.00000000000E+00  0.10020918018E+04  0.10020918018E+04  0.00000000000E+00 0.  1.
         21   -1    0    0  502  503 -0.00000000000E+00 -0.00000000000E+00 -0.94017862896E+02  0.94017862896E+02  0.00000000000E+00 0.  1.
         -6    2    1    2    0  503  0.39940279223E+02  0.51395424288E+01 -0.11563581103E+00  0.17088043730E+03  0.16606766597E+03 0.  0.
        -24    2    3    3    0    0  0.45460669489E+02  0.16460657068E+02  0.60474770660E+02  0.10881652104E+03  0.76460523559E+02 0.  0.
          6    2    1    2  501    0 -0.39940279223E+02 -0.51395424288E+01  0.90818957470E+03  0.92522922738E+03  0.17210223359E+03 0.  0.
         24    2    5    5    0    0  0.10101001715E+02 -0.52870703343E+02  0.67513120896E+03  0.68208177138E+03  0.80845853483E+02 0.  0.
          5    1    5    5  501    0 -0.50041280938E+02  0.47731160915E+02  0.23305836574E+03  0.24314745600E+03  0.47000000000E+01 0. -1.
        -13    1    6    6    0    0 -0.11595130587E+02 -0.58728938312E+02  0.28076736375E+03  0.28707812142E+03  0.00000000000E+00 0.  1.
         14    1    6    6    0    0  0.21696132303E+02  0.58582349684E+01  0.39436384521E+03  0.39500364996E+03  0.00000000000E+00 0. -1.
         -5    1    3    3    0  503 -0.55203902664E+01 -0.11321114640E+02 -0.60590406471E+02  0.62063916262E+02  0.47000000000E+01 0.  1.
         11    1    4    4    0    0  0.48171713646E+02 -0.21032513354E+02  0.30783412513E+02  0.60913866233E+02  0.00000000000E+00 0. -1.
        -12    1    4    4    0    0 -0.27110441562E+01  0.37493170422E+02  0.29691358147E+02  0.47902654805E+02  0.00000000000E+00 0.  1.
</event>
<event>
12    1  0.8421768E-002  0.1947731E+03  0.7818608E-02  0.1154473E+00
         21   -1    0    0  501  502  0.00000000000E+00  0.00000000000E+00  0.56590082016E+03  0.56590082016E+03  0.00000000000E+00 0. -1.
         21   -1    0    0  502  503 -0.00000000000E+00 -0.00000000000E+00 -0.78007918280E+02  0.78007918280E+02  0.00000000000E+00 0. -1.
         -6    2    1    2    0  503 -0.91576385169E+02  0.88736338743E+00  0.12048478803E+03  0.22806588322E+03  0.17061782207E+03 0.  0.
        -24    2    3    3    0    0 -0.29044114178E+02  0.70043802375E+02  0.35498854507E+02  0.10182168784E+03  0.57946463436E+02 0.  0.
          6    2    1    2  501    0  0.91576385169E+02 -0.88736338743E+00  0.36740811385E+03  0.41584285522E+03  0.17189978587E+03 0.  0.
         24    2    5    5    0    0  0.94060820534E+02  0.55599966865E+02  0.28795219908E+03  0.31820923760E+03  0.80011597063E+02 0.  0.
          5    1    5    5  501    0 -0.24844353654E+01 -0.56487330252E+02  0.79455914773E+02  0.97633617625E+02  0.47000000000E+01 0. -1.
        -11    1    6    6    0    0  0.11538304325E+02  0.17663528324E+01 -0.21166603742E+01  0.11863082237E+02  0.00000000000E+00 0.  1.
         12    1    6    6    0    0  0.82522516210E+02  0.53833614033E+02  0.29006885945E+03  0.30634615536E+03  0.00000000000E+00 0. -1.
         -5    1    3    3    0  503 -0.62532270991E+02 -0.69156438987E+02  0.84985933527E+02  0.12624419538E+03  0.47000000000E+01 0.  1.
         11    1    4    4    0    0  0.60406930001E+01 -0.73456149700E+01 -0.53609974807E+00  0.95255149020E+01  0.00000000000E+00 0. -1.
        -12    1    4    4    0    0 -0.35084807178E+02  0.77389417345E+02  0.36034954255E+02  0.92296172943E+02  0.00000000000E+00 0.  1.
</event>
<event>
12    1  0.8421768E-002  0.1852945E+03  0.7818608E-02  0.1162802E+00
         21   -1    0    0  503  502  0.00000000000E+00  0.00000000000E+00  0.11021234539E+04  0.11021234539E+04  0.00000000000E+00 0. -1.
         21   -1    0    0  501  503 -0.00000000000E+00 -0.00000000000E+00 -0.49938705284E+02  0.49938705284E+02  0.00000000000E+00 0.  1.
          6    2    1    2  501    0 -0.66751196592E+02 -0.24979703841E+02  0.17271066263E+03  0.25330423870E+03  0.17103904965E+03 0.  0.
         24    2    3    3    0    0 -0.19853647390E+02  0.10117024100E+02  0.14581716421E+02  0.84609205985E+02  0.80309213620E+02 0.  0.
         -6    2    1    2    0  502  0.66751196592E+02  0.24979703841E+02  0.87947408598E+03  0.89875792048E+03  0.17091349819E+03 0.  0.
        -24    2    5    5    0    0  0.49809351469E+02 -0.45970793165E+02  0.50460003916E+03  0.51682384224E+03  0.88833546976E+02 0.  0.
          5    1    3    3  501    0 -0.46897549202E+02 -0.35096727941E+02  0.15812894621E+03  0.16869503271E+03  0.47000000000E+01 0. -1.
        -13    1    4    4    0    0  0.18485787105E+02 -0.36076589690E+00 -0.23271539024E+02  0.29722365409E+02  0.00000000000E+00 0.  1.
         14    1    4    4    0    0 -0.38339434495E+02  0.10477789997E+02  0.37853255445E+02  0.54886840576E+02  0.00000000000E+00 0. -1.
         -5    1    5    5    0  502  0.16941845123E+02  0.70950497007E+02  0.37487404682E+03  0.38193407824E+03  0.47000000000E+01 0.  1.
         11    1    6    6    0    0  0.63945692534E+02 -0.43972997715E+00  0.27730314854E+03  0.28458088683E+03  0.00000000000E+00 0. -1.
        -12    1    6    6    0    0 -0.14136341065E+02 -0.45531063188E+02  0.22729689061E+03  0.23224295541E+03  0.00000000000E+00 0.  1.
</event>
<event>
12    1  0.8421768E-002  0.1740797E+03  0.7818608E-02  0.1173741E+00
         21   -1    0    0  503  502  0.00000000000E+00  0.00000000000E+00  0.33727460412E+03  0.33727460412E+03  0.00000000000E+00 0. -1.
         21   -1    0    0  501  503 -0.00000000000E+00 -0.00000000000E+00 -0.54701700170E+03  0.54701700170E+03  0.00000000000E+00 0. -1.
          6    2    1    2  501    0 -0.27702138344E+02 -0.60925068365E+00 -0.50916755765E+03  0.53810348296E+03  0.17186034143E+03 0.  0.
         24    2    3    3    0    0 -0.80985502094E+02  0.18547190972E+02 -0.31928195187E+03  0.33989975093E+03  0.81781575235E+02 0.  0.
         -6    2    1    2    0  502  0.27702138344E+02  0.60925068365E+00  0.29942516007E+03  0.34618812286E+03  0.17153136819E+03 0.  0.
        -24    2    5    5    0    0 -0.35610598951E+02  0.22096580451E+02  0.24443048919E+03  0.25948915015E+03  0.76367410420E+02 0.  0.
          5    1    3    3  501    0  0.53283363749E+02 -0.19156441655E+02 -0.18988560578E+03  0.19820373203E+03  0.47000000000E+01 0. -1.
        -13    1    4    4    0    0 -0.76466226924E+02  0.44875655739E+02 -0.26423772531E+03  0.27871577605E+03  0.00000000000E+00 0.  1.
         14    1    4    4    0    0 -0.45192751697E+01 -0.26328464767E+02 -0.55044226556E+02  0.61183974880E+02  0.00000000000E+00 0. -1.
         -5    1    5    5    0  502  0.63312737295E+02 -0.21487329768E+02  0.54994670874E+02  0.86698972710E+02  0.47000000000E+01 0.  1.
         11    1    6    6    0    0 -0.28747817965E+01 -0.20260030788E+02  0.19465120574E+02  0.28242240295E+02  0.00000000000E+00 0. -1.
        -12    1    6    6    0    0 -0.32735817154E+02  0.42356611240E+02  0.22496536862E+03  0.23124690986E+03  0.00000000000E+00 0.  1.
</event>
<event>
12    1  0.8421768E-002  0.1800430E+03  0.7818608E-02  0.1168166E+00
         21   -1    0    0  501  502  0.00000000000E+00  0.00000000000E+00  0.60791047249E+03  0.60791047249E+03  0.00000000000E+00 0. -1.
         21   -1    0    0  502  503 -0.00000000000E+00 -0.00000000000E+00 -0.54821120318E+02  0.54821120318E+02  0.00000000000E+00 0. -1.
         -6    2    1    2    0  503 -0.29927360820E+02  0.45685235327E+02  0.21218036027E+03  0.27720022742E+03  0.16981364239E+03 0.  0.
        -24    2    3    3    0    0 -0.15557104713E+02  0.74870858417E+02  0.21736191908E+03  0.24392496022E+03  0.80034451358E+02 0.  0.
          6    2    1    2  501    0  0.29927360820E+02 -0.45685235327E+02  0.34090899190E+03  0.38553136539E+03  0.17155962605E+03 0.  0.
         24    2    5    5    0    0  0.71942295614E+02 -0.52713446831E+02  0.30894291642E+03  0.33206576444E+03  0.82870651849E+02 0.  0.
          5    1    5    5  501    0 -0.42014934794E+02  0.70282115043E+01  0.31966075479E+02  0.53465600943E+02  0.47000000000E+01 0. -1.
        -11    1    6    6    0    0 -0.17383460885E+02 -0.12207457669E+02  0.33351543810E+02  0.39541525130E+02  0.00000000000E+00 0.  1.
         12    1    6    6    0    0  0.89325756499E+02 -0.40505989163E+02  0.27559137261E+03  0.29252423932E+03  0.00000000000E+00 0. -1.
         -5    1    3    3    0  503 -0.14370256107E+02 -0.29185623090E+02 -0.51815588018E+01  0.33275267202E+02  0.47000000000E+01 0.  1.
         13    1    4    4    0    0 -0.41545857886E+02  0.15911985970E+02  0.11079720921E+03  0.11939544034E+03  0.00000000000E+00 0. -1.
        -14    1    4    4    0    0  0.25988753173E+02  0.58958872447E+02  0.10656470986E+03  0.12452951987E+03  0.00000000000E+00 0.  1.
</event>
<event>
12    1  0.8421768E-002  0.2400458E+03  0.7818608E-02  0.1119829E+00
         21   -1    0    0  503  502  0.00000000000E+00  0.00000000000E+00  0.96155037331E+02  0.96155037331E+02  0.00000000000E+00 0.  1.
         21   -1    0    0  501  503 -0.00000000000E+00 -0.00000000000E+00 -0.98529272982E+03  0.98529272982E+03  0.00000000000E+00 0.  1.
          6    2    1    2  501    0  0.58339272718E+01  0.16764565340E+03 -0.78368785525E+03  0.81962713930E+03  0.17170583334E+03 0.  0.
         24    2    3    3    0    0 -0.52848315257E+02  0.15181082029E+03 -0.58722235040E+03  0.61392071712E+03  0.78924574924E+02 0.  0.
         -6    2    1    2    0  502 -0.58339272718E+01 -0.16764565340E+03 -0.10544983723E+03  0.26182062784E+03  0.17114693447E+03 0.  0.
        -24    2    5    5    0    0 -0.56535535135E+02 -0.47251306643E+02 -0.52146413682E+02  0.12065123763E+03  0.80053232095E+02 0.  0.
          5    1    3    3  501    0  0.58682242529E+02  0.15834833107E+02 -0.19646550486E+03  0.20570642218E+03  0.47000000000E+01 0. -1.
        -13    1    4    4    0    0 -0.91522213996E+01  0.47484652124E+02 -0.32165476371E+03  0.32526964562E+03  0.00000000000E+00 0.  1.
         14    1    4    4    0    0 -0.43696093858E+02  0.10432616817E+03 -0.26556758669E+03  0.28865107151E+03  0.00000000000E+00 0. -1.
         -5    1    5    5    0  502  0.50701607863E+02 -0.12039434676E+03 -0.53303423553E+02  0.14116939021E+03  0.47000000000E+01 0.  1.
         11    1    6    6    0    0 -0.11515291369E+02 -0.16120750734E+02 -0.61953950433E+02  0.65044388796E+02  0.00000000000E+00 0. -1.
        -12    1    6    6    0    0 -0.45020243767E+02 -0.31130555909E+02  0.98075367509E+01  0.55606848833E+02  0.00000000000E+00 0.  1.
</event>
<event>
12    1  0.8421768E-002  0.2011767E+03  0.7818608E-02  0.1148953E+00
         21   -1    0    0  501  502  0.00000000000E+00  0.00000000000E+00  0.14122694930E+03  0.14122694930E+03  0.00000000000E+00 0.  1.
         21   -1    0    0  502  503 -0.00000000000E+00 -0.00000000000E+00 -0.50473802482E+03  0.50473802482E+03  0.00000000000E+00 0.  1.
         -6    2    1    2    0  503  0.24653385345E+02  0.10153591683E+03 -0.39501178993E+03  0.44329040245E+03  0.17191490601E+03 0.  0.
        -24    2    3    3    0    0 -0.24101623093E+02  0.65553899249E+02 -0.11552391309E+03  0.15727061339E+03  0.80685001072E+02 0.  0.
          6    2    1    2  501    0 -0.24653385345E+02 -0.10153591683E+03  0.31500714415E+02  0.20267457167E+03  0.17078452850E+03 0.  0.
         24    2    5    5    0    0 -0.46383794131E+02 -0.10953345642E+02  0.53950420401E+02  0.10673973874E+03  0.78811749291E+02 0.  0.
          5    1    5    5  501    0  0.21730408787E+02 -0.90582571191E+02 -0.22449705985E+02  0.95934832925E+02  0.47000000000E+01 0. -1.
        -13    1    6    6    0    0 -0.26384676576E+02 -0.43181302981E+02  0.45116028404E+02  0.67795516844E+02  0.00000000000E+00 0.  1.
         14    1    6    6    0    0 -0.19999117555E+02  0.32227957339E+02  0.88343919968E+01  0.38944221897E+02  0.00000000000E+00 0. -1.
         -5    1    3    3    0  503  0.48755008437E+02  0.35982017584E+02 -0.27948787684E+03  0.28601978906E+03  0.47000000000E+01 0.  1.
         11    1    4    4    0    0 -0.39854258526E+02  0.14956110850E+01 -0.34059184365E+02  0.52446418512E+02  0.00000000000E+00 0. -1.
        -12    1    4    4    0    0  0.15752635433E+02  0.64058288164E+02 -0.81464728725E+02  0.10482419488E+03  0.00000000000E+00 0.  1.
</event>
<event>
12    1  0.8421768E-002  0.2607697E+03  0.7818608E-02  0.1108920E+00
         21   -1    0    0  503  502  0.00000000000E+00  0.00000000000E+00  0.96323195482E+02  0.96323195482E+02  0.00000000000E+00 0.  1.
         21   -1    0    0  501  503 -0.00000000000E+00 -0.00000000000E+00 -0.97729491212E+03  0.97729491212E+03  0.00000000000E+00 0. -1.
          6    2    1    2  501    0 -0.23213853966E+02 -0.17481524115E+03 -0.73416082754E+03  0.77436190784E+03  0.17188656746E+03 0.  0.
         24    2    3    3    0    0 -0.51866814487E+02 -0.31298584773E+02 -0.24436214727E+03  0.26314486979E+03  0.76567588606E+02 0.  0.
         -6    2    1    2    0  502  0.23213853966E+02  0.17481524115E+03 -0.14681088910E+03  0.29925619976E+03  0.19209785105E+03 0.  0.
        -24    2    5    5    0    0 -0.50434074836E+02  0.12127139765E+03 -0.13965061205E+03  0.20779954247E+03  0.80174862723E+02 0.  0.
          5    1    3    3  501    0  0.28652960521E+02 -0.14351665638E+03 -0.48979868026E+03  0.51121703805E+03  0.47000000000E+01 0. -1.
        -13    1    4    4    0    0 -0.61971888208E+01 -0.38900152892E+02 -0.51690583913E+02  0.64988795261E+02  0.00000000000E+00 0.  1.
         14    1    4    4    0    0 -0.45669625666E+02  0.76015681183E+01 -0.19267156336E+03  0.19815607453E+03  0.00000000000E+00 0. -1.
         -5    1    5    5    0  502  0.73647928803E+02  0.53543843500E+02 -0.71602770447E+01  0.91456657281E+02  0.47000000000E+01 0.  1.
         11    1    6    6    0    0  0.65343595951E+01  0.68679148965E+02 -0.97824067903E+02  0.11970410026E+03  0.00000000000E+00 0. -1.
        -12    1    6    6    0    0 -0.56968434431E+02  0.52592248686E+02 -0.41826544151E+02  0.88095442215E+02  0.00000000000E+00 0.  1.
</event>
<event>
12    1  0.8421768E-002  0.2304569E+03  0.7818608E-02  0.1126524E+00
         21   -1    0    0  501  502  0.00000000000E+00  0.00000000000E+00  0.27449771086E+03  0.27449771086E+03  0.00000000000E+00 0.  1.
         21   -1    0    0  502  503 -0.00000000000E+00 -0.00000000000E+00 -0.19505565473E+03  0.19505565473E+03  0.00000000000E+00 0. -1.
         -6    2    1    2    0  503 -0.41914064461E+02 -0.14830009915E+03  0.12758441039E+02  0.22964283103E+03  0.16977439093E+03 0.  0.
        -24    2    3    3    0    0  0.45734629351E+01 -0.16259500151E+03  0.84065619391E+01  0.18058711486E+03  0.77993491350E+02 0.  0.
          6    2    1    2  501    0  0.41914064461E+02  0.14830009915E+03  0.66683615093E+02  0.23991053457E+03  0.17134950209E+03 0.  0.
         24    2    5    5    0    0  0.68940910530E+02  0.15319275862E+03  0.87042623044E+02  0.20540013425E+03  0.79949524610E+02 0.  0.
          5    1    5    5  501    0 -0.27026846069E+02 -0.48926594707E+01 -0.20359007951E+02  0.34510400315E+02  0.47000000000E+01 0. -1.
        -13    1    6    6    0    0  0.76733014937E+02  0.12754027392E+03  0.96019077495E+02  0.17712746906E+03  0.00000000000E+00 0.  1.
         14    1    6    6    0    0 -0.77921044073E+01  0.25652484706E+02 -0.89764544500E+01  0.28272665194E+02  0.00000000000E+00 0. -1.
         -5    1    3    3    0  503 -0.46487527396E+02  0.14294902354E+02  0.43518790995E+01  0.49055716164E+02  0.47000000000E+01 0.  1.
         11    1    4    4    0    0 -0.54183633619E+01 -0.28201906808E+02 -0.28912879996E+02  0.40751206594E+02  0.00000000000E+00 0. -1.
        -12    1    4    4    0    0  0.99918262971E+01 -0.13439309470E+03  0.37319441936E+02  0.13983590827E+03  0.00000000000E+00 0.  1.
</event>
<event>
12    1  0.8421768E-002  0.2082243E+03  0.7818608E-02  0.1142992E+00
         21   -1    0    0  503  502  0.00000000000E+00  0.00000000000E+00  0.91077351119E+03  0.91077351119E+03  0.00000000000E+00 0.  1.
         21   -1    0    0  501  503 -0.00000000000E+00 -0.00000000000E+00 -0.12837433232E+03  0.12837433232E+03  0.00000000000E+00 0.  1.
          6    2    1    2  501    0  0.10936663891E+03 -0.41274321429E+02 -0.20982381466E+02  0.20922056045E+03  0.17224503264E+03 0.  0.
         24    2    3    3    0    0  0.26054069101E+02 -0.69486415075E+02 -0.13437354053E+02  0.12081284612E+03  0.94382227706E+02 0.  0.
         -6    2    1    2    0  502 -0.10936663891E+03  0.41274321429E+02  0.80338156033E+03  0.82992728305E+03  0.17231579256E+03 0.  0.
        -24    2    5    5    0    0 -0.17002628856E+02 -0.36908796578E+02  0.40279011421E+03  0.41143079920E+03  0.73376275271E+02 0.  0.
          5    1    3    3  501    0  0.83312569804E+02  0.28212093646E+02 -0.75450274138E+01  0.88407714335E+02  0.47000000000E+01 0. -1.
        -13    1    4    4    0    0  0.48922592162E+02 -0.71757417735E+01  0.99522829349E+01  0.50437676686E+02  0.00000000000E+00 0.  1.
         14    1    4    4    0    0 -0.22868523061E+02 -0.62310673301E+02 -0.23389636988E+02  0.70375169433E+02  0.00000000000E+00 0. -1.
         -5    1    5    5    0  502 -0.92364010049E+02  0.78183118006E+02  0.40059144612E+03  0.41849648385E+03  0.47000000000E+01 0.  1.
         13    1    6    6    0    0  0.49313070248E+01 -0.28058144624E+02  0.36948450352E+03  0.37058113229E+03  0.00000000000E+00 0. -1.
        -14    1    6    6    0    0 -0.21933935881E+02 -0.88506519533E+01  0.33305610694E+02  0.40849666913E+02  0.00000000000E+00 0.  1.
</event>
<event>
12    1  0.8421768E-002  0.1995493E+03  0.7818608E-02  0.1150654E+00
         21   -1    0    0  503  502  0.00000000000E+00  0.00000000000E+00  0.13315131481E+02  0.13315131481E+02  0.00000000000E+00 0.  1.
         21   -1    0    0  501  503 -0.00000000000E+00 -0.00000000000E+00 -0.29677096625E+04  0.29677096625E+04  0.00000000000E+00 0.  1.
          6    2    1    2  501    0  0.97774493179E+02  0.32251681745E+01 -0.13633960211E+04  0.13775609926E+04  0.17104188072E+03 0.  0.
         24    2    3    3    0    0  0.33961196097E+02 -0.60154575243E+02 -0.69871984867E+03  0.70681094016E+03  0.81242491545E+02 0.  0.
         -6    2    1    2    0  502 -0.97774493179E+02 -0.32251681745E+01 -0.15909985100E+04  0.16034638014E+04  0.17392426602E+03 0.  0.
        -24    2    5    5    0    0 -0.29074599292E+02  0.56117106419E+02 -0.10706759371E+04  0.10752603833E+04  0.76442577963E+02 0.  0.
          5    1    3    3  501    0  0.63813297082E+02  0.63379743417E+02 -0.66467617239E+03  0.67075005248E+03  0.47000000000E+01 0. -1.
        -11    1    4    4    0    0  0.60511750144E+02 -0.37451626253E+02 -0.43393426800E+03  0.43973087810E+03  0.00000000000E+00 0.  1.
         12    1    4    4    0    0 -0.26550554047E+02 -0.22702948990E+02 -0.26478558068E+03  0.26708006205E+03  0.00000000000E+00 0. -1.
         -5    1    5    5    0  502 -0.68699893888E+02 -0.59342274593E+02 -0.52032257289E+03  0.52820341805E+03  0.47000000000E+01 0.  1.
         13    1    6    6    0    0  0.18640298458E+02 -0.24754021284E+01 -0.10811465287E+03  0.10973771689E+03  0.00000000000E+00 0. -1.
        -14    1    6    6    0    0 -0.47714897749E+02  0.58592508547E+02 -0.96256128421E+03  0.96552266643E+03  0.00000000000E+00 0.  1.
</event>
<event>
12    1  0.8421768E-002  0.1883803E+03  0.7818608E-02  0.1160261E+00
         21   -1    0    0  501  502  0.00000000000E+00  0.00000000000E+00  0.30906604618E+03  0.30906604618E+03  0.00000000000E+00 0.  1.
         21   -1    0    0  502  503 -0.00000000000E+00 -0.00000000000E+00 -0.84268349616E+03  0.84268349616E+03  0.00000000000E+00 0.  1.
         -6    2    1    2    0  503  0.18683705935E+02  0.72582334753E+02 -0.80247609406E+03  0.82429060605E+03  0.17282894865E+03 0.  0.
        -24    2    3    3    0    0 -0.71261510842E+01  0.58310039237E+01 -0.66128027299E+03  0.66592318903E+03  0.77957113837E+02 0.  0.
          6    2    1    2  501    0 -0.18683705935E+02 -0.72582334753E+02  0.26885864408E+03  0.32745893630E+03  0.17125159351E+03 0.  0.
         24    2    5    5    0    0 -0.78077257343E+02 -0.37494554704E+02  0.17318552942E+03  0.20941580382E+03  0.79748677365E+02 0.  0.
          5    1    5    5  501    0  0.59393551408E+02 -0.35087780048E+02  0.95673114657E+02  0.11804313248E+03  0.47000000000E+01 0. -1.
        -13    1    6    6    0    0  0.39438697506E+01 -0.35264563305E+02  0.58006097414E+02  0.67998903454E+02  0.00000000000E+00 0.  1.
         14    1    6    6    0    0 -0.82021127093E+02 -0.22299913993E+01  0.11517943201E+03  0.14141690037E+03  0.00000000000E+00 0. -1.
         -5    1    3    3    0  503  0.25809857019E+02  0.66751330829E+02 -0.14119582107E+03  0.15836741702E+03  0.47000000000E+01 0.  1.
         13    1    4    4    0    0 -0.13970589694E+02 -0.18288614873E+02 -0.62242675534E+02  0.66361144263E+02  0.00000000000E+00 0. -1.
        -14    1    4    4    0    0  0.68444386102E+01  0.24119618797E+02 -0.59903759746E+03  0.59956204476E+03  0.00000000000E+00 0.  1.
</event>
<event>
12    1  0.8421768E-002  0.2159433E+03  0.7818608E-02  0.1137034E+00
         21   -1    0    0  501  502  0.00000000000E+00  0.00000000000E+00  0.12936283314E+03  0.12936283314E+03  0.00000000000E+00 0. -1.
         21   -1    0    0  502  503 -0.00000000000E+00 -0.00000000000E+00 -0.38648306373E+03  0.38648306373E+03  0.00000000000E+00 0.  1.
         -6    2    1    2    0  503  0.11977275271E+03  0.49004760776E+02 -0.60773142040E+02  0.22433205347E+03  0.17287138731E+03 0.  0.
        -24    2    3    3    0    0  0.36471760527E+02  0.85266969954E+02 -0.43258976769E+02  0.13168844010E+03  0.82884622838E+02 0.  0.
          6    2    1    2  501    0 -0.11977275271E+03 -0.49004760776E+02 -0.19634708854E+03  0.29151384340E+03  0.17228221859E+03 0.  0.
         24    2    5    5    0    0 -0.48530878417E+02 -0.20635985721E+02 -0.19324451231E+03  0.21462491032E+03  0.77066987261E+02 0.  0.
          5    1    5    5  501    0 -0.71241874295E+02 -0.28368775055E+02 -0.31025762394E+01  0.76888933083E+02  0.47000000000E+01 0. -1.
        -13    1    6    6    0    0 -0.10870031526E+02  0.67755694408E+01  0.28095244406E+01  0.13113327351E+02  0.00000000000E+00 0.  1.
         14    1    6    6    0    0 -0.37660846891E+02 -0.27411555162E+02 -0.19605403675E+03  0.20151158297E+03  0.00000000000E+00 0. -1.
         -5    1    3    3    0  503  0.83300992185E+02 -0.36262209178E+02 -0.17514165272E+02  0.92643613372E+02  0.47000000000E+01 0.  1.
         13    1    4    4    0    0  0.62952371155E+02  0.52189611530E+02 -0.24618654669E+02  0.85398095666E+02  0.00000000000E+00 0. -1.
        -14    1    4    4    0    0 -0.26480610628E+02  0.33077358423E+02 -0.18640322100E+02  0.46290344430E+02  0.00000000000E+00 0.  1.
</event>
<event>
12    1  0.8421768E-002  0.1765745E+03  0.7818608E-02  0.1172271E+00
         21   -1    0    0  501  502  0.00000000000E+00  0.00000000000E+00  0.31009347343E+03  0.31009347343E+03  0.00000000000E+00 0. -1.
         21   -1    0    0  502  503 -0.00000000000E+00 -0.00000000000E+00 -0.16998261726E+03  0.16998261726E+03  0.00000000000E+00 0. -1.
         -6    2    1    2    0  503  0.18015054908E+02  0.24986534447E+02 -0.85579733490E+02  0.19622044060E+03  0.17386690720E+03 0.  0.
        -24    2    3    3    0    0 -0.30337954486E+02 -0.15592433625E+02 -0.98980202249E+02  0.13151859573E+03  0.79602419031E+02 0.  0.
          6    2    1    2  501    0 -0.18015054908E+02 -0.24986534447E+02  0.22569058966E+03  0.28385565009E+03  0.16937803494E+03 0.  0.
         24    2    5    5    0    0 -0.19963153575E+02 -0.76574654121E+02  0.10744958861E+03  0.15475044683E+03  0.78358672440E+02 0.  0.
          5    1    5    5  501    0  0.19480986664E+01  0.51588119674E+02  0.11824100105E+03  0.12910520326E+03  0.47000000000E+01 0. -1.
        -13    1    6    6    0    0 -0.45192701619E+02 -0.63526114643E+02  0.56028664466E+02  0.96006035035E+02  0.00000000000E+00 0.  1.
         14    1    6    6    0    0  0.25229548044E+02 -0.13048539478E+02  0.51420924148E+02  0.58744411796E+02  0.00000000000E+00 0. -1.
         -5    1    3    3    0  503  0.48353009394E+02  0.40578968072E+02  0.13400468759E+02  0.64701844875E+02  0.47000000000E+01 0.  1.
         13    1    4    4    0    0 -0.25324311107E+02  0.10593466251E+02 -0.10111193036E+03  0.10477196534E+03  0.00000000000E+00 0. -1.
        -14    1    4    4    0    0 -0.50136433785E+01 -0.26185899876E+02  0.21317281101E+01  0.26746630385E+02  0.00000000000E+00 0.  1.
</event>
<event>
12    1  0.8421768E-002  0.2506230E+03  0.7818608E-02  0.1112968E+00
         21   -1    0    0  501  502  0.00000000000E+00  0.00000000000E+00  0.94262371212E+03  0.94262371212E+03  0.00000000000E+00 0. -1.
         21   -1    0    0  502  503 -0.00000000000E+00 -0.00000000000E+00 -0.86947693185E+02  0.86947693185E+02  0.00000000000E+00 0. -1.
         -6    2    1    2    0  503  0.49928107595E+02 -0.17522342918E+03  0.17820795163E+03  0.30723153086E+03  0.17157235636E+03 0.  0.
        -24    2    3    3    0    0  0.27522014544E+02 -0.12193673184E+03  0.33223470681E+02  0.15107745683E+03  0.78067734056E+02 0.  0.
          6    2    1    2  501    0 -0.49928107595E+02  0.17522342918E+03  0.67746806730E+03  0.72233987445E+03  0.17209255050E+03 0.  0.
         24    2    5    5    0    0  0.33848567735E+00  0.10099152605E+03  0.54582454034E+03  0.56299994212E+03  0.94048408207E+02 0.  0.
          5    1    5    5  501    0 -0.50266593273E+02  0.74231903129E+02  0.13164352697E+03  0.15933993232E+03  0.47000000000E+01 0. -1.
        -13    1    6    6    0    0 -0.25112129788E+02  0.47672903230E+00  0.44813558338E+02  0.51372184535E+02  0.00000000000E+00 0.  1.
         14    1    6    6    0    0  0.25450615465E+02  0.10051479702E+03  0.50101098200E+03  0.51162775759E+03  0.00000000000E+00 0. -1.
         -5    1    3    3    0  503  0.22406093051E+02 -0.53286697337E+02  0.14498448095E+03  0.15615407403E+03  0.47000000000E+01 0.  1.
         13    1    4    4    0    0 -0.20417668335E+02 -0.14423152801E+02 -0.81623008238E+01  0.26296989784E+02  0.00000000000E+00 0. -1.
        -14    1    4    4    0    0  0.47939682879E+02 -0.10751357904E+03  0.41385771505E+02  0.12478046705E+03  0.00000000000E+00 0.  1.
</event>
<event>
12    1  0.8421768E-002  0.2001848E+03  0.7818608E-02  0.1150774E+00
         21   -1    0    0  503  502  0.00000000000E+00  0.00000000000E+00  0.35176884033E+02  0.35176884033E+02  0.00000000000E+00 0.  1.
         21   -1    0    0  501  503 -0.00000000000E+00 -0.00000000000E+00 -0.17632936743E+04  0.17632936743E+04  0.00000000000E+00 0. -1.
          6    2    1    2  501    0  0.16948315497E+02  0.94904736500E+02 -0.14199691902E+04  0.14340106170E+04  0.17544171114E+03 0.  0.
         24    2    3    3    0    0  0.66553541021E+02  0.16159013613E+02 -0.87314681498E+03  0.87930495868E+03  0.78111217605E+02 0.  0.
         -6    2    1    2    0  502 -0.16948315497E+02 -0.94904736500E+02 -0.30814760004E+03  0.36445994135E+03  0.16906197394E+03 0.  0.
        -24    2    5    5    0    0  0.28029401477E+02 -0.11666206519E+03 -0.22919855210E+03  0.27091092454E+03  0.80405646255E+02 0.  0.
          5    1    3    3  501    0 -0.49605225524E+02  0.78745722887E+02 -0.54682237524E+03  0.55470565829E+03  0.47000000000E+01 0. -1.
        -11    1    4    4    0    0  0.50481849867E+02  0.46865685815E+02 -0.61362801142E+03  0.61748210183E+03  0.00000000000E+00 0.  1.
         12    1    4    4    0    0  0.16071691155E+02 -0.30706672201E+02 -0.25951880355E+03  0.26182285686E+03  0.00000000000E+00 0. -1.
         -5    1    5    5    0  502 -0.44977716974E+02  0.21757328690E+02 -0.78949047935E+02  0.93549016808E+02  0.47000000000E+01 0.  1.
         11    1    6    6    0    0  0.38368696041E+02 -0.92278804444E+02 -0.22201203085E+03  0.24346843004E+03  0.00000000000E+00 0. -1.
        -12    1    6    6    0    0 -0.10339294564E+02 -0.24383260746E+02 -0.71865212517E+01  0.27442494500E+02  0.00000000000E+00 0.  1.
</event>
<event>
12    1  0.8421768E-002  0.2561577E+03  0.7818608E-02  0.1109698E+00
         21   -1    0    0  503  502  0.00000000000E+00  0.00000000000E+00  0.13044867495E+04  0.13044867495E+04  0.00000000000E+00 0. -1.
         21   -1    0    0  501  503 -0.00000000000E+00 -0.00000000000E+00 -0.56614319069E+02  0.56614319069E+02  0.00000000000E+00 0. -1.
          6    2    1    2  501    0  0.12859021725E+03 -0.13734181353E+03  0.39315113779E+03  0.46923828875E+03  0.17383479735E+03 0.  0.
         24    2    3    3    0    0  0.11923368760E+03 -0.29564610970E+02  0.21491287039E+03  0.26068508210E+03  0.81721672094E+02 0.  0.
         -6    2    1    2    0  502 -0.12859021725E+03  0.13734181353E+03  0.85472129267E+03  0.89186277984E+03  0.17167560169E+03 0.  0.
        -24    2    5    5    0    0 -0.37269158975E+02  0.90700702982E+02  0.28292206519E+03  0.31092270082E+03  0.83740212434E+02 0.  0.
          5    1    3    3  501    0  0.93565296440E+01 -0.10777720256E+03  0.17823826740E+03  0.20855320666E+03  0.47000000000E+01 0. -1.
        -11    1    4    4    0    0  0.60100077638E+01 -0.75872391918E+01  0.90572057227E+02  0.91087781520E+02  0.00000000000E+00 0.  1.
         12    1    4    4    0    0  0.11322367984E+03 -0.21977371778E+02  0.12434081316E+03  0.16959730058E+03  0.00000000000E+00 0. -1.
         -5    1    5    5    0  502 -0.91321058271E+02  0.46641110550E+02  0.57179922748E+03  0.58094007903E+03  0.47000000000E+01 0.  1.
         11    1    6    6    0    0 -0.47678251196E+02  0.74776906307E+02  0.27722416380E+03  0.29106363282E+03  0.00000000000E+00 0. -1.
        -12    1    6    6    0    0  0.10409092222E+02  0.15923796675E+02  0.56979013877E+01  0.19859067996E+02  0.00000000000E+00 0.  1.
</event>
<event>
12    1  0.8421768E-002  0.3174331E+03  0.7818608E-02  0.1076877E+00
         21   -1    0    0  503  502  0.00000000000E+00  0.00000000000E+00  0.86318532388E+02  0.86318532388E+02  0.00000000000E+00 0. -1.
         21   -1    0    0  501  503 -0.00000000000E+00 -0.00000000000E+00 -0.15764403529E+04  0.15764403529E+04  0.00000000000E+00 0. -1.
          6    2    1    2  501    0 -0.11431908649E+03 -0.24096577675E+03 -0.11689390630E+04  0.12111815102E+04  0.17148982084E+03 0.  0.
         24    2    3    3    0    0 -0.11851205183E+03 -0.96525311852E+02 -0.62783571060E+03  0.65109619813E+03  0.79914563565E+02 0.  0.
         -6    2    1    2    0  502  0.11431908649E+03  0.24096577675E+03 -0.32118275752E+03  0.45157737505E+03  0.17213483909E+03 0.  0.
        -24    2    5    5    0    0  0.12883397572E+02  0.35163628169E+02 -0.99843158931E+02  0.13274037712E+03  0.79049912421E+02 0.  0.
          5    1    3    3  501    0  0.41929653376E+01 -0.14444046490E+03 -0.54110335238E+03  0.56008531209E+03  0.47000000000E+01 0. -1.
        -11    1    4    4    0    0 -0.55980031959E+02 -0.70121235150E+02 -0.21906615994E+03  0.23672924202E+03  0.00000000000E+00 0.  1.
         12    1    4    4    0    0 -0.62532019866E+02 -0.26404076703E+02 -0.40876955066E+03  0.41436695612E+03  0.00000000000E+00 0. -1.
         -5    1    5    5    0  502  0.10143568892E+03  0.20580214858E+03 -0.22133959859E+03  0.31883699793E+03  0.47000000000E+01 0.  1.
         13    1    6    6    0    0 -0.33549214333E+01  0.33976416346E+02 -0.27066353430E+01  0.34248769911E+02  0.00000000000E+00 0. -1.
        -14    1    6    6    0    0  0.16238319006E+02  0.11872118236E+01 -0.97136523587E+02  0.98491607209E+02  0.00000000000E+00 0.  1.
</event>
<event>
12    1  0.8421768E-002  0.1854083E+03  0.7818608E-02  0.1163514E+00
         21   -1    0    0  503  502  0.00000000000E+00  0.00000000000E+00  0.13414413843E+03  0.13414413843E+03  0.00000000000E+00 0.  1.
         21   -1    0    0  501  503 -0.00000000000E+00 -0.00000000000E+00 -0.25210342751E+03  0.25210342751E+03  0.00000000000E+00 0.  1.
          6    2    1    2  501    0  0.38694897396E+02  0.43217868931E+02 -0.69141843805E+02  0.19452017070E+03  0.17231489479E+03 0.  0.
         24    2    3    3    0    0 -0.38326628799E+02  0.66730949751E+01 -0.63886383113E+02  0.10897751545E+03  0.79253821703E+02 0.  0.
         -6    2    1    2    0  502 -0.38694897396E+02 -0.43217868931E+02 -0.48817445285E+02  0.19172739524E+03  0.17609989165E+03 0.  0.
        -24    2    5    5    0    0 -0.21440138870E+02 -0.95838104083E+02 -0.50868158668E+02  0.13611344677E+03  0.79339013576E+02 0.  0.
          5    1    3    3  501    0  0.77021526195E+02  0.36544773956E+02 -0.52554606921E+01  0.85542655254E+02  0.47000000000E+01 0. -1.
        -13    1    4    4    0    0 -0.46478396616E+02  0.35030356420E+02 -0.48156292618E+02  0.75540689311E+02  0.00000000000E+00 0.  1.
         14    1    4    4    0    0  0.81517678164E+01 -0.28357261445E+02 -0.15730090495E+02  0.33436826138E+02  0.00000000000E+00 0. -1.
         -5    1    5    5    0  502 -0.17254758525E+02  0.52620235151E+02  0.20507133835E+01  0.55613948471E+02  0.47000000000E+01 0.  1.
         11    1    6    6    0    0  0.18874841136E+02 -0.37157984532E+02 -0.49763276926E+02  0.64910393411E+02  0.00000000000E+00 0. -1.
        -12    1    6    6    0    0 -0.40314980006E+02 -0.58680119551E+02 -0.11048817425E+01  0.71203053355E+02  0.00000000000E+00 0.  1.
</event>
<event>
12    1  0.8421768E-002  0.2171938E+03  0.7818608E-02  0.1136074E+00
         21   -1    0    0  501  502  0.00000000000E+00  0.00000000000E+00  0.36188084394E+03  0.36188084394E+03  0.00000000000E+00 0. -1.
         21   -1    0    0  502  503 -0.00000000000E+00 -0.00000000000E+00 -0.24778602937E+03  0.24778602937E+03  0.00000000000E+00 0.  1.
         -6    2    1    2    0  503  0.12470946038E+03  0.43784144813E+02 -0.15300617195E+03  0.26567659205E+03  0.17234750380E+03 0.  0.
        -24    2    3    3    0    0  0.19341988329E+02 -0.11603562142E+02 -0.16468257232E+02  0.84472854777E+02  0.79722672628E+02 0.  0.
          6    2    1    2  501    0 -0.12470946038E+03 -0.43784144813E+02  0.26710098652E+03  0.34399028125E+03  0.17180476056E+03 0.  0.
         24    2    5    5    0    0 -0.73229581160E+02  0.23991108271E+02  0.75545873356E+02  0.13432599179E+03  0.79988425768E+02 0.  0.
          5    1    5    5  501    0 -0.51479879220E+02 -0.67775253084E+02  0.19155511316E+03  0.20966428946E+03  0.47000000000E+01 0. -1.
        -13    1    6    6    0    0  0.86664727904E+01  0.17110377573E+01  0.42237468346E+02  0.43151351463E+02  0.00000000000E+00 0.  1.
         14    1    6    6    0    0 -0.81896053950E+02  0.22280070514E+02  0.33308405010E+02  0.91174640328E+02  0.00000000000E+00 0. -1.
         -5    1    3    3    0  503  0.10536747205E+03  0.55387706955E+02 -0.13653791472E+03  0.18120373728E+03  0.47000000000E+01 0.  1.
         11    1    4    4    0    0  0.26351637744E+02  0.24560204249E+02  0.11944949805E+02  0.37951209077E+02  0.00000000000E+00 0. -1.
        -12    1    4    4    0    0 -0.70096494148E+01 -0.36163766391E+02 -0.28413207038E+02  0.46521645700E+02  0.00000000000E+00 0.  1.
</event>
<event>
12    1  0.8421768E-002  0.1863097E+03  0.7818608E-02  0.1161986E+00
         21   -1    0    0  503  502  0.00000000000E+00  0.00000000000E+00  0.10689551744E+03  0.10689551744E+03  0.00000000000E+00 0. -1.
         21   -1    0    0  501  503 -0.00000000000E+00 -0.00000000000E+00 -0.42557701458E+03  0.42557701458E+03  0.00000000000E+00 0.  1.
          6    2    1    2  501    0  0.69754677314E+02 -0.85322274462E+01 -0.28990405353E+03  0.34460942827E+03  0.17254791766E+03 0.  0.
         24    2    3    3    0    0  0.78493113159E+02  0.51211899817E+02 -0.22242330037E+03  0.25393714447E+03  0.78918447122E+02 0.  0.
         -6    2    1    2    0  502 -0.69754677314E+02  0.85322274462E+01 -0.28777443609E+02  0.18786310375E+03  0.17183099423E+03 0.  0.
        -24    2    5    5    0    0 -0.18752317172E+02 -0.43020824342E+02  0.27703780459E+02  0.95824108963E+02  0.78818269966E+02 0.  0.
          5    1    3    3  501    0 -0.87384358443E+01 -0.59744127263E+02 -0.67480753163E+02  0.90672283808E+02  0.47000000000E+01 0. -1.
        -13    1    4    4    0    0  0.58832732367E+02  0.44546125000E+01 -0.17431215875E+03  0.18402679875E+03  0.00000000000E+00 0.  1.
         14    1    4    4    0    0  0.19660380792E+02  0.46757287317E+02 -0.48111141618E+02  0.69910345714E+02  0.00000000000E+00 0. -1.
         -5    1    5    5    0  502 -0.51002360142E+02  0.51553051788E+02 -0.56481224069E+02  0.92038994785E+02  0.47000000000E+01 0.  1.
         13    1    6    6    0    0 -0.30068591827E+01 -0.21006111152E+02  0.54041530689E+02  0.58058461460E+02  0.00000000000E+00 0. -1.
        -14    1    6    6    0    0 -0.15745457989E+02 -0.22014713190E+02 -0.26337750230E+02  0.37765647503E+02  0.00000000000E+00 0.  1.
</event>
<event>
12    1  0.8421768E-002  0.2230802E+03  0.7818608E-02  0.1134233E+00
         21   -1    0    0  501  502  0.00000000000E+00  0.00000000000E+00  0.26646022078E+03  0.26646022078E+03  0.00000000000E+00 0.  1.
         21   -1    0    0  502  503 -0.00000000000E+00 -0.00000000000E+00 -0.38236443873E+03  0.38236443873E+03  0.00000000000E+00 0.  1.
         -6    2    1    2    0  503  0.63821958298E+02 -0.12602275966E+03 -0.29575294876E+03  0.36227566343E+03  0.15433363632E+03 0.  0.
        -24    2    3    3    0    0 -0.18303091467E+02 -0.70260644307E+02 -0.16737460018E+03  0.19992718733E+03  0.81762229372E+02 0.  0.
          6    2    1    2  501    0 -0.63821958298E+02  0.12602275966E+03  0.17984873081E+03  0.28654899608E+03  0.17265509801E+03 0.  0.
         24    2    5    5    0    0 -0.31925936215E+02  0.76635289964E+00  0.77687825413E+02  0.12172950618E+03  0.88106876909E+02 0.  0.
          5    1    5    5  501    0 -0.31896022083E+02  0.12525640676E+03  0.10216090540E+03  0.16481948990E+03  0.47000000000E+01 0. -1.
        -11    1    6    6    0    0 -0.20703891208E+02  0.38601230743E+02  0.68340669073E+02  0.81173599005E+02  0.00000000000E+00 0.  1.
         12    1    6    6    0    0 -0.11222045007E+02 -0.37834877843E+02  0.93471563395E+01  0.40555907180E+02  0.00000000000E+00 0. -1.
         -5    1    3    3    0  503  0.82125049765E+02 -0.55762115350E+02 -0.12837834857E+03  0.16234847609E+03  0.47000000000E+01 0.  1.
         13    1    4    4    0    0  0.64046762618E+01 -0.80345374407E+02 -0.10737290750E+03  0.13425848327E+03  0.00000000000E+00 0. -1.
        -14    1    4    4    0    0 -0.24707767729E+02  0.10084730100E+02 -0.60001692689E+02  0.65668704059E+02  0.00000000000E+00 0.  1.
</event>
<event>
12    1  0.8421768E-002  0.2351113E+03  0.7818608E-02  0.1124352E+00
         21   -1    0    0  503  502  0.00000000000E+00  0.00000000000E+00  0.71038483977E+02  0.71038483977E+02  0.00000000000E+00 0. -1.
         21   -1    0    0  501  503 -0.00000000000E+00 -0.00000000000E+00 -0.77372184864E+03  0.77372184864E+03  0.00000000000E+00 0. -1.
          6    2    1    2  501    0 -0.11587691011E+03 -0.11187756330E+03 -0.41279900664E+03  0.47151744546E+03  0.16118819443E+03 0.  0.
         24    2    3    3    0    0 -0.65115977508E+02 -0.27207314915E+02 -0.31887217217E+03  0.33517206243E+03  0.75369229385E+02 0.  0.
         -6    2    1    2    0  502  0.11587691011E+03  0.11187756330E+03 -0.28988435802E+03  0.37324288716E+03  0.17126956624E+03 0.  0.
        -24    2    5    5    0    0  0.82933515045E+02  0.18772779017E+02 -0.82054694681E+02  0.14309287717E+03  0.80698286391E+02 0.  0.
          5    1    3    3  501    0 -0.50760932605E+02 -0.84670248381E+02 -0.93926834470E+02  0.13634538303E+03  0.47000000000E+01 0. -1.
        -11    1    4    4    0    0 -0.43326258234E+02  0.90261728107E+00 -0.60815561988E+02  0.74676046698E+02  0.00000000000E+00 0.  1.
         12    1    4    4    0    0 -0.21789719274E+02 -0.28109932196E+02 -0.25805661018E+03  0.26049601573E+03  0.00000000000E+00 0. -1.
         -5    1    5    5    0  502  0.32943395068E+02  0.93104784280E+02 -0.20782966334E+03  0.23015000999E+03  0.47000000000E+01 0.  1.
         11    1    6    6    0    0  0.73081220323E+02  0.40694880741E+02 -0.84542591981E+02  0.11893018095E+03  0.00000000000E+00 0. -1.
        -12    1    6    6    0    0  0.98522947226E+01 -0.21922101724E+02  0.24878973001E+01  0.24162696213E+02  0.00000000000E+00 0.  1.
</event>
<event>
12    1  0.8421768E-002  0.2001819E+03  0.7818608E-02  0.1150029E+00
         21   -1    0    0  501  502  0.00000000000E+00  0.00000000000E+00  0.16644807748E+03  0.16644807748E+03  0.00000000000E+00 0.  1.
         21   -1    0    0  502  503 -0.00000000000E+00 -0.00000000000E+00 -0.23826796895E+03  0.23826796895E+03  0.00000000000E+00 0.  1.
         -6    2    1    2    0  503  0.97909561215E+02  0.25240734178E+02 -0.33676019766E+02  0.20093248100E+03  0.17034204054E+03 0.  0.
        -24    2    3    3    0    0  0.85792214842E+02 -0.37442717314E+02 -0.52130270511E+02  0.13430895254E+03  0.80988075795E+02 0.  0.
          6    2    1    2  501    0 -0.97909561215E+02 -0.25240734178E+02 -0.38143871702E+02  0.20378356544E+03  0.17276981726E+03 0.  0.
         24    2    5    5    0    0 -0.44558731658E+02 -0.73555219754E+02  0.86042858268E+01  0.11782961984E+03  0.80087044255E+02 0.  0.
          5    1    5    5  501    0 -0.53350829557E+02  0.48314485577E+02 -0.46748157529E+02  0.85953945595E+02  0.47000000000E+01 0. -1.
        -13    1    6    6    0    0 -0.65703389912E+02 -0.50226024339E+02 -0.64049696528E+01  0.82949458124E+02  0.00000000000E+00 0.  1.
         14    1    6    6    0    0  0.21144658254E+02 -0.23329195415E+02  0.15009255480E+02  0.34880161718E+02  0.00000000000E+00 0. -1.
         -5    1    3    3    0  503  0.12117346373E+02  0.62683451491E+02  0.18454250745E+02  0.66623528461E+02  0.47000000000E+01 0.  1.
         13    1    4    4    0    0  0.14343399060E+02 -0.48880931314E+02 -0.27384986887E+02  0.57836113714E+02  0.00000000000E+00 0. -1.
        -14    1    4    4    0    0  0.71448815782E+02  0.11438214000E+02 -0.24745283624E+02  0.76472838824E+02  0.00000000000E+00 0.  1.
</event>
<event>
12    1  0.8421768E-002  0.1834983E+03  0.7818608E-02  0.1164807E+00
         21   -1    0    0  501  502  0.00000000000E+00  0.00000000000E+00  0.13737565616E+03  0.13737565616E+03  0.00000000000E+00 0. -1.
         21   -1    0    0  502  503 -0.00000000000E+00 -0.00000000000E+00 -0.39776167854E+03  0.39776167854E+03  0.00000000000E+00 0. -1.
         -6    2    1    2    0  503  0.62547447893E+02 -0.10526204089E+02 -0.29669106760E+03  0.34808200216E+03  0.17062387414E+03 0.  0.
        -24    2    3    3    0    0  0.59488060054E+02 -0.35664249679E+02 -0.87679655729E+02  0.13748964361E+03  0.80030694587E+02 0.  0.
          6    2    1    2  501    0 -0.62547447893E+02  0.10526204089E+02  0.36305045224E+02  0.18705533254E+03  0.17218785356E+03 0.  0.
         24    2    5    5    0    0 -0.59054452070E+02 -0.39144132999E+02  0.68457148132E+02  0.12759785927E+03  0.81087243771E+02 0.  0.
          5    1    5    5  501    0 -0.34929958226E+01  0.49670337088E+02 -0.32152102908E+02  0.59457473271E+02  0.47000000000E+01 0. -1.
        -13    1    6    6    0    0 -0.57515156898E+02 -0.10095482524E+02  0.60039204518E+01  0.58702292129E+02  0.00000000000E+00 0.  1.
         14    1    6    6    0    0 -0.15392951723E+01 -0.29048650475E+02  0.62453227680E+02  0.68895567141E+02  0.00000000000E+00 0. -1.
         -5    1    3    3    0  503  0.30593878389E+01  0.25138045589E+02 -0.20901141187E+03  0.21059235856E+03  0.47000000000E+01 0.  1.
         11    1    4    4    0    0  0.70994439547E+02 -0.40040627438E+01 -0.68457172459E+02  0.98704748752E+02  0.00000000000E+00 0. -1.
        -12    1    4    4    0    0 -0.11506379493E+02 -0.31660186935E+02 -0.19222483270E+02  0.38784894854E+02  0.00000000000E+00 0.  1.
</event>
<event>
12    1  0.8421768E-002  0.1820775E+03  0.7818608E-02  0.1165854E+00
         21   -1    0    0  501  502  0.00000000000E+00  0.00000000000E+00  0.15382187254E+03  0.15382187254E+03  0.00000000000E+00 0. -1.
         21   -1    0    0  502  503 -0.00000000000E+00 -0.00000000000E+00 -0.33711860411E+03  0.33711860411E+03  0.00000000000E+00 0. -1.
         -6    2    1    2    0  503  0.37908119293E+02  0.45856507158E+02 -0.23918099732E+03  0.30047976352E+03  0.17187406450E+03 0.  0.
        -24    2    3    3    0    0 -0.31829660331E+02 -0.15457713796E+02 -0.11343816554E+03  0.14409516920E+03  0.81505412037E+02 0.  0.
          6    2    1    2  501    0 -0.37908119293E+02 -0.45856507158E+02  0.55884265749E+02  0.19046071313E+03  0.17208250152E+03 0.  0.
         24    2    5    5    0    0  0.19552966139E+02 -0.72813218924E+02  0.79979136740E+01  0.11081378373E+03  0.80818591339E+02 0.  0.
          5    1    5    5  501    0 -0.57461085432E+02  0.26956711766E+02  0.47886352075E+02  0.79646929403E+02  0.47000000000E+01 0. -1.
        -11    1    6    6    0    0  0.33448340778E+02  0.28187022018E+01  0.41128007084E+01  0.33817919992E+02  0.00000000000E+00 0.  1.
         12    1    6    6    0    0 -0.13895374640E+02 -0.75631921126E+02  0.38851129656E+01  0.76995863736E+02  0.00000000000E+00 0. -1.
         -5    1    3    3    0  503  0.69737779624E+02  0.61314220955E+02 -0.12574283177E+03  0.15638459432E+03  0.47000000000E+01 0.  1.
         11    1    4    4    0    0 -0.45142497090E+02 -0.32963732508E+02 -0.10773850593E+03  0.12137560861E+03  0.00000000000E+00 0. -1.
        -12    1    4    4    0    0  0.13312836759E+02  0.17506018711E+02 -0.56996596124E+01  0.22719560590E+02  0.00000000000E+00 0.  1.
</event>
<event>
12    1  0.8421768E-002  0.2028787E+03  0.7818608E-02  0.1147395E+00
         21   -1    0    0  501  502  0.00000000000E+00  0.00000000000E+00  0.24406150208E+03  0.24406150208E+03  0.00000000000E+00 0.  1.
         21   -1    0    0  502  503 -0.00000000000E+00 -0.00000000000E+00 -0.19970602726E+03  0.19970602726E+03  0.00000000000E+00 0. -1.
         -6    2    1    2    0  503  0.54122394801E+02 -0.92835708301E+02 -0.65666519927E+02  0.21324130039E+03  0.17208154462E+03 0.  0.
        -24    2    3    3    0    0  0.67742773500E+02 -0.13781314721E+02 -0.74438299126E+02  0.13240723597E+03  0.84921185601E+02 0.  0.
          6    2    1    2  501    0 -0.54122394801E+02  0.92835708301E+02  0.11002199475E+03  0.23052622895E+03  0.17172594606E+03 0.  0.
         24    2    5    5    0    0 -0.74870670752E+01  0.38589968958E+02 -0.11329129906E+02  0.89580709386E+02  0.79693866966E+02 0.  0.
          5    1    5    5  501    0 -0.46635327726E+02  0.54245739343E+02  0.12135112466E+03  0.14094551956E+03  0.47000000000E+01 0. -1.
        -13    1    6    6    0    0 -0.34721843312E+02 -0.23696798436E+01 -0.19230885188E+02  0.39762403482E+02  0.00000000000E+00 0.  1.
         14    1    6    6    0    0  0.27234776236E+02  0.40959648802E+02  0.79017552824E+01  0.49818305904E+02  0.00000000000E+00 0. -1.
         -5    1    3    3    0  503 -0.13620378699E+02 -0.79054393580E+02  0.87717791985E+01  0.80834064419E+02  0.47000000000E+01 0.  1.
         13    1    4    4    0    0  0.17448381708E+02  0.57864353981E+01 -0.76225470872E+02  0.78410785409E+02  0.00000000000E+00 0. -1.
        -14    1    4    4    0    0  0.50294391792E+02 -0.19567750119E+02  0.17871717463E+01  0.53996450562E+02  0.00000000000E+00 0.  1.
</event>
<event>
12    1  0.8421768E-002  0.1875979E+03  0.7818608E-02  0.1161227E+00
         21   -1    0    0  501  502  0.00000000000E+00  0.00000000000E+00  0.20954624772E+03  0.20954624772E+03  0.00000000000E+00 0.  1.
         21   -1    0    0  502  503 -0.00000000000E+00 -0.00000000000E+00 -0.18641674591E+03  0.18641674591E+03  0.00000000000E+00 0.  1.
         -6    2    1    2    0  503 -0.29705075577E+02 -0.56436288372E+02 -0.54361215197E+02  0.19531543279E+03  0.17642429087E+03 0.  0.
        -24    2    3    3    0    0  0.11020478658E+01 -0.56413821546E+02  0.33179180943E+02  0.10239347459E+03  0.78739010785E+02 0.  0.
          6    2    1    2  501    0  0.29705075577E+02  0.56436288372E+02  0.77490717006E+02  0.20064756084E+03  0.17374460075E+03 0.  0.
         24    2    5    5    0    0  0.83905138241E+02  0.42258609795E+02  0.29937824079E+02  0.12701318716E+03  0.80063812524E+02 0.  0.
          5    1    5    5  501    0 -0.54200062664E+02  0.14177678576E+02  0.47552892928E+02  0.73634373688E+02  0.47000000000E+01 0. -1.
        -13    1    6    6    0    0  0.19801319309E+02  0.69845008379E+01  0.47354490410E+02  0.51800803664E+02  0.00000000000E+00 0.  1.
         14    1    6    6    0    0  0.64103818932E+02  0.35274108957E+02 -0.17416666331E+02  0.75212383492E+02  0.00000000000E+00 0. -1.
         -5    1    3    3    0  503 -0.30807123443E+02 -0.22466825334E-01 -0.87540396140E+02  0.92921958201E+02  0.47000000000E+01 0.  1.
         13    1    4    4    0    0  0.39770656578E+02 -0.27181436163E+02  0.13072219120E+02  0.49914111324E+02  0.00000000000E+00 0. -1.
        -14    1    4    4    0    0 -0.38668608712E+02 -0.29232385384E+02  0.20106961822E+02  0.52479363265E+02  0.00000000000E+00 0.  1.
</event>
<event>
12    1  0.8421768E-002  0.2087089E+03  0.7818608E-02  0.1144324E+00
         21   -1    0    0  503  502  0.00000000000E+00  0.00000000000E+00  0.31079905501E+03  0.31079905501E+03  0.00000000000E+00 0.  1.
         21   -1    0    0  501  503 -0.00000000000E+00 -0.00000000000E+00 -0.23995047394E+03  0.23995047394E+03  0.00000000000E+00 0.  1.
          6    2    1    2  501    0 -0.10104682190E+03  0.19245039355E+01  0.21835456963E+03  0.30205650624E+03  0.18260682066E+03 0.  0.
         24    2    3    3    0    0 -0.51009690338E+02  0.44149725575E+02  0.40333692857E+02  0.11231930260E+03  0.80234856397E+02 0.  0.
         -6    2    1    2    0  502  0.10104682190E+03 -0.19245039355E+01 -0.14750598857E+03  0.24869302270E+03  0.17284686559E+03 0.  0.
        -24    2    5    5    0    0  0.10641509760E+03 -0.42793360642E+02 -0.62095925281E+02  0.15374013574E+03  0.81392141439E+02 0.  0.
          5    1    3    3  501    0 -0.50037131566E+02 -0.42225221640E+02  0.17802087677E+03  0.18973720364E+03  0.47000000000E+01 0. -1.
        -11    1    4    4    0    0 -0.67351527778E+02  0.26656406166E+02  0.48332491404E+02  0.87079400601E+02  0.00000000000E+00 0.  1.
         12    1    4    4    0    0  0.16341837440E+02  0.17493319409E+02 -0.79987985469E+01  0.25239902002E+02  0.00000000000E+00 0. -1.
         -5    1    5    5    0  502 -0.53682756931E+01  0.40868856707E+02 -0.85410063289E+02  0.94952886967E+02  0.47000000000E+01 0.  1.
         13    1    6    6    0    0  0.40322531442E+02  0.23654215892E+02 -0.24282905216E+02  0.52679103609E+02  0.00000000000E+00 0. -1.
        -14    1    6    6    0    0  0.66092566155E+02 -0.66447576534E+02 -0.37813020065E+02  0.10106103213E+03  0.00000000000E+00 0.  1.
</event>
<event>
12    1  0.8421768E-002  0.1852781E+03  0.7818608E-02  0.1163033E+00
         21   -1    0    0  501  502  0.00000000000E+00  0.00000000000E+00  0.80799621368E+02  0.80799621368E+02  0.00000000000E+00 0.  1.
         21   -1    0    0  502  503 -0.00000000000E+00 -0.00000000000E+00 -0.60969540847E+03  0.60969540847E+03  0.00000000000E+00 0.  1.
         -6    2    1    2    0  503 -0.67068083863E+02 -0.13797852968E+02 -0.45524834738E+03  0.49111621520E+03  0.17104259827E+03 0.  0.
        -24    2    3    3    0    0 -0.78808321618E+02 -0.26196700660E+02 -0.16221452367E+03  0.19754769434E+03  0.76253007583E+02 0.  0.
          6    2    1    2  501    0  0.67068083863E+02  0.13797852968E+02 -0.73647439728E+02  0.19937881464E+03  0.17216113885E+03 0.  0.
         24    2    5    5    0    0  0.21397713331E+02  0.29244547758E+02  0.23742372846E+02  0.90607270948E+02  0.79579341358E+02 0.  0.
          5    1    5    5  501    0  0.45670370532E+02 -0.15446694790E+02 -0.97389812574E+02  0.10877154369E+03  0.47000000000E+01 0. -1.
        -13    1    6    6    0    0  0.50768187450E+02  0.16881509442E+02  0.52363121743E+01  0.53756982646E+02  0.00000000000E+00 0.  1.
         14    1    6    6    0    0 -0.29370474119E+02  0.12363038316E+02  0.18506060672E+02  0.36850288302E+02  0.00000000000E+00 0. -1.
         -5    1    3    3    0  503  0.11740237755E+02  0.12398847692E+02 -0.29303382371E+03  0.29356852086E+03  0.47000000000E+01 0.  1.
         13    1    4    4    0    0 -0.39414132785E+02 -0.30065399998E+02 -0.26566518139E+02  0.56242173022E+02  0.00000000000E+00 0. -1.
        -14    1    4    4    0    0 -0.39394188833E+02  0.38686993378E+01 -0.13564800554E+03  0.14130552131E+03  0.00000000000E+00 0.  1.
</event>
<event>
12    1  0.8421768E-002  0.1737155E+03  0.7818608E-02  0.1174132E+00
         21   -1    0    0  501  502  0.00000000000E+00  0.00000000000E+00  0.28841661296E+02  0.28841661296E+02  0.00000000000E+00 0.  1.
         21   -1    0    0  502  503 -0.00000000000E+00 -0.00000000000E+00 -0.14598146432E+04  0.14598146432E+04  0.00000000000E+00 0.  1.
         -6    2    1    2    0  503  0.14017316400E+02  0.38384678906E+01 -0.11134309580E+04  0.11269008635E+04  0.17310643794E+03 0.  0.
        -24    2    3    3    0    0  0.11749627971E+01 -0.63427067865E+02 -0.61163040565E+03  0.62042730771E+03  0.82546456962E+02 0.  0.
          6    2    1    2  501    0 -0.14017316400E+02 -0.38384678906E+01 -0.31754202391E+03  0.36175544103E+03  0.17269291582E+03 0.  0.
         24    2    5    5    0    0 -0.57034258481E+02  0.10147066593E+01 -0.10388879240E+03  0.14371002387E+03  0.81275786714E+02 0.  0.
          5    1    5    5  501    0  0.43016942081E+02 -0.48531745499E+01 -0.21365323151E+03  0.21804541716E+03  0.47000000000E+01 0. -1.
        -11    1    6    6    0    0 -0.53750348485E+02 -0.33688637859E+02 -0.76496139549E+02  0.99376474324E+02  0.00000000000E+00 0.  1.
         12    1    6    6    0    0 -0.32839099956E+01  0.34703344519E+02 -0.27392652849E+02  0.44333549551E+02  0.00000000000E+00 0. -1.
         -5    1    3    3    0  503  0.12842353603E+02  0.67265535756E+02 -0.50180055237E+03  0.50647355578E+03  0.47000000000E+01 0.  1.
         13    1    4    4    0    0 -0.17840560404E+02  0.14916529169E+02 -0.15503415224E+03  0.15676854531E+03  0.00000000000E+00 0. -1.
        -14    1    4    4    0    0  0.19015523201E+02 -0.78343597034E+02 -0.45659625342E+03  0.46365876240E+03  0.00000000000E+00 0.  1.
</event>
<event>
12    1  0.8421768E-002  0.1898797E+03  0.7818608E-02  0.1158761E+00
         21   -1    0    0  501  502  0.00000000000E+00  0.00000000000E+00  0.82956653787E+03  0.82956653787E+03  0.00000000000E+00 0. -1.
         21   -1    0    0  502  503 -0.00000000000E+00 -0.00000000000E+00 -0.46172029701E+02  0.46172029701E+02  0.00000000000E+00 0. -1.
         -6    2    1    2    0  503  0.79046553198E+02  0.12970999413E+02  0.28108185664E+03  0.33873550849E+03  0.17122537833E+03 0.  0.
        -24    2    3    3    0    0  0.34451259933E+02  0.62687872548E+01  0.46757891493E+02  0.10006529571E+03  0.81243928902E+02 0.  0.
          6    2    1    2  501    0 -0.79046553198E+02 -0.12970999413E+02  0.50231265153E+03  0.53700305908E+03  0.17215597920E+03 0.  0.
         24    2    5    5    0    0 -0.38077807514E+02 -0.21225292976E+01  0.48121821925E+03  0.48943003626E+03  0.80723982195E+02 0.  0.
          5    1    5    5  501    0 -0.40968745685E+02 -0.10848470115E+02  0.21094432281E+02  0.47573022818E+02  0.47000000000E+01 0. -1.
        -13    1    6    6    0    0  0.21771206689E+02 -0.15978022038E+02  0.11776499033E+03  0.12082166848E+03  0.00000000000E+00 0.  1.
         14    1    6    6    0    0 -0.59849014202E+02  0.13855492740E+02  0.36345322893E+03  0.36860836778E+03  0.00000000000E+00 0. -1.
         -5    1    3    3    0  503  0.44595293266E+02  0.67022121578E+01  0.23432396514E+03  0.23867021278E+03  0.47000000000E+01 0.  1.
         13    1    4    4    0    0 -0.17852509603E+01  0.36250987467E+02  0.40219823407E+01  0.36517085800E+02  0.00000000000E+00 0. -1.
        -14    1    4    4    0    0  0.36236510893E+02 -0.29982200213E+02  0.42735909152E+02  0.63548209907E+02  0.00000000000E+00 0.  1.
</event>
<event>
12    1  0.8421768E-002  0.1720458E+03  0.7818608E-02  0.1176594E+00
         21   -1    0    0  501  502  0.00000000000E+00  0.00000000000E+00  0.27727394856E+03  0.27727394856E+03  0.00000000000E+00 0.  1.
         21   -1    0    0  502  503 -0.00000000000E+00 -0.00000000000E+00 -0.15915331381E+03  0.15915331381E+03  0.00000000000E+00 0.  1.
         -6    2    1    2    0  503 -0.70203367015E+00 -0.48676019268E+01 -0.68956823638E+02  0.18226640259E+03  0.16864700290E+03 0.  0.
        -24    2    3    3    0    0 -0.69069169603E+01  0.40956764455E+02 -0.93356655972E+02  0.12977054610E+03  0.79998546015E+02 0.  0.
          6    2    1    2  501    0  0.70203367015E+00  0.48676019268E+01  0.18707745839E+03  0.25416085977E+03  0.17197552385E+03 0.  0.
         24    2    5    5    0    0 -0.12735669035E+02  0.62955111789E+02  0.75649527869E+02  0.12769740910E+03  0.80363137429E+02 0.  0.
          5    1    5    5  501    0  0.13437702705E+02 -0.58087509862E+02  0.11142793052E+03  0.12646345068E+03  0.47000000000E+01 0. -1.
        -11    1    6    6    0    0  0.47290205166E+01  0.10821503770E+02  0.71599900427E+02  0.72567308893E+02  0.00000000000E+00 0.  1.
         12    1    6    6    0    0 -0.17464689551E+02  0.52133608019E+02  0.40496274427E+01  0.55130100205E+02  0.00000000000E+00 0. -1.
         -5    1    3    3    0  503  0.62048832902E+01 -0.45824366382E+02  0.24399832334E+02  0.52495856493E+02  0.47000000000E+01 0.  1.
         13    1    4    4    0    0  0.29645907236E+02  0.69987340578E+01 -0.89977261293E+01  0.31761945308E+02  0.00000000000E+00 0. -1.
        -14    1    4    4    0    0 -0.36552824196E+02  0.33958030397E+02 -0.84358929842E+02  0.98008600793E+02  0.00000000000E+00 0.  1.
</event>
<event>
12    1  0.8421768E-002  0.1825849E+03  0.7818608E-02  0.1165843E+00
         21   -1    0    0  503  502  0.00000000000E+00  0.00000000000E+00  0.47132417378E+03  0.47132417378E+03  0.00000000000E+00 0. -1.
         21   -1    0    0  501  503 -0.00000000000E+00 -0.00000000000E+00 -0.69934740026E+02  0.69934740026E+02  0.00000000000E+00 0. -1.
          6    2    1    2  501    0  0.43947063681E+02 -0.39592277566E+02  0.20603409257E+03  0.27386228561E+03  0.17044533238E+03 0.  0.
         24    2    3    3    0    0  0.58970095101E+02  0.29443070983E+02  0.82904456400E+02  0.13182507878E+03  0.78487807708E+02 0.  0.
         -6    2    1    2    0  502 -0.43947063681E+02  0.39592277566E+02  0.19535534119E+03  0.26739662820E+03  0.17273782038E+03 0.  0.
        -24    2    5    5    0    0  0.38749303216E+02 -0.26668927027E+01  0.77962595359E+02  0.11763791111E+03  0.79068900580E+02 0.  0.
          5    1    3    3  501    0 -0.15023031421E+02 -0.69035348549E+02  0.12312963617E+03  0.14203720684E+03  0.47000000000E+01 0. -1.
        -11    1    4    4    0    0  0.28311951710E+02  0.26288544401E+02 -0.47353607207E+01  0.38924000533E+02  0.00000000000E+00 0.  1.
         12    1    4    4    0    0  0.30658143391E+02  0.31545265820E+01  0.87639817120E+02  0.92901078245E+02  0.00000000000E+00 0. -1.
         -5    1    5    5    0  502 -0.82696366897E+02  0.42259170269E+02  0.11739274583E+03  0.14975871709E+03  0.47000000000E+01 0.  1.
         13    1    6    6    0    0  0.50416140044E+01  0.27726000685E+02  0.89022324476E+00  0.28194706652E+02  0.00000000000E+00 0. -1.
        -14    1    6    6    0    0  0.33707689212E+02 -0.30392893388E+02  0.77072372114E+02  0.89443204459E+02  0.00000000000E+00 0.  1.
</event>
<event>
12    1  0.8421768E-002  0.2418531E+03  0.7818608E-02  0.1118921E+00
         21   -1    0    0  503  502  0.00000000000E+00  0.00000000000E+00  0.11035755825E+03  0.11035755825E+03  0.00000000000E+00 0.  1.
         21   -1    0    0  501  503 -0.00000000000E+00 -0.00000000000E+00 -0.54681892597E+03  0.54681892597E+03  0.00000000000E+00 0.  1.
          6    2    1    2  501    0  0.14846358996E+03 -0.83821144839E+02 -0.28432095682E+03  0.37327112792E+03  0.17153864459E+03 0.  0.
         24    2    3    3    0    0  0.14057832413E+03 -0.46533206239E+02 -0.28955314588E+03  0.33451504989E+03  0.78305107201E+02 0.  0.
         -6    2    1    2    0  502 -0.14846358996E+03  0.83821144839E+02 -0.15214041090E+03  0.28390535630E+03  0.16848775872E+03 0.  0.
        -24    2    5    5    0    0 -0.13530352144E+03  0.73908157303E+02 -0.18086743986E+03  0.25045708402E+03  0.79033293671E+02 0.  0.
          5    1    3    3  501    0  0.78852658299E+01 -0.37287938600E+02  0.52321890598E+01  0.38756078034E+02  0.47000000000E+01 0. -1.
        -11    1    4    4    0    0  0.73042293283E+02 -0.60275987893E+01 -0.70332701012E+02  0.10157852818E+03  0.00000000000E+00 0.  1.
         12    1    4    4    0    0  0.67536030845E+02 -0.40505607450E+02 -0.21922044487E+03  0.23293652171E+03  0.00000000000E+00 0. -1.
         -5    1    5    5    0  502 -0.13160068520E+02  0.99129875365E+01  0.28727028956E+02  0.33448272272E+02  0.47000000000E+01 0.  1.
         13    1    6    6    0    0 -0.61804396802E+00  0.31617628870E+02 -0.40452802697E+02  0.51346720244E+02  0.00000000000E+00 0. -1.
        -14    1    6    6    0    0 -0.13468547747E+03  0.42290528432E+02 -0.14041463716E+03  0.19911036378E+03  0.00000000000E+00 0.  1.
</event>
<event>
12    1  0.8421768E-002  0.2156192E+03  0.7818608E-02  0.1137374E+00
         21   -1    0    0  503  502  0.00000000000E+00  0.00000000000E+00  0.89585765575E+02  0.89585765575E+02  0.00000000000E+00 0.  1.
         21   -1    0    0  501  503 -0.00000000000E+00 -0.00000000000E+00 -0.53104748169E+03  0.53104748169E+03  0.00000000000E+00 0. -1.
          6    2    1    2  501    0  0.74248538640E+02  0.10432158324E+03 -0.27224156137E+03  0.34728531055E+03  0.17348135626E+03 0.  0.
         24    2    3    3    0    0  0.81150968971E+01  0.24677352988E+02 -0.21631407625E+03  0.22952789414E+03  0.72224982219E+02 0.  0.
         -6    2    1    2    0  502 -0.74248538640E+02 -0.10432158324E+03 -0.16922015475E+03  0.27334793672E+03  0.17230146695E+03 0.  0.
        -24    2    5    5    0    0 -0.10669757710E+02 -0.11897075924E+03 -0.85336987688E+02  0.16697437112E+03  0.79562264029E+02 0.  0.
          5    1    3    3  501    0  0.66133441743E+02  0.79644230248E+02 -0.55927485122E+02  0.11775741641E+03  0.47000000000E+01 0. -1.
        -11    1    4    4    0    0 -0.36968155693E+01 -0.65097644828E+01  0.27234161301E+01  0.79662082821E+01  0.00000000000E+00 0.  1.
         12    1    4    4    0    0  0.11811912466E+02  0.31187117470E+02 -0.21903749238E+03  0.22156168586E+03  0.00000000000E+00 0. -1.
         -5    1    5    5    0  502 -0.63578780930E+02  0.14649176007E+02 -0.83883167061E+02  0.10637356560E+03  0.47000000000E+01 0.  1.
         13    1    6    6    0    0  0.34697003584E+02 -0.54224320726E+02 -0.41189386027E+02  0.76424633052E+02  0.00000000000E+00 0. -1.
        -14    1    6    6    0    0 -0.45366761294E+02 -0.64746438517E+02 -0.44147601661E+02  0.90549738063E+02  0.00000000000E+00 0.  1.
</event>
<event>
12    1  0.8421768E-002  0.1882518E+03  0.7818608E-02  0.1161636E+00
         21   -1    0    0  503  502  0.00000000000E+00  0.00000000000E+00  0.45291003135E+03  0.45291003135E+03  0.00000000000E+00 0. -1.
         21   -1    0    0  501  503 -0.00000000000E+00 -0.00000000000E+00 -0.83088756477E+02  0.83088756477E+02  0.00000000000E+00 0. -1.
          6    2    1    2  501    0  0.40128097875E+02 -0.34747752267E+02  0.10049658615E+03  0.20740401101E+03  0.17349117969E+03 0.  0.
         24    2    3    3    0    0 -0.63602308143E+01 -0.21322946023E+02  0.12277602859E+03  0.15392641119E+03  0.90134711964E+02 0.  0.
         -6    2    1    2    0  502 -0.40128097875E+02  0.34747752267E+02  0.26932468873E+03  0.32859477682E+03  0.18061303626E+03 0.  0.
        -24    2    5    5    0    0  0.27481776966E+02  0.69643051895E+02  0.13639714932E+03  0.17536097556E+03  0.80881930411E+02 0.  0.
          5    1    3    3  501    0  0.46488328690E+02 -0.13424806244E+02 -0.22279442448E+02  0.53477599823E+02  0.47000000000E+01 0. -1.
        -11    1    4    4    0    0 -0.29022668974E+02 -0.19850531378E+02  0.68830368598E+01  0.35829249320E+02  0.00000000000E+00 0.  1.
         12    1    4    4    0    0  0.22662438160E+02 -0.14724146448E+01  0.11589299174E+03  0.11809716187E+03  0.00000000000E+00 0. -1.
         -5    1    5    5    0  502 -0.67609874842E+02 -0.34895299628E+02  0.13292753941E+03  0.15323380125E+03  0.47000000000E+01 0.  1.
         13    1    6    6    0    0 -0.20130841097E+02  0.26045423015E+02  0.90080885701E+02  0.95907146720E+02  0.00000000000E+00 0. -1.
        -14    1    6    6    0    0  0.47612618063E+02  0.43597628880E+02  0.46316263616E+02  0.79453828845E+02  0.00000000000E+00 0.  1.
</event>
<event>
12    1  0.8421768E-002  0.2901906E+03  0.7818608E-02  0.1090251E+00
         21   -1    0    0  503  502  0.00000000000E+00  0.00000000000E+00  0.12206144090E+03  0.12206144090E+03  0.00000000000E+00 0. -1.
         21   -1    0    0  501  503 -0.00000000000E+00 -0.00000000000E+00 -0.12500881416E+04  0.12500881416E+04  0.00000000000E+00 0. -1.
          6    2    1    2  501    0  0.13962277532E+03 -0.18685185492E+03 -0.10232963334E+04  0.10636474902E+04  0.17263389688E+03 0.  0.
         24    2    3    3    0    0  0.70201103337E+02 -0.22523439025E+02 -0.32755797080E+03  0.34538767925E+03  0.81011878928E+02 0.  0.
         -6    2    1    2    0  502 -0.13962277532E+03  0.18685185492E+03 -0.10473036728E+03  0.30850209230E+03  0.17261794822E+03 0.  0.
        -24    2    5    5    0    0 -0.30433727641E+02  0.50525387931E+02 -0.87581854353E+02  0.13293639169E+03  0.80761850026E+02 0.  0.
          5    1    3    3  501    0  0.69421671984E+02 -0.16432841590E+03 -0.69573836260E+03  0.71825981093E+03  0.47000000000E+01 0. -1.
        -13    1    4    4    0    0  0.21547544156E+02  0.30470734722E+02 -0.10051425994E+03  0.10721883596E+03  0.00000000000E+00 0.  1.
         14    1    4    4    0    0  0.48653559181E+02 -0.52994173747E+02 -0.22704371086E+03  0.23816884329E+03  0.00000000000E+00 0. -1.
         -5    1    5    5    0  502 -0.10918904768E+03  0.13632646699E+03 -0.17148512932E+02  0.17556570061E+03  0.47000000000E+01 0.  1.
         13    1    6    6    0    0 -0.20635069995E+02  0.70617068082E+02 -0.49154340616E+02  0.88480086005E+02  0.00000000000E+00 0. -1.
        -14    1    6    6    0    0 -0.97986576457E+01 -0.20091680151E+02 -0.38427513737E+02  0.44456305683E+02  0.00000000000E+00 0.  1.
</event>
<event>
12    1  0.8421768E-002  0.3309453E+03  0.7818608E-02  0.1070742E+00
         21   -1    0    0  503  502  0.00000000000E+00  0.00000000000E+00  0.39157042896E+03  0.39157042896E+03  0.00000000000E+00 0. -1.
         21   -1    0    0  501  503 -0.00000000000E+00 -0.00000000000E+00 -0.33172905080E+03  0.33172905080E+03  0.00000000000E+00 0.  1.
          6    2    1    2  501    0 -0.79678661245E+02  0.27117744658E+03 -0.11352767902E+03  0.34987618846E+03  0.17215956772E+03 0.  0.
         24    2    3    3    0    0  0.43803595889E+01  0.11127872107E+03 -0.18463412833E+01  0.13744188662E+03  0.80527771029E+02 0.  0.
         -6    2    1    2    0  502  0.79678661245E+02 -0.27117744658E+03  0.17336905719E+03  0.37342329129E+03  0.17176212591E+03 0.  0.
        -24    2    5    5    0    0  0.11130709046E+03 -0.22675256723E+03  0.17239396914E+03  0.31867871862E+03  0.89612777981E+02 0.  0.
          5    1    3    3  501    0 -0.84059020834E+02  0.15989872550E+03 -0.11168133774E+03  0.21243430185E+03  0.47000000000E+01 0. -1.
        -11    1    4    4    0    0 -0.25703194791E+02  0.49799224932E+02 -0.29843307310E+02  0.63492046884E+02  0.00000000000E+00 0.  1.
         12    1    4    4    0    0  0.30083554380E+02  0.61479496142E+02  0.27996966026E+02  0.73949839734E+02  0.00000000000E+00 0. -1.
         -5    1    5    5    0  502 -0.31628429210E+02 -0.44424879352E+02  0.97508804376E+00  0.54744572667E+02  0.47000000000E+01 0.  1.
         11    1    6    6    0    0  0.21895749481E+02 -0.79338612487E+02  0.10535736993E+03  0.13369448259E+03  0.00000000000E+00 0. -1.
        -12    1    6    6    0    0  0.89411340975E+02 -0.14741395474E+03  0.67036599214E+02  0.18498423603E+03  0.00000000000E+00 0.  1.
</event>
<event>
12    1  0.8421768E-002  0.1785561E+03  0.7818608E-02  0.1170009E+00
         21   -1    0    0  503  502  0.00000000000E+00  0.00000000000E+00  0.94534867804E+02  0.94534867804E+02  0.00000000000E+00 0.  1.
         21   -1    0    0  501  503 -0.00000000000E+00 -0.00000000000E+00 -0.39606975324E+03  0.39606975324E+03  0.00000000000E+00 0.  1.
          6    2    1    2  501    0  0.34700989097E+02 -0.25616948634E+02 -0.25123052876E+03  0.30821916811E+03  0.17326826111E+03 0.  0.
         24    2    3    3    0    0 -0.17480169588E+02 -0.71302064459E+02 -0.14088732087E+03  0.17780553133E+03  0.79850041121E+02 0.  0.
         -6    2    1    2    0  502 -0.34700989097E+02  0.25616948634E+02 -0.50304356680E+02  0.18238545293E+03  0.16992215406E+03 0.  0.
        -24    2    5    5    0    0 -0.26275751546E+02  0.53090048039E+02 -0.90748901989E+02  0.13254965191E+03  0.76322203118E+02 0.  0.
          5    1    3    3  501    0  0.52181158685E+02  0.45685115824E+02 -0.11034320789E+03  0.13041363678E+03  0.47000000000E+01 0. -1.
        -13    1    4    4    0    0 -0.42680286611E+02 -0.36127614328E+02 -0.42218046884E+02  0.70065504101E+02  0.00000000000E+00 0.  1.
         14    1    4    4    0    0  0.25200117023E+02 -0.35174450131E+02 -0.98669273983E+02  0.10774002723E+03  0.00000000000E+00 0. -1.
         -5    1    5    5    0  502 -0.84252375509E+01 -0.27473099405E+02  0.40444545309E+02  0.49835801026E+02  0.47000000000E+01 0.  1.
         11    1    6    6    0    0 -0.16187466958E+02 -0.17023352483E+02 -0.36159250752E+02  0.43119833386E+02  0.00000000000E+00 0. -1.
        -12    1    6    6    0    0 -0.10088284588E+02  0.70113400523E+02 -0.54589651236E+02  0.89429818522E+02  0.00000000000E+00 0.  1.
</event>
<event>
12    1  0.8421768E-002  0.2350306E+03  0.7818608E-02  0.1123280E+00
         21   -1    0    0  503  502  0.00000000000E+00  0.00000000000E+00  0.11570508127E+03  0.11570508127E+03  0.00000000000E+00 0. -1.
         21   -1    0    0  501  503 -0.00000000000E+00 -0.00000000000E+00 -0.50340718661E+03  0.50340718661E+03  0.00000000000E+00 0.  1.
          6    2    1    2  501    0 -0.31970298500E+02 -0.15639023337E+03 -0.26656739833E+03  0.35538366303E+03  0.17250902881E+03 0.  0.
         24    2    3    3    0    0 -0.53930174987E+02 -0.70823010075E+02 -0.23057624565E+03  0.25987743838E+03  0.80290194835E+02 0.  0.
         -6    2    1    2    0  502  0.31970298500E+02  0.15639023337E+03 -0.12113470701E+03  0.26372860485E+03  0.17146181702E+03 0.  0.
        -24    2    5    5    0    0  0.38913552882E+02  0.82145555909E+02  0.35943162803E+01  0.11833293723E+03  0.75680961739E+02 0.  0.
          5    1    3    3  501    0  0.21959876486E+02 -0.85567223293E+02 -0.35991152673E+02  0.95506224656E+02  0.47000000000E+01 0. -1.
        -13    1    4    4    0    0  0.10402568683E+02  0.56222175104E+01 -0.68250835455E+02  0.69267592028E+02  0.00000000000E+00 0.  1.
         14    1    4    4    0    0 -0.64332743670E+02 -0.76445227586E+02 -0.16232541020E+03  0.19060984635E+03  0.00000000000E+00 0. -1.
         -5    1    5    5    0  502 -0.69432543819E+01  0.74244677460E+02 -0.12472902329E+03  0.14539566763E+03  0.47000000000E+01 0.  1.
         13    1    6    6    0    0  0.45500642531E+02  0.29390051817E+02  0.26668764731E+02  0.60376374758E+02  0.00000000000E+00 0. -1.
        -14    1    6    6    0    0 -0.65870896488E+01  0.52755504091E+02 -0.23074448451E+02  0.57956562469E+02  0.00000000000E+00 0.  1.
</event>
<event>
12    1  0.8421768E-002  0.1990865E+03  0.7818608E-02  0.1152141E+00
         21   -1    0    0  501  502  0.00000000000E+00  0.00000000000E+00  0.76589515918E+03  0.76589515918E+03  0.00000000000E+00 0.  1.
         21   -1    0    0  502  503 -0.00000000000E+00 -0.00000000000E+00 -0.51591819377E+02  0.51591819377E+02  0.00000000000E+00 0. -1.
         -6    2    1    2    0  503  0.71776488088E+02 -0.74075347732E+02  0.27465308244E+03  0.33486106804E+03  0.16142675680E+03 0.  0.
        -24    2    3    3    0    0 -0.13962550871E+02 -0.57962048583E+02  0.13193168161E+03  0.16752216202E+03  0.84280212710E+02 0.  0.
          6    2    1    2  501    0 -0.71776488088E+02  0.74075347732E+02  0.43965025737E+03  0.48262591052E+03  0.17028329137E+03 0.  0.
         24    2    5    5    0    0 -0.68896583708E+02  0.37653298611E+02  0.43062918157E+03  0.44470059813E+03  0.78438637242E+02 0.  0.
          5    1    5    5  501    0 -0.28799043803E+01  0.36422049122E+02  0.90210757948E+01  0.37925312391E+02  0.47000000000E+01 0. -1.
        -13    1    6    6    0    0 -0.80999334577E+02  0.31829915231E+02  0.27382830757E+03  0.28732556053E+03  0.00000000000E+00 0.  1.
         14    1    6    6    0    0  0.12102750869E+02  0.58233833800E+01  0.15680087400E+03  0.15737503760E+03  0.00000000000E+00 0. -1.
         -5    1    3    3    0  503  0.85739038959E+02 -0.16113299149E+02  0.14272140083E+03  0.16733890601E+03  0.47000000000E+01 0.  1.
         11    1    4    4    0    0  0.14868201782E+02 -0.47013986108E+02  0.23186242220E+02  0.54488348684E+02  0.00000000000E+00 0. -1.
        -12    1    4    4    0    0 -0.28830752653E+02 -0.10948062475E+02  0.10874543939E+03  0.11303381334E+03  0.00000000000E+00 0.  1.
</event>
<event>
12    1  0.8421768E-002  0.2611552E+03  0.7818608E-02  0.1108044E+00
         21   -1    0    0  503  502  0.00000000000E+00  0.00000000000E+00  0.14722043315E+04  0.14722043315E+04  0.00000000000E+00 0. -1.
         21   -1    0    0  501  503 -0.00000000000E+00 -0.00000000000E+00 -0.76959659959E+02  0.76959659959E+02  0.00000000000E+00 0. -1.
          6    2    1    2  501    0 -0.14348419755E+03 -0.11405409736E+03  0.20281219582E+03  0.33065817939E+03  0.18602686029E+03 0.  0.
         24    2    3    3    0    0 -0.98312397807E+02  0.38073686514E+01  0.63745272088E+02  0.14279249348E+03  0.81525535038E+02 0.  0.
         -6    2    1    2    0  502  0.14348419755E+03  0.11405409736E+03  0.11924324757E+04  0.12185058121E+04  0.17107060778E+03 0.  0.
        -24    2    5    5    0    0  0.16375026783E+03  0.84534108310E+02  0.83446653494E+03  0.85872275506E+03  0.84322040077E+02 0.  0.
          5    1    3    3  501    0 -0.45171799739E+02 -0.11786146601E+03  0.13906692374E+03  0.18786568590E+03  0.47000000000E+01 0. -1.
        -11    1    4    4    0    0 -0.70231324909E+02  0.15672097179E+02 -0.19276157497E+00  0.71958952087E+02  0.00000000000E+00 0.  1.
         12    1    4    4    0    0 -0.28081072898E+02 -0.11864728528E+02  0.63938033663E+02  0.70833541397E+02  0.00000000000E+00 0. -1.
         -5    1    5    5    0  502 -0.20266070280E+02  0.29519989049E+02  0.35796594078E+03  0.35978305701E+03  0.47000000000E+01 0.  1.
         13    1    6    6    0    0  0.80903844305E+02  0.34624804800E+02  0.57732152081E+03  0.58399010910E+03  0.00000000000E+00 0. -1.
        -14    1    6    6    0    0  0.82846423521E+02  0.49909303510E+02  0.25714501413E+03  0.27473264597E+03  0.00000000000E+00 0.  1.
</event>
<event>
12    1  0.8421768E-002  0.2425686E+03  0.7818608E-02  0.1119778E+00
         21   -1    0    0  501  502  0.00000000000E+00  0.00000000000E+00  0.93726486713E+03  0.93726486713E+03  0.00000000000E+00 0.  1.
         21   -1    0    0  502  503 -0.00000000000E+00 -0.00000000000E+00 -0.64416615131E+02  0.64416615131E+02  0.00000000000E+00 0. -1.
         -6    2    1    2    0  503  0.12865431811E+03  0.11663860967E+03  0.29984322809E+03  0.37944817135E+03  0.15465592286E+03 0.  0.
        -24    2    3    3    0    0  0.11014670168E+03  0.37099203731E+02  0.23940424201E+03  0.27774266510E+03  0.79485534027E+02 0.  0.
          6    2    1    2  501    0 -0.12865431811E+03 -0.11663860967E+03  0.57300502391E+03  0.62223331091E+03  0.16936067119E+03 0.  0.
         24    2    5    5    0    0 -0.10494084826E+03 -0.11862004338E+03  0.57081397213E+03  0.59787873352E+03  0.80914108114E+02 0.  0.
          5    1    5    5  501    0 -0.23713469854E+02  0.19814337129E+01  0.21910517829E+01  0.24354577393E+02  0.47000000000E+01 0. -1.
        -11    1    6    6    0    0 -0.11111748174E+03 -0.10627863352E+03  0.43519232570E+03  0.46155671704E+03  0.00000000000E+00 0.  1.
         12    1    6    6    0    0  0.61766334812E+01 -0.12341409862E+02  0.13562164642E+03  0.13632201648E+03  0.00000000000E+00 0. -1.
         -5    1    3    3    0  503  0.18507616438E+02  0.79539405936E+02  0.60438986086E+02  0.10170550625E+03  0.47000000000E+01 0.  1.
         13    1    4    4    0    0 -0.92421301199E+01  0.17301498508E+02  0.38370455308E+02  0.43093510652E+02  0.00000000000E+00 0. -1.
        -14    1    4    4    0    0  0.11938883180E+03  0.19797705223E+02  0.20103378670E+03  0.23464915445E+03  0.00000000000E+00 0.  1.
</event>
<event>
12    1  0.8421768E-002  0.2010385E+03  0.7818608E-02  0.1149364E+00
         21   -1    0    0  501  502  0.00000000000E+00  0.00000000000E+00  0.35023710005E+03  0.35023710005E+03  0.00000000000E+00 0.  1.
         21   -1    0    0  502  503 -0.00000000000E+00 -0.00000000000E+00 -0.19014441932E+03  0.19014441932E+03  0.00000000000E+00 0.  1.
         -6    2    1    2    0  503 -0.74460406141E+02  0.65329770607E+02 -0.91166652679E+02  0.21859321126E+03  0.17221876332E+03 0.  0.
        -24    2    3    3    0    0 -0.70759294899E+02 -0.39398925028E+00 -0.10429711409E+03  0.15130420881E+03  0.83714052304E+02 0.  0.
          6    2    1    2  501    0  0.74460406141E+02 -0.65329770607E+02  0.25125933341E+03  0.32178830811E+03  0.17494036584E+03 0.  0.
         24    2    5    5    0    0  0.11738104976E+03 -0.53801434890E+02  0.21943653673E+03  0.26692607554E+03  0.80151300140E+02 0.  0.
          5    1    5    5  501    0 -0.42920643621E+02 -0.11528335717E+02  0.31822796682E+02  0.54862232564E+02  0.47000000000E+01 0. -1.
        -13    1    6    6    0    0  0.27948403755E+02 -0.55911262846E+02  0.88583689849E+02  0.10841703138E+03  0.00000000000E+00 0.  1.
         14    1    6    6    0    0  0.89432646007E+02  0.21098279563E+01  0.13085284688E+03  0.15850904417E+03  0.00000000000E+00 0. -1.
         -5    1    3    3    0  503 -0.37011112418E+01  0.65723759857E+02  0.13130461413E+02  0.67289002453E+02  0.47000000000E+01 0.  1.
         13    1    4    4    0    0 -0.65791275882E+02 -0.25576620050E+02 -0.37901512221E+02  0.80119785971E+02  0.00000000000E+00 0. -1.
        -14    1    4    4    0    0 -0.49680190173E+01  0.25182630800E+02 -0.66395601871E+02  0.71184422838E+02  0.00000000000E+00 0.  1.
</event>
<event>
12    1  0.8421768E-002  0.2148130E+03  0.7818608E-02  0.1139582E+00
         21   -1    0    0  501  502  0.00000000000E+00  0.00000000000E+00  0.46700975867E+02  0.46700975867E+02  0.00000000000E+00 0.  1.
         21   -1    0    0  502  503 -0.00000000000E+00 -0.00000000000E+00 -0.95364323796E+03  0.95364323796E+03  0.00000000000E+00 0.  1.
         -6    2    1    2    0  503  0.54532541924E+02  0.98314676619E+02 -0.48530091425E+03  0.52713595641E+03  0.17238261339E+03 0.  0.
        -24    2    3    3    0    0  0.31236481572E+02  0.96278631241E+02 -0.18365324247E+03  0.22454669718E+03  0.80295785265E+02 0.  0.
          6    2    1    2  501    0 -0.54532541924E+02 -0.98314676619E+02 -0.42164134784E+03  0.47320825741E+03  0.18304386062E+03 0.  0.
         24    2    5    5    0    0 -0.10708027857E+03 -0.46997342966E+02 -0.26424618422E+03  0.29945538437E+03  0.78565546195E+02 0.  0.
          5    1    5    5  501    0  0.52547736649E+02 -0.51317333653E+02 -0.15739516362E+03  0.17375287304E+03  0.47000000000E+01 0. -1.
        -11    1    6    6    0    0 -0.35243480255E+02  0.10117974707E+02 -0.28391260323E+02  0.46373914817E+02  0.00000000000E+00 0.  1.
         12    1    6    6    0    0 -0.71836798318E+02 -0.57115317674E+02 -0.23585492390E+03  0.25308146956E+03  0.00000000000E+00 0. -1.
         -5    1    3    3    0  503  0.23296060351E+02  0.20360453786E+01 -0.30164767178E+03  0.30258925923E+03  0.47000000000E+01 0.  1.
         13    1    4    4    0    0 -0.18171472798E+02 -0.50355610016E+00 -0.13449592697E+02  0.22612994851E+02  0.00000000000E+00 0. -1.
        -14    1    4    4    0    0  0.49407954370E+02  0.96782187341E+02 -0.17020364978E+03  0.20193370233E+03  0.00000000000E+00 0.  1.
</event>
<event>
12    1  0.8421768E-002  0.1847905E+03  0.7818608E-02  0.1163529E+00
         21   -1    0    0  501  502  0.00000000000E+00  0.00000000000E+00  0.72743552528E+03  0.72743552528E+03  0.00000000000E+00 0.  1.
         21   -1    0    0  502  503 -0.00000000000E+00 -0.00000000000E+00 -0.63246177917E+02  0.63246177917E+02  0.00000000000E+00 0.  1.
         -6    2    1    2    0  503 -0.56965659412E+02 -0.31936040221E+02  0.12869526164E+03  0.22420008268E+03  0.17157566752E+03 0.  0.
        -24    2    3    3    0    0 -0.34266278485E+01  0.30082419737E+02  0.10867946180E+03  0.13972855186E+03  0.82438759275E+02 0.  0.
          6    2    1    2  501    0  0.56965659412E+02  0.31936040221E+02  0.53549408572E+03  0.56648162052E+03  0.17286559383E+03 0.  0.
         24    2    5    5    0    0  0.10462771732E+03  0.18359335277E+02  0.41519116068E+03  0.43628606585E+03  0.81717849515E+02 0.  0.
          5    1    5    5  501    0 -0.47662057911E+02  0.13576704944E+02  0.12030292504E+03  0.13019555467E+03  0.47000000000E+01 0. -1.
        -13    1    6    6    0    0  0.67801204093E+02  0.10438896069E+02  0.11625469921E+03  0.13498566189E+03  0.00000000000E+00 0.  1.
         14    1    6    6    0    0  0.36826513229E+02  0.79204392074E+01  0.29893646146E+03  0.30130040396E+03  0.00000000000E+00 0. -1.
         -5    1    3    3    0  503 -0.53539031563E+02 -0.62018459958E+02  0.20015799845E+02  0.84471530823E+02  0.47000000000E+01 0.  1.
         13    1    4    4    0    0  0.26656508697E+02 -0.90803463841E+01  0.74570829225E+02  0.79710919689E+02  0.00000000000E+00 0. -1.
        -14    1    4    4    0    0 -0.30083136546E+02  0.39162766121E+02  0.34108632575E+02  0.60017632166E+02  0.00000000000E+00 0.  1.
</event>
<event>
12    1  0.8421768E-002  0.1868481E+03  0.7818608E-02  0.1162447E+00
         21   -1    0    0  501  502  0.00000000000E+00  0.00000000000E+00  0.23598869823E+03  0.23598869823E+03  0.00000000000E+00 0.  1.
         21   -1    0    0  502  503 -0.00000000000E+00 -0.00000000000E+00 -0.22048634076E+03  0.22048634076E+03  0.00000000000E+00 0.  1.
         -6    2    1    2    0  503  0.44441085419E+02 -0.39469947074E+02 -0.12643013958E+03  0.22560313587E+03  0.17714205577E+03 0.  0.
        -24    2    3    3    0    0 -0.30585057694E+02  0.66478876471E+01 -0.24977573362E+02  0.91176613105E+02  0.81912486484E+02 0.  0.
          6    2    1    2  501    0 -0.44441085419E+02  0.39469947074E+02  0.14193249705E+03  0.23087190312E+03  0.17211657426E+03 0.  0.
         24    2    5    5    0    0  0.63415185770E+00  0.84536693235E+02  0.84583266189E+02  0.14500099474E+03  0.82000639668E+02 0.  0.
          5    1    5    5  501    0 -0.45075237277E+02 -0.45066746160E+02  0.57349230864E+02  0.85870908379E+02  0.47000000000E+01 0. -1.
        -13    1    6    6    0    0 -0.13470260064E+02  0.63326561437E+02  0.97033105643E+02  0.11664958157E+03  0.00000000000E+00 0.  1.
         14    1    6    6    0    0  0.14104411922E+02  0.21210131798E+02 -0.12449839454E+02  0.28351413174E+02  0.00000000000E+00 0. -1.
         -5    1    3    3    0  503  0.75026143113E+02 -0.46117834721E+02 -0.10145256621E+03  0.13442652276E+03  0.47000000000E+01 0.  1.
         11    1    4    4    0    0  0.23673282250E+02 -0.23808609292E+01  0.10198326699E+02  0.25886263900E+02  0.00000000000E+00 0. -1.
        -12    1    4    4    0    0 -0.54258339944E+02  0.90287485763E+01 -0.35175900061E+02  0.65290349206E+02  0.00000000000E+00 0.  1.
</event>
<event>
12    1  0.8421768E-002  0.1815520E+03  0.7818608E-02  0.1167105E+00
         21   -1    0    0  503  502  0.00000000000E+00  0.00000000000E+00  0.80686062206E+03  0.80686062206E+03  0.00000000000E+00 0.  1.
         21   -1    0    0  501  503 -0.00000000000E+00 -0.00000000000E+00 -0.49312229407E+02  0.49312229407E+02  0.00000000000E+00 0.  1.
          6    2    1    2  501    0 -0.47012904077E+02 -0.79606476972E+01  0.19106977186E+03  0.26131222726E+03  0.17176389999E+03 0.  0.
         24    2    3    3    0    0 -0.28981030477E+02  0.18001937262E+02  0.19068136784E+02  0.86366930810E+02  0.77017420266E+02 0.  0.
         -6    2    1    2    0  502  0.47012904077E+02  0.79606476972E+01  0.56647862080E+03  0.59486062420E+03  0.17517862126E+03 0.  0.
        -24    2    5    5    0    0  0.62867935115E+02  0.61193614852E+02  0.29401414341E+03  0.31675252968E+03  0.78681718145E+02 0.  0.
          5    1    3    3  501    0 -0.18031873600E+02 -0.25962584959E+02  0.17200163507E+03  0.17494529645E+03  0.47000000000E+01 0. -1.
        -13    1    4    4    0    0 -0.38504102135E+01  0.45614750154E+02  0.17466688743E+02  0.48996084599E+02  0.00000000000E+00 0.  1.
         14    1    4    4    0    0 -0.25130620263E+02 -0.27612812892E+02  0.16014480408E+01  0.37370846210E+02  0.00000000000E+00 0. -1.
         -5    1    5    5    0  502 -0.15855031037E+02 -0.53232967155E+02  0.27246447738E+03  0.27810809452E+03  0.47000000000E+01 0.  1.
         11    1    6    6    0    0  0.53282487669E+02  0.27983301624E+02  0.80779249331E+02  0.10073418379E+03  0.00000000000E+00 0. -1.
        -12    1    6    6    0    0  0.95854474454E+01  0.33210313228E+02  0.21323489408E+03  0.21601834589E+03  0.00000000000E+00 0.  1.
</event>
<event>
12    1  0.8421768E-002  0.2403260E+03  0.7818608E-02  0.1119935E+00
         21   -1    0    0  501  502  0.00000000000E+00  0.00000000000E+00  0.60074518880E+02  0.60074518880E+02  0.00000000000E+00 0. -1.
         21   -1    0    0  502  503 -0.00000000000E+00 -0.00000000000E+00 -0.10101007243E+04  0.10101007243E+04  0.00000000000E+00 0.  1.
         -6    2    1    2    0  503 -0.24041771856E+02  0.16480465132E+03 -0.60443848572E+03  0.65046325751E+03  0.17325699541E+03 0.  0.
        -24    2    3    3    0    0  0.36075238502E+02  0.61248182024E+02 -0.39239415491E+03  0.40690035907E+03  0.80882425587E+02 0.  0.
          6    2    1    2  501    0  0.24041771856E+02 -0.16480465132E+03 -0.34558771969E+03  0.41971198566E+03  0.17026067960E+03 0.  0.
         24    2    5    5    0    0  0.64089595809E+02 -0.16839714018E+03 -0.29668795266E+03  0.35622961492E+03  0.80066998073E+02 0.  0.
          5    1    5    5  501    0 -0.40047823953E+02  0.35924888604E+01 -0.48899767028E+02  0.63482370742E+02  0.47000000000E+01 0. -1.
        -11    1    6    6    0    0  0.48818780214E+02 -0.93118483535E+02 -0.10010729979E+03  0.14517505553E+03  0.00000000000E+00 0.  1.
         12    1    6    6    0    0  0.15270815595E+02 -0.75278656644E+02 -0.19658065287E+03  0.21105455939E+03  0.00000000000E+00 0. -1.
         -5    1    3    3    0  503 -0.60117010358E+02  0.10355646929E+03 -0.21204433082E+03  0.24356289845E+03  0.47000000000E+01 0.  1.
         11    1    4    4    0    0  0.32621130474E+02  0.20351467956E+02 -0.55510409117E+02  0.67525742660E+02  0.00000000000E+00 0. -1.
        -12    1    4    4    0    0  0.34541080283E+01  0.40896714068E+02 -0.33688374579E+03  0.33937461641E+03  0.00000000000E+00 0.  1.
</event>
<event>
12    1  0.8421768E-002  0.1778421E+03  0.7818608E-02  0.1170070E+00
         21   -1    0    0  503  502  0.00000000000E+00  0.00000000000E+00  0.41981858385E+02  0.41981858385E+02  0.00000000000E+00 0. -1.
         21   -1    0    0  501  503 -0.00000000000E+00 -0.00000000000E+00 -0.75058357944E+03  0.75058357944E+03  0.00000000000E+00 0. -1.
          6    2    1    2  501    0  0.43629676973E+01 -0.43019566046E+02 -0.35263080769E+03  0.39464196668E+03  0.17182571631E+03 0.  0.
         24    2    3    3    0    0  0.54381166355E+02  0.15765442200E+01 -0.24179257842E+03  0.26503549958E+03  0.93916815920E+02 0.  0.
         -6    2    1    2    0  502 -0.43629676973E+01  0.43019566046E+02 -0.35597091337E+03  0.39792347114E+03  0.17250530187E+03 0.  0.
        -24    2    5    5    0    0  0.40024882723E+02  0.17875366383E+02 -0.17367942261E+03  0.20856986108E+03  0.10684252502E+03 0.  0.
          5    1    3    3  501    0 -0.50018198658E+02 -0.44596110266E+02 -0.11083822927E+03  0.12960646710E+03  0.47000000000E+01 0. -1.
        -13    1    4    4    0    0  0.59191172707E+02  0.25620540305E+02 -0.86933330716E+02  0.10824699073E+03  0.00000000000E+00 0.  1.
         14    1    4    4    0    0 -0.48100063523E+01 -0.24043996085E+02 -0.15485924770E+03  0.15678850885E+03  0.00000000000E+00 0. -1.
         -5    1    5    5    0  502 -0.44387850420E+02  0.25144199662E+02 -0.18229149076E+03  0.18935361006E+03  0.47000000000E+01 0.  1.
         13    1    6    6    0    0  0.66512857732E+02 -0.19217089318E+02 -0.11552436979E+03  0.13468161263E+03  0.00000000000E+00 0. -1.
        -14    1    6    6    0    0 -0.26487975009E+02  0.37092455701E+02 -0.58155052821E+02  0.73888248448E+02  0.00000000000E+00 0.  1.
</event>
<event>
12    1  0.8421768E-002  0.2059044E+03  0.7818608E-02  0.1145159E+00
         21   -1    0    0  503  502  0.00000000000E+00  0.00000000000E+00  0.16885405917E+03  0.16885405917E+03  0.00000000000E+00 0.  1.
         21   -1    0    0  501  503 -0.00000000000E+00 -0.00000000000E+00 -0.26559858670E+03  0.26559858670E+03  0.00000000000E+00 0. -1.
          6    2    1    2  501    0 -0.20904353818E+02  0.10720977637E+03  0.53595907672E+01  0.20597416865E+03  0.17454427742E+03 0.  0.
         24    2    3    3    0    0 -0.35984207435E+02  0.12609433134E+03  0.44139548521E+02  0.16003939397E+03  0.80434223426E+02 0.  0.
         -6    2    1    2    0  502  0.20904353818E+02 -0.10720977637E+03 -0.10210411830E+03  0.22847847722E+03  0.17276063041E+03 0.  0.
        -24    2    5    5    0    0  0.45894136982E+02 -0.25732637122E+02 -0.10198345343E+01  0.96179059579E+02  0.80504229804E+02 0.  0.
          5    1    3    3  501    0  0.15079853617E+02 -0.18884554968E+02 -0.38779957753E+02  0.45934774679E+02  0.47000000000E+01 0. -1.
        -11    1    4    4    0    0  0.24880980807E+02  0.53701602948E+02  0.14694683185E+02  0.60982448942E+02  0.00000000000E+00 0.  1.
         12    1    4    4    0    0 -0.60865188242E+02  0.72392728394E+02  0.29444865336E+02  0.99056945030E+02  0.00000000000E+00 0. -1.
         -5    1    5    5    0  502 -0.24989783164E+02 -0.81477139252E+02 -0.10108428377E+03  0.13229941764E+03  0.47000000000E+01 0.  1.
         13    1    6    6    0    0 -0.76667957783E+01 -0.34777330092E+02  0.16299939830E+02  0.39165424603E+02  0.00000000000E+00 0. -1.
        -14    1    6    6    0    0  0.53560932761E+02  0.90446929699E+01 -0.17319774365E+02  0.57013634976E+02  0.00000000000E+00 0.  1.
</event>
<event>
12    1  0.8421768E-002  0.1746682E+03  0.7818608E-02  0.1173332E+00
         21   -1    0    0  503  502  0.00000000000E+00  0.00000000000E+00  0.45423148076E+03  0.45423148076E+03  0.00000000000E+00 0.  1.
         21   -1    0    0  501  503 -0.00000000000E+00 -0.00000000000E+00 -0.27544239149E+03  0.27544239149E+03  0.00000000000E+00 0.  1.
          6    2    1    2  501    0  0.28410625936E+02  0.99975672626E+01 -0.22823114407E+03  0.28675800629E+03  0.17097831451E+03 0.  0.
         24    2    3    3    0    0  0.35894442457E+02 -0.19223747559E+02 -0.42550865115E+02  0.98584818136E+02  0.79059640623E+02 0.  0.
         -6    2    1    2    0  502 -0.28410625936E+02 -0.99975672626E+01  0.40702023334E+03  0.44291586596E+03  0.17205196587E+03 0.  0.
        -24    2    5    5    0    0 -0.32272650839E+02 -0.38860554748E+02  0.13773971036E+03  0.17202460117E+03  0.89825213011E+02 0.  0.
          5    1    3    3  501    0 -0.74838165218E+01  0.29221314822E+02 -0.18568027895E+03  0.18817318816E+03  0.47000000000E+01 0. -1.
        -11    1    4    4    0    0  0.40543020801E+01 -0.44675256199E+02 -0.35523861216E+02  0.57221155157E+02  0.00000000000E+00 0.  1.
         12    1    4    4    0    0  0.31840140377E+02  0.25451508640E+02 -0.70270038990E+01  0.41363662980E+02  0.00000000000E+00 0. -1.
         -5    1    5    5    0  502  0.38620249035E+01  0.28862987485E+02  0.26928052298E+03  0.27089126479E+03  0.47000000000E+01 0.  1.
         11    1    6    6    0    0 -0.18502230014E+02  0.80288240490E+01 -0.53109868546E+01  0.20856680284E+02  0.00000000000E+00 0. -1.
        -12    1    6    6    0    0 -0.13770420825E+02 -0.46889378797E+02  0.14305069721E+03  0.15116792089E+03  0.00000000000E+00 0.  1.
</event>
<event>
12    1  0.8421768E-002  0.1989390E+03  0.7818608E-02  0.1152271E+00
         21   -1    0    0  503  502  0.00000000000E+00  0.00000000000E+00  0.19132280026E+03  0.19132280026E+03  0.00000000000E+00 0.  1.
         21   -1    0    0  501  503 -0.00000000000E+00 -0.00000000000E+00 -0.22272836639E+03  0.22272836639E+03  0.00000000000E+00 0.  1.
          6    2    1    2  501    0 -0.46041693571E+02 -0.85718822791E+02  0.51450859162E+02  0.20548455538E+03  0.17351990509E+03 0.  0.
         24    2    3    3    0    0 -0.13061837106E+02 -0.97563750396E+02  0.87918643592E+02  0.15469122369E+03  0.80686986659E+02 0.  0.
         -6    2    1    2    0  502  0.46041693571E+02  0.85718822791E+02 -0.82856425292E+02  0.20856661128E+03  0.16482502844E+03 0.  0.
        -24    2    5    5    0    0  0.54127006816E+02  0.80040887547E+02 -0.34241298414E+01  0.12838437634E+03  0.84466246972E+02 0.  0.
          5    1    3    3  501    0 -0.32979856464E+02  0.11844927605E+02 -0.36467784430E+02  0.50793331684E+02  0.47000000000E+01 0. -1.
        -11    1    4    4    0    0 -0.39551643344E+02 -0.34000388050E+02  0.14724887914E+02  0.54195767389E+02  0.00000000000E+00 0.  1.
         12    1    4    4    0    0  0.26489806238E+02 -0.63563362347E+02  0.73193755678E+02  0.10049545630E+03  0.00000000000E+00 0. -1.
         -5    1    5    5    0  502 -0.80853132459E+01  0.56779352444E+01 -0.79432295450E+02  0.80182234937E+02  0.47000000000E+01 0.  1.
         11    1    6    6    0    0  0.38620996253E+02 -0.59075837073E+01 -0.11360976876E+02  0.40688483535E+02  0.00000000000E+00 0. -1.
        -12    1    6    6    0    0  0.15506010564E+02  0.85948471254E+02  0.79368470344E+01  0.87695892808E+02  0.00000000000E+00 0.  1.
</event>
<event>
12    1  0.8421768E-002  0.2280072E+03  0.7818608E-02  0.1128289E+00
         21   -1    0    0  501  502  0.00000000000E+00  0.00000000000E+00  0.56297194926E+02  0.56297194926E+02  0.00000000000E+00 0.  1.
         21   -1    0    0  502  503 -0.00000000000E+00 -0.00000000000E+00 -0.10141049437E+04  0.10141049437E+04  0.00000000000E+00 0. -1.
         -6    2    1    2    0  503 -0.69051995466E+02 -0.13287577019E+03 -0.64235786385E+03  0.68117737494E+03  0.17016122501E+03 0.  0.
        -24    2    3    3    0    0 -0.54721178902E+02 -0.88593511541E+01 -0.34613812291E+03  0.35969071982E+03  0.80578646512E+02 0.  0.
          6    2    1    2  501    0  0.69051995466E+02  0.13287577019E+03 -0.31544988488E+03  0.38922476364E+03  0.17193934506E+03 0.  0.
         24    2    5    5    0    0 -0.24518970205E+02  0.40790815297E+02 -0.16458767754E+03  0.18918311763E+03  0.80225169908E+02 0.  0.
          5    1    5    5  501    0  0.93570965671E+02  0.92084954894E+02 -0.15086220734E+03  0.20004164601E+03  0.47000000000E+01 0. -1.
        -11    1    6    6    0    0  0.78190758302E+00  0.44587867979E+02 -0.33905933616E+02  0.56020546987E+02  0.00000000000E+00 0.  1.
         12    1    6    6    0    0 -0.25300877788E+02 -0.37970526821E+01 -0.13068174392E+03  0.13316257065E+03  0.00000000000E+00 0. -1.
         -5    1    3    3    0  503 -0.14330816563E+02 -0.12401641904E+03 -0.29621974094E+03  0.32148665512E+03  0.47000000000E+01 0.  1.
         11    1    4    4    0    0 -0.58388017991E+02 -0.39593702478E+01 -0.34831343008E+03  0.35319553060E+03  0.00000000000E+00 0. -1.
        -12    1    4    4    0    0  0.36668390884E+01 -0.48999809063E+01  0.21753071749E+01  0.64951892265E+01  0.00000000000E+00 0.  1.
</event>
<event>
12    1  0.8421768E-002  0.2217011E+03  0.7818608E-02  0.1132678E+00
         21   -1    0    0  501  502  0.00000000000E+00  0.00000000000E+00  0.23424308261E+03  0.23424308261E+03  0.00000000000E+00 0.  1.
         21   -1    0    0  502  503 -0.00000000000E+00 -0.00000000000E+00 -0.20988406893E+03  0.20988406893E+03  0.00000000000E+00 0.  1.
         -6    2    1    2    0  503  0.62902940605E+02  0.12514033737E+03  0.21182427496E+02  0.22240333152E+03  0.17145746605E+03 0.  0.
        -24    2    3    3    0    0  0.94926703465E+02  0.89466860417E+02 -0.23803701773E+02  0.15649460545E+03  0.83117670643E+02 0.  0.
          6    2    1    2  501    0 -0.62902940605E+02 -0.12514033737E+03  0.31765861775E+01  0.22172382002E+03  0.17185597951E+03 0.  0.
         24    2    5    5    0    0 -0.38888388448E+02 -0.15436362258E+03 -0.17375619800E+02  0.17842044504E+03  0.78686137997E+02 0.  0.
          5    1    5    5  501    0 -0.24014552158E+02  0.29223285214E+02  0.20552205978E+02  0.43303374980E+02  0.47000000000E+01 0. -1.
        -13    1    6    6    0    0 -0.43606666000E+02 -0.96593511357E+02 -0.43855342033E+02  0.11469585337E+03  0.00000000000E+00 0.  1.
         14    1    6    6    0    0  0.47182775527E+01 -0.57770111224E+02  0.26479722232E+02  0.63724591669E+02  0.00000000000E+00 0. -1.
         -5    1    3    3    0  503 -0.32023762860E+02  0.35673476949E+02  0.44986129269E+02  0.65908726068E+02  0.47000000000E+01 0.  1.
         13    1    4    4    0    0  0.24419462451E+02 -0.66929493052E+01 -0.27260439071E+02  0.37205339068E+02  0.00000000000E+00 0. -1.
        -14    1    4    4    0    0  0.70507241014E+02  0.96159809723E+02  0.34567372980E+01  0.11928926638E+03  0.00000000000E+00 0.  1.
</event>
<event>
12    1  0.8421768E-002  0.1896327E+03  0.7818608E-02  0.1159739E+00
         21   -1    0    0  503  502  0.00000000000E+00  0.00000000000E+00  0.57247942213E+02  0.57247942213E+02  0.00000000000E+00 0. -1.
         21   -1    0    0  501  503 -0.00000000000E+00 -0.00000000000E+00 -0.19784145458E+04  0.19784145458E+04  0.00000000000E+00 0. -1.
          6    2    1    2  501    0 -0.58306705586E+02  0.53219814327E+02 -0.18089506718E+04  0.18188631358E+04  0.17241970036E+03 0.  0.
         24    2    3    3    0    0 -0.19551759150E+00  0.89602669507E+02 -0.10550020574E+04  0.10617890143E+04  0.79610885140E+02 0.  0.
         -6    2    1    2    0  502  0.58306705586E+02 -0.53219814327E+02 -0.11221593180E+03  0.21679935226E+03  0.16786161931E+03 0.  0.
        -24    2    5    5    0    0  0.72835590658E+02  0.11924801337E+02 -0.26227786991E+02  0.10784541475E+03  0.74131724109E+02 0.  0.
          5    1    3    3  501    0 -0.58111187995E+02 -0.36382855180E+02 -0.75394861441E+03  0.75707412153E+03  0.47000000000E+01 0. -1.
        -11    1    4    4    0    0  0.84584514727E+01  0.99955725385E+02 -0.77543379122E+03  0.78189529798E+03  0.00000000000E+00 0.  1.
         12    1    4    4    0    0 -0.86539690642E+01 -0.10353055877E+02 -0.27956826620E+03  0.27989371628E+03  0.00000000000E+00 0. -1.
         -5    1    5    5    0  502 -0.14528885071E+02 -0.65144615665E+02 -0.85988144809E+02  0.10895393751E+03  0.47000000000E+01 0.  1.
         13    1    6    6    0    0  0.29664356405E+02 -0.64925376928E+01  0.24292041599E+02  0.38887406338E+02  0.00000000000E+00 0. -1.
        -14    1    6    6    0    0  0.43171234253E+02  0.18417339030E+02 -0.50519828590E+02  0.68958008415E+02  0.00000000000E+00 0.  1.
</event>
<event>
12    1  0.8421768E-002  0.1810584E+03  0.7818608E-02  0.1166948E+00
         21   -1    0    0  503  502  0.00000000000E+00  0.00000000000E+00  0.25032750572E+03  0.25032750572E+03  0.00000000000E+00 0. -1.
         21   -1    0    0  501  503 -0.00000000000E+00 -0.00000000000E+00 -0.21610026696E+03  0.21610026696E+03  0.00000000000E+00 0. -1.
          6    2    1    2  501    0  0.45558556536E+02 -0.33149046879E+02 -0.12971786534E+03  0.22217352788E+03  0.17134733881E+03 0.  0.
         24    2    3    3    0    0 -0.51270214944E+01  0.25928658817E+02 -0.11689285102E+03  0.14314331769E+03  0.78278279759E+02 0.  0.
         -6    2    1    2    0  502 -0.45558556536E+02  0.33149046879E+02  0.16394510410E+03  0.24425424480E+03  0.17206887448E+03 0.  0.
        -24    2    5    5    0    0  0.26036462956E+02  0.56300199917E+02  0.11956450893E+03  0.15676967513E+03  0.80208785876E+02 0.  0.
          5    1    3    3  501    0  0.50685578031E+02 -0.59077705695E+02 -0.12825014324E+02  0.79030210192E+02  0.47000000000E+01 0. -1.
        -13    1    4    4    0    0  0.18483558521E+02  0.37113656683E+02 -0.26872566679E+02  0.49408504206E+02  0.00000000000E+00 0.  1.
         14    1    4    4    0    0 -0.23610580015E+02 -0.11184997866E+02 -0.90020284340E+02  0.93734813482E+02  0.00000000000E+00 0. -1.
         -5    1    5    5    0  502 -0.71595019492E+02 -0.23151153038E+02  0.44380595171E+02  0.87484569672E+02  0.47000000000E+01 0.  1.
         11    1    6    6    0    0  0.37331837116E+02  0.28769228989E+02  0.11789278680E+03  0.12696473439E+03  0.00000000000E+00 0. -1.
        -12    1    6    6    0    0 -0.11295374160E+02  0.27530970927E+02  0.16717221256E+01  0.29804940740E+02  0.00000000000E+00 0.  1.
</event>
<event>
12    1  0.8421768E-002  0.2571599E+03  0.7818608E-02  0.1109085E+00
         21   -1    0    0  503  502  0.00000000000E+00  0.00000000000E+00  0.17789707019E+04  0.17789707019E+04  0.00000000000E+00 0.  1.
         21   -1    0    0  501  503 -0.00000000000E+00 -0.00000000000E+00 -0.69125931923E+02  0.69125931923E+02  0.00000000000E+00 0. -1.
          6    2    1    2  501    0 -0.46208006697E+01 -0.19093395958E+03  0.22331953654E+03  0.33949181394E+03  0.17001749207E+03 0.  0.
         24    2    3    3    0    0  0.56838918553E+02 -0.88593736330E+02  0.86434691119E+02  0.15780425441E+03  0.79697641757E+02 0.  0.
         -6    2    1    2    0  502  0.46208006697E+01  0.19093395958E+03  0.14865252334E+04  0.15086048199E+04  0.17220367075E+03 0.  0.
        -24    2    5    5    0    0  0.25451646588E+02  0.31093473852E+02  0.40834207616E+03  0.41842872601E+03  0.82004616694E+02 0.  0.
          5    1    3    3  501    0 -0.61459719222E+02 -0.10234022325E+03  0.13688484542E+03  0.18168755953E+03  0.47000000000E+01 0. -1.
        -11    1    4    4    0    0  0.53320071103E+02 -0.62352246305E+02  0.98934323488E+02  0.12852561210E+03  0.00000000000E+00 0.  1.
         12    1    4    4    0    0  0.35188474502E+01 -0.26241490025E+02 -0.12499632369E+02  0.29278642309E+02  0.00000000000E+00 0. -1.
         -5    1    5    5    0  502 -0.20830845919E+02  0.15984048573E+03  0.10781831573E+04  0.10901760939E+04  0.47000000000E+01 0.  1.
         11    1    6    6    0    0  0.28848387729E+02  0.36559723364E+02  0.10322942841E+03  0.11324821295E+03  0.00000000000E+00 0. -1.
        -12    1    6    6    0    0 -0.33967411410E+01 -0.54662495125E+01  0.30511264775E+03  0.30518051306E+03  0.00000000000E+00 0.  1.
</event>
<event>
12    1  0.8421768E-002  0.2778258E+03  0.7818608E-02  0.1097224E+00
         21   -1    0    0  501  502  0.00000000000E+00  0.00000000000E+00  0.35526929412E+03  0.35526929412E+03  0.00000000000E+00 0. -1.
         21   -1    0    0  502  503 -0.00000000000E+00 -0.00000000000E+00 -0.21776640608E+03  0.21776640608E+03  0.00000000000E+00 0. -1.
         -6    2    1    2    0  503 -0.20008931542E+03  0.80942349126E+02  0.38217664405E+02  0.27800227340E+03  0.17098911111E+03 0.  0.
        -24    2    3    3    0    0 -0.19067594842E+03  0.66943742186E+02  0.81613480740E+02  0.23120634035E+03  0.77180500514E+02 0.  0.
          6    2    1    2  501    0  0.20008931542E+03 -0.80942349126E+02  0.99285223635E+02  0.29503342680E+03  0.17492789734E+03 0.  0.
         24    2    5    5    0    0  0.16431019006E+03 -0.11180440722E+03  0.11432977697E+03  0.24522337734E+03  0.86977829704E+02 0.  0.
          5    1    5    5  501    0  0.35779125365E+02  0.30862058099E+02 -0.15044553338E+02  0.49810049459E+02  0.47000000000E+01 0. -1.
        -13    1    6    6    0    0  0.45843873259E+02 -0.82993891114E+02  0.55348966301E+02  0.10978686055E+03  0.00000000000E+00 0.  1.
         14    1    6    6    0    0  0.11846631680E+03 -0.28810516110E+02  0.58980810671E+02  0.13543651679E+03  0.00000000000E+00 0. -1.
         -5    1    3    3    0  503 -0.94133670061E+01  0.13998606939E+02 -0.43395816335E+02  0.46795933050E+02  0.47000000000E+01 0.  1.
         13    1    4    4    0    0 -0.13044821270E+03  0.77623102298E+02  0.39209675379E+02  0.15677844510E+03  0.00000000000E+00 0. -1.
        -14    1    4    4    0    0 -0.60227735720E+02 -0.10679360112E+02  0.42403805361E+02  0.74427895251E+02  0.00000000000E+00 0.  1.
</event>
<event>
12    1  0.8421768E-002  0.3273379E+03  0.7818608E-02  0.1072364E+00
         21   -1    0    0  501  502  0.00000000000E+00  0.00000000000E+00  0.54868914755E+03  0.54868914755E+03  0.00000000000E+00 0. -1.
         21   -1    0    0  502  503 -0.00000000000E+00 -0.00000000000E+00 -0.21492446650E+03  0.21492446650E+03  0.00000000000E+00 0.  1.
         -6    2    1    2    0  503  0.11319915513E+01  0.27821781841E+03  0.50699058817E+02  0.33085936335E+03  0.17172969418E+03 0.  0.
        -24    2    3    3    0    0 -0.57231953035E+02  0.19197385390E+03  0.66943047681E+02  0.22535899076E+03  0.78586551356E+02 0.  0.
          6    2    1    2  501    0 -0.11319915513E+01 -0.27821781841E+03  0.28306562223E+03  0.43275425070E+03  0.17246350083E+03 0.  0.
         24    2    5    5    0    0  0.15065455835E+02 -0.28835831885E+03  0.23682352268E+03  0.38249881494E+03  0.82719251279E+02 0.  0.
          5    1    5    5  501    0 -0.16197447386E+02  0.10140500440E+02  0.46242099559E+02  0.50255435752E+02  0.47000000000E+01 0. -1.
        -13    1    6    6    0    0 -0.20451867507E+02 -0.29669398352E+02  0.49109250025E+02  0.60911989962E+02  0.00000000000E+00 0.  1.
         14    1    6    6    0    0  0.35517323342E+02 -0.25868892050E+03  0.18771427265E+03  0.32158682498E+03  0.00000000000E+00 0. -1.
         -5    1    3    3    0  503  0.58363944586E+02  0.86243964513E+02 -0.16243988863E+02  0.10550037259E+03  0.47000000000E+01 0.  1.
         11    1    4    4    0    0 -0.31819892669E+02  0.13212521319E+02  0.74362845404E+01  0.35247334890E+02  0.00000000000E+00 0. -1.
        -12    1    4    4    0    0 -0.25412060366E+02  0.17876133258E+03  0.59506763140E+02  0.19011165587E+03  0.00000000000E+00 0.  1.
</event>
<event>
12    1  0.8421768E-002  0.2305749E+03  0.7818608E-02  0.1126378E+00
         21   -1    0    0  503  502  0.00000000000E+00  0.00000000000E+00  0.19906071128E+04  0.19906071128E+04  0.00000000000E+00 0. -1.
         21   -1    0    0  501  503 -0.00000000000E+00 -0.00000000000E+00 -0.26678121726E+02  0.26678121726E+02  0.00000000000E+00 0. -1.
          6    2    1    2  501    0  0.12216210721E+03  0.93120667755E+02  0.93094154928E+03  0.95887706801E+03  0.17087429351E+03 0.  0.
         24    2    3    3    0    0  0.35998432749E+02  0.10932858559E+03  0.51610907064E+03  0.53485472104E+03  0.80326664526E+02 0.  0.
         -6    2    1    2    0  502 -0.12216210721E+03 -0.93120667755E+02  0.10329874418E+04  0.10584081665E+04  0.17195857884E+03 0.  0.
        -24    2    5    5    0    0 -0.13914240975E+03 -0.11752292879E+03  0.93490899769E+03  0.95581541718E+03  0.79724706173E+02 0.  0.
          5    1    3    3  501    0  0.86163674466E+02 -0.16207917835E+02  0.41483247864E+03  0.42402234697E+03  0.47000000000E+01 0. -1.
        -13    1    4    4    0    0 -0.25344617526E+02  0.21536278352E+02  0.12316584026E+03  0.12757736919E+03  0.00000000000E+00 0.  1.
         14    1    4    4    0    0  0.61343050274E+02  0.87792307238E+02  0.39294323038E+03  0.40727735185E+03  0.00000000000E+00 0. -1.
         -5    1    5    5    0  502  0.16980302537E+02  0.24402261038E+02  0.98078444134E+02  0.10259274936E+03  0.47000000000E+01 0.  1.
         11    1    6    6    0    0 -0.14210241151E+03 -0.92841346798E+02  0.86791910971E+03  0.88436202544E+03  0.00000000000E+00 0. -1.
        -12    1    6    6    0    0  0.29600017615E+01 -0.24681581995E+02  0.66989887976E+02  0.71453391740E+02  0.00000000000E+00 0.  1.
</event>
<event>
12    1  0.8421768E-002  0.3028911E+03  0.7818608E-02  0.1083966E+00
         21   -1    0    0  503  502  0.00000000000E+00  0.00000000000E+00  0.39157801456E+03  0.39157801456E+03  0.00000000000E+00 0. -1.
         21   -1    0    0  501  503 -0.00000000000E+00 -0.00000000000E+00 -0.58181548595E+03  0.58181548595E+03  0.00000000000E+00 0. -1.
          6    2    1    2  501    0 -0.10950749382E+02  0.24775029271E+03 -0.47189610757E+03  0.56073963142E+03  0.17390477698E+03 0.  0.
         24    2    3    3    0    0  0.40896699173E+02  0.23006219981E+03 -0.37171708682E+03  0.44646385642E+03  0.80964354361E+02 0.  0.
         -6    2    1    2    0  502  0.10950749382E+02 -0.24775029271E+03  0.28165863619E+03  0.41265386909E+03  0.17161439882E+03 0.  0.
        -24    2    5    5    0    0  0.54674110305E+02 -0.10992024222E+03  0.19693715492E+03  0.24499745108E+03  0.78535279102E+02 0.  0.
          5    1    3    3  501    0 -0.51847448555E+02  0.17688092903E+02 -0.10017902076E+03  0.11427577500E+03  0.47000000000E+01 0. -1.
        -13    1    4    4    0    0  0.37931897015E+02  0.35358648583E+02 -0.64940482306E+02  0.83104326499E+02  0.00000000000E+00 0.  1.
         14    1    4    4    0    0  0.29648021579E+01  0.19470355122E+03 -0.30677660451E+03  0.36335952992E+03  0.00000000000E+00 0. -1.
         -5    1    5    5    0  502 -0.43723360923E+02 -0.13783005049E+03  0.84721481274E+02  0.16765641800E+03  0.47000000000E+01 0.  1.
         13    1    6    6    0    0  0.32095286858E+02 -0.31429989339E+02  0.13562682823E+03  0.14287262930E+03  0.00000000000E+00 0. -1.
        -14    1    6    6    0    0  0.22578823447E+02 -0.78490252880E+02  0.61310326689E+02  0.10212482178E+03  0.00000000000E+00 0.  1.
</event>
<event>
12    1  0.8421768E-002  0.2155691E+03  0.7818608E-02  0.1137354E+00
         21   -1    0    0  501  502  0.00000000000E+00  0.00000000000E+00  0.43463555957E+02  0.43463555957E+02  0.00000000000E+00 0.  1.
         21   -1    0    0  502  503 -0.00000000000E+00 -0.00000000000E+00 -0.14558864852E+04  0.14558864852E+04  0.00000000000E+00 0.  1.
         -6    2    1    2    0  503 -0.43066099107E+02  0.12254196481E+03 -0.10934015099E+04  0.11143244494E+04  0.17123345117E+03 0.  0.
        -24    2    3    3    0    0 -0.76554559114E+02  0.13367497845E+03 -0.98613722232E+03  0.10013061397E+04  0.80110946977E+02 0.  0.
          6    2    1    2  501    0  0.43066099107E+02 -0.12254196481E+03 -0.31902141943E+03  0.38502559177E+03  0.17204307087E+03 0.  0.
         24    2    5    5    0    0  0.69349979237E+02 -0.57591716218E+02 -0.10077694085E+03  0.15576129107E+03  0.77326338282E+02 0.  0.
          5    1    5    5  501    0 -0.26283880130E+02 -0.64950248594E+02 -0.21824447857E+03  0.22926430070E+03  0.47000000000E+01 0. -1.
        -11    1    6    6    0    0  0.29286180834E+02 -0.66994620440E+02 -0.42987892849E+02  0.84816970515E+02  0.00000000000E+00 0.  1.
         12    1    6    6    0    0  0.40063798403E+02  0.94029042218E+01 -0.57789048006E+02  0.70944320560E+02  0.00000000000E+00 0. -1.
         -5    1    3    3    0  503  0.33488460007E+02 -0.11133013641E+02 -0.10726428754E+03  0.11301830970E+03  0.47000000000E+01 0.  1.
         13    1    4    4    0    0  0.36212510920E+01  0.71147956121E+02 -0.36231114492E+03  0.36924857596E+03  0.00000000000E+00 0. -1.
        -14    1    4    4    0    0 -0.80175810206E+02  0.62527022332E+02 -0.62382607740E+03  0.63205756376E+03  0.00000000000E+00 0.  1.
</event>
<event>
12    1  0.8421768E-002  0.1832513E+03  0.7818608E-02  0.1165611E+00
         21   -1    0    0  501  502  0.00000000000E+00  0.00000000000E+00  0.23943542936E+03  0.23943542936E+03  0.00000000000E+00 0. -1.
         21   -1    0    0  502  503 -0.00000000000E+00 -0.00000000000E+00 -0.13834168799E+03  0.13834168799E+03  0.00000000000E+00 0. -1.
         -6    2    1    2    0  503  0.89956195903E+01  0.53525419233E+02  0.67257852133E+02  0.19520416080E+03  0.17502900915E+03 0.  0.
        -24    2    3    3    0    0 -0.57796269191E+02  0.17016880214E+02  0.11518919258E+02  0.10074280115E+03  0.79915227200E+02 0.  0.
          6    2    1    2  501    0 -0.89956195903E+01 -0.53525419233E+02  0.33835889239E+02  0.18257295655E+03  0.17100329058E+03 0.  0.
         24    2    5    5    0    0 -0.13562628465E+02  0.35431382904E+02  0.19790785352E+01  0.87856977939E+02  0.79218710134E+02 0.  0.
          5    1    5    5  501    0  0.45670088749E+01 -0.88956802136E+02  0.31856810704E+02  0.94715978613E+02  0.47000000000E+01 0. -1.
        -11    1    6    6    0    0 -0.42447947980E+02  0.10177115013E+02 -0.14644691986E+02  0.46042034719E+02  0.00000000000E+00 0.  1.
         12    1    6    6    0    0  0.28885319515E+02  0.25254267890E+02  0.16623770521E+02  0.41814943220E+02  0.00000000000E+00 0. -1.
         -5    1    3    3    0  503  0.66791888781E+02  0.36508539019E+02  0.55738932875E+02  0.94461359647E+02  0.47000000000E+01 0.  1.
         11    1    4    4    0    0 -0.28417307749E+02  0.41223626621E+02 -0.17325425586E+02  0.52982083229E+02  0.00000000000E+00 0. -1.
        -12    1    4    4    0    0 -0.29378961442E+02 -0.24206746407E+02  0.28844344844E+02  0.47760717923E+02  0.00000000000E+00 0.  1.
</event>
<event>
12    1  0.8421768E-002  0.1897945E+03  0.7818608E-02  0.1160650E+00
         21   -1    0    0  501  502  0.00000000000E+00  0.00000000000E+00  0.16054397647E+03  0.16054397647E+03  0.00000000000E+00 0. -1.
         21   -1    0    0  502  503 -0.00000000000E+00 -0.00000000000E+00 -0.21767355302E+03  0.21767355302E+03  0.00000000000E+00 0.  1.
         -6    2    1    2    0  503 -0.16126279858E+02 -0.78269842819E+02 -0.55485527108E+01  0.18987556090E+03  0.17215027445E+03 0.  0.
        -24    2    3    3    0    0 -0.49928202616E+02 -0.40362457634E+01  0.32760730802E+02  0.99637608144E+02  0.79657207945E+02 0.  0.
          6    2    1    2  501    0  0.16126279858E+02  0.78269842819E+02 -0.51581023846E+02  0.18834196860E+03  0.16256035777E+03 0.  0.
         24    2    5    5    0    0 -0.51842397329E+01  0.44063408659E+02  0.30442972927E+02  0.96831070723E+02  0.80504790743E+02 0.  0.
          5    1    5    5  501    0  0.21310519591E+02  0.34206434159E+02 -0.82023996772E+02  0.91510897873E+02  0.47000000000E+01 0. -1.
        -11    1    6    6    0    0 -0.76703474650E+01 -0.16768020348E+01 -0.24249870333E+02  0.25489254726E+02  0.00000000000E+00 0.  1.
         12    1    6    6    0    0  0.24861077321E+01  0.45740210694E+02  0.54692843260E+02  0.71341815998E+02  0.00000000000E+00 0. -1.
         -5    1    3    3    0  503  0.33801922758E+02 -0.74233597055E+02 -0.38309283513E+02  0.90237952753E+02  0.47000000000E+01 0.  1.
         11    1    4    4    0    0  0.49807215564E+01 -0.31397739528E+02  0.45523929762E+01  0.32114637107E+02  0.00000000000E+00 0. -1.
        -12    1    4    4    0    0 -0.54908924172E+02  0.27361493765E+02  0.28208337826E+02  0.67522971037E+02  0.00000000000E+00 0.  1.
</event>
<event>
12    1  0.8421768E-002  0.2395841E+03  0.7818608E-02  0.1120292E+00
         21   -1    0    0  501  502  0.00000000000E+00  0.00000000000E+00  0.72328200928E+02  0.72328200928E+02  0.00000000000E+00 0. -1.
         21   -1    0    0  502  503 -0.00000000000E+00 -0.00000000000E+00 -0.10137955089E+04  0.10137955089E+04  0.00000000000E+00 0. -1.
         -6    2    1    2    0  503  0.16487743487E+03 -0.13252335119E+02 -0.72734737458E+03  0.76579028820E+03  0.17332157763E+03 0.  0.
        -24    2    3    3    0    0  0.61905421236E+02  0.19374763936E+02 -0.54632248920E+03  0.55493521401E+03  0.72644111133E+02 0.  0.
          6    2    1    2  501    0 -0.16487743487E+03  0.13252335119E+02 -0.21411993336E+03  0.32033342160E+03  0.17148166729E+03 0.  0.
         24    2    5    5    0    0 -0.12234753580E+03  0.59104004482E+02 -0.19150871950E+03  0.25366615160E+03  0.95962096469E+02 0.  0.
          5    1    5    5  501    0 -0.42529899065E+02 -0.45851669362E+02 -0.22611213864E+02  0.66667270007E+02  0.47000000000E+01 0. -1.
        -11    1    6    6    0    0  0.15313059650E+02  0.64896066342E+01 -0.84431238132E+01  0.18651839851E+02  0.00000000000E+00 0.  1.
         12    1    6    6    0    0 -0.13766059545E+03  0.52614397848E+02 -0.18306559569E+03  0.23501431175E+03  0.00000000000E+00 0. -1.
         -5    1    3    3    0  503  0.10297201363E+03 -0.32627099055E+02 -0.18102488538E+03  0.21085507418E+03  0.47000000000E+01 0.  1.
         11    1    4    4    0    0  0.53568247317E+02  0.23549789295E+01 -0.17270322263E+03  0.18083557768E+03  0.00000000000E+00 0. -1.
        -12    1    4    4    0    0  0.83371739191E+01  0.17019785006E+02 -0.37361926657E+03  0.37409963633E+03  0.00000000000E+00 0.  1.
</event>
<event>
12    1  0.8421768E-002  0.1801885E+03  0.7818608E-02  0.1167681E+00
         21   -1    0    0  503  502  0.00000000000E+00  0.00000000000E+00  0.66635451958E+02  0.66635451958E+02  0.00000000000E+00 0.  1.
         21   -1    0    0  501  503 -0.00000000000E+00 -0.00000000000E+00 -0.75367262392E+03  0.75367262392E+03  0.00000000000E+00 0. -1.
          6    2    1    2  501    0  0.50732948168E+02 -0.90508771438E+01 -0.58753576634E+03  0.61447219518E+03  0.17240084547E+03 0.  0.
         24    2    3    3    0    0  0.83585281721E+02  0.11570788142E+02 -0.27642654455E+03  0.30091906287E+03  0.83787024117E+02 0.  0.
         -6    2    1    2    0  502 -0.50732948168E+02  0.90508771438E+01 -0.99501405621E+02  0.20583588069E+03  0.17266189404E+03 0.  0.
        -24    2    5    5    0    0  0.12027370198E+02 -0.48166137025E+02 -0.51617715068E+02  0.10822654665E+03  0.81141620025E+02 0.  0.
          5    1    3    3  501    0 -0.32852333553E+02 -0.20621665286E+02 -0.31110922179E+03  0.31355313231E+03  0.47000000000E+01 0. -1.
        -11    1    4    4    0    0 -0.86088572206E+01  0.22574872883E+02 -0.81554878234E+02  0.85058423875E+02  0.00000000000E+00 0.  1.
         12    1    4    4    0    0  0.92194138942E+02 -0.11004084741E+02 -0.19487166631E+03  0.21586063900E+03  0.00000000000E+00 0. -1.
         -5    1    5    5    0  502 -0.62760318367E+02  0.57217014169E+02 -0.47883690553E+02  0.97609334046E+02  0.47000000000E+01 0.  1.
         13    1    6    6    0    0 -0.21495149431E+02 -0.31180068877E+02 -0.58824733626E+02  0.69961328106E+02  0.00000000000E+00 0. -1.
        -14    1    6    6    0    0  0.33522519629E+02 -0.16986068149E+02  0.72070185576E+01  0.38265218540E+02  0.00000000000E+00 0.  1.
</event>
<event>
12    1  0.8421768E-002  0.2188993E+03  0.7818608E-02  0.1135808E+00
         21   -1    0    0  503  502  0.00000000000E+00  0.00000000000E+00  0.94226998868E+03  0.94226998868E+03  0.00000000000E+00 0.  1.
         21   -1    0    0  501  503 -0.00000000000E+00 -0.00000000000E+00 -0.90413422870E+02  0.90413422870E+02  0.00000000000E+00 0.  1.
          6    2    1    2  501    0 -0.11783787131E+03 -0.45798161406E+02  0.75549577235E+02  0.22610457065E+03  0.17155845285E+03 0.  0.
         24    2    3    3    0    0 -0.14848781577E+03 -0.19675687698E+02  0.46648835391E+02  0.17631355131E+03  0.80464839614E+02 0.  0.
         -6    2    1    2    0  502  0.11783787131E+03  0.45798161406E+02  0.77630698858E+03  0.80657884090E+03  0.17869988970E+03 0.  0.
        -24    2    5    5    0    0  0.45662992042E+02 -0.45451390392E+02  0.30693693074E+03  0.32298186501E+03  0.77175565706E+02 0.  0.
          5    1    3    3  501    0  0.30649944457E+02 -0.26122473708E+02  0.28900741844E+02  0.49791019341E+02  0.47000000000E+01 0. -1.
        -11    1    4    4    0    0 -0.40181701412E+02  0.24287833862E+02 -0.74038894980E+01  0.47531942752E+02  0.00000000000E+00 0.  1.
         12    1    4    4    0    0 -0.10830611435E+03 -0.43963521560E+02  0.54052724889E+02  0.12878160856E+03  0.00000000000E+00 0. -1.
         -5    1    5    5    0  502  0.72174879267E+02  0.91249551798E+02  0.46937005784E+03  0.48359697590E+03  0.47000000000E+01 0.  1.
         11    1    6    6    0    0  0.31469416409E+02 -0.51624645732E+02  0.29998031400E+03  0.30601244583E+03  0.00000000000E+00 0. -1.
        -12    1    6    6    0    0  0.14193575633E+02  0.61732553400E+01  0.69566167380E+01  0.16969419176E+02  0.00000000000E+00 0.  1.
</event>
<event>
12    1  0.8421768E-002  0.3345152E+03  0.7818608E-02  0.1069356E+00
         21   -1    0    0  501  502  0.00000000000E+00  0.00000000000E+00  0.19499611362E+03  0.19499611362E+03  0.00000000000E+00 0. -1.
         21   -1    0    0  502  503 -0.00000000000E+00 -0.00000000000E+00 -0.11663332019E+04  0.11663332019E+04  0.00000000000E+00 0. -1.
         -6    2    1    2    0  503 -0.28397740874E+03 -0.32203390192E+02 -0.97272918348E+03  0.10286410974E+04  0.17383962669E+03 0.  0.
        -24    2    3    3    0    0 -0.88357410159E+02 -0.63945012893E+02 -0.38822617293E+03  0.41143726249E+03  0.81639837183E+02 0.  0.
          6    2    1    2  501    0  0.28397740874E+03  0.32203390192E+02  0.13920952426E+01  0.33268821810E+03  0.17029176585E+03 0.  0.
         24    2    5    5    0    0  0.56369615540E+02 -0.31250553877E+02  0.62550609229E+01  0.96304104887E+02  0.71282705877E+02 0.  0.
          5    1    5    5  501    0  0.22760779320E+03  0.63453944069E+02 -0.48629656803E+01  0.23638411321E+03  0.47000000000E+01 0. -1.
        -13    1    6    6    0    0  0.11001897818E+02 -0.14882838410E+02 -0.30492535132E+02  0.35669809832E+02  0.00000000000E+00 0.  1.
         14    1    6    6    0    0  0.45367717723E+02 -0.16367715467E+02  0.36747596055E+02  0.60634295055E+02  0.00000000000E+00 0. -1.
         -5    1    3    3    0  503 -0.19561999858E+03  0.31741622700E+02 -0.58450301055E+03  0.61720383489E+03  0.47000000000E+01 0.  1.
         11    1    4    4    0    0 -0.82780050058E+02 -0.26284121266E+02 -0.33448416828E+03  0.34557640335E+03  0.00000000000E+00 0. -1.
        -12    1    4    4    0    0 -0.55773601014E+01 -0.37660891627E+02 -0.53742004644E+02  0.65860859142E+02  0.00000000000E+00 0.  1.
</event>
<event>
12    1  0.8421768E-002  0.2799010E+03  0.7818608E-02  0.1095850E+00
         21   -1    0    0  503  502  0.00000000000E+00  0.00000000000E+00  0.32774770175E+03  0.32774770175E+03  0.00000000000E+00 0. -1.
         21   -1    0    0  501  503 -0.00000000000E+00 -0.00000000000E+00 -0.45153335129E+03  0.45153335129E+03  0.00000000000E+00 0. -1.
          6    2    1    2  501    0  0.15766246902E+02  0.22062767393E+03 -0.32956081795E+03  0.43187925254E+03  0.17024749926E+03 0.  0.
         24    2    3    3    0    0  0.51175037983E+02  0.56168119117E+02 -0.12227870223E+03  0.16487982716E+03  0.80371227864E+02 0.  0.
         -6    2    1    2    0  502 -0.15766246902E+02 -0.22062767393E+03  0.20577516841E+03  0.34740180050E+03  0.17152097835E+03 0.  0.
        -24    2    5    5    0    0 -0.31544921702E+02 -0.56319799578E+02  0.12952470759E+03  0.16551648793E+03  0.80324691049E+02 0.  0.
          5    1    3    3  501    0 -0.35408791081E+02  0.16445955482E+03 -0.20728211573E+03  0.26699942538E+03  0.47000000000E+01 0. -1.
        -11    1    4    4    0    0  0.12018059948E+01 -0.18685368633E+02 -0.10840036694E+02  0.21635473975E+02  0.00000000000E+00 0.  1.
         12    1    4    4    0    0  0.49973231988E+02  0.74853487750E+02 -0.11143866553E+03  0.14324435318E+03  0.00000000000E+00 0. -1.
         -5    1    5    5    0  502  0.15778674800E+02 -0.16430787435E+03  0.76250460819E+02  0.18188531257E+03  0.47000000000E+01 0.  1.
         11    1    6    6    0    0  0.32010282571E+01 -0.65787162721E+02  0.95218273736E+02  0.11577874163E+03  0.00000000000E+00 0. -1.
        -12    1    6    6    0    0 -0.34745949959E+02  0.94673631423E+01  0.34306433854E+02  0.49737746302E+02  0.00000000000E+00 0.  1.
</event>
<event>
12    1  0.8421768E-002  0.3016196E+03  0.7818608E-02  0.1084481E+00
         21   -1    0    0  503  502  0.00000000000E+00  0.00000000000E+00  0.72087976417E+03  0.72087976417E+03  0.00000000000E+00 0.  1.
         21   -1    0    0  501  503 -0.00000000000E+00 -0.00000000000E+00 -0.12666700770E+03  0.12666700770E+03  0.00000000000E+00 0.  1.
          6    2    1    2  501    0  0.20514366234E+03 -0.13886715486E+03  0.32672809455E+03  0.44440603519E+03  0.17139856315E+03 0.  0.
         24    2    3    3    0    0  0.70731200614E+02 -0.41204315860E+02  0.55769720642E+02  0.12652984801E+03  0.78732727062E+02 0.  0.
         -6    2    1    2    0  502 -0.20514366234E+03  0.13886715486E+03  0.26748466192E+03  0.40314073668E+03  0.17206510487E+03 0.  0.
        -24    2    5    5    0    0 -0.47718608703E+02  0.73246028578E+02  0.15574839777E+03  0.19919009939E+03  0.88187788085E+02 0.  0.
          5    1    3    3  501    0  0.13441246173E+03 -0.97662838997E+02  0.27095837391E+03  0.31787618719E+03  0.47000000000E+01 0. -1.
        -13    1    4    4    0    0  0.50875127551E+02 -0.48188918451E+02  0.71605931991E+02  0.10018912097E+03  0.00000000000E+00 0.  1.
         14    1    4    4    0    0  0.19856073063E+02  0.69846025915E+01 -0.15836211349E+02  0.26340727035E+02  0.00000000000E+00 0. -1.
         -5    1    5    5    0  502 -0.15742505364E+03  0.65621126279E+02  0.11173626415E+03  0.20395063729E+03  0.47000000000E+01 0.  1.
         13    1    6    6    0    0 -0.61292466679E+02  0.42185328789E+02  0.14608463343E+03  0.16394233303E+03  0.00000000000E+00 0. -1.
        -14    1    6    6    0    0  0.13573857976E+02  0.31060699789E+02  0.96637643422E+01  0.35247766355E+02  0.00000000000E+00 0.  1.
</event>
<event>
12    1  0.8421768E-002  0.1954612E+03  0.7818608E-02  0.1153697E+00
         21   -1    0    0  503  502  0.00000000000E+00  0.00000000000E+00  0.88904913343E+02  0.88904913343E+02  0.00000000000E+00 0. -1.
         21   -1    0    0  501  503 -0.00000000000E+00 -0.00000000000E+00 -0.57485916583E+03  0.57485916583E+03  0.00000000000E+00 0.  1.
          6    2    1    2  501    0 -0.93584395492E+02  0.60116493486E+01 -0.75962289305E+02  0.20970301435E+03  0.17149608108E+03 0.  0.
         24    2    3    3    0    0 -0.12571597034E+02 -0.50680280468E+02 -0.24590679266E+02  0.98176422286E+02  0.79418968174E+02 0.  0.
         -6    2    1    2    0  502  0.93584395492E+02 -0.60116493486E+01 -0.40999196319E+03  0.45406106482E+03  0.17112528073E+03 0.  0.
        -24    2    5    5    0    0  0.80600763027E+02  0.33230340157E+02 -0.38422429152E+03  0.40512670721E+03  0.94332413255E+02 0.  0.
          5    1    3    3  501    0 -0.81012798457E+02  0.56691929817E+02 -0.51371610039E+02  0.11152659207E+03  0.47000000000E+01 0. -1.
        -13    1    4    4    0    0  0.24066358140E+02 -0.26423289122E+01  0.12537465021E+02  0.27264620396E+02  0.00000000000E+00 0.  1.
         14    1    4    4    0    0 -0.36637955174E+02 -0.48037951556E+02 -0.37128144287E+02  0.70911801890E+02  0.00000000000E+00 0. -1.
         -5    1    5    5    0  502  0.12983632464E+02 -0.39241989506E+02 -0.25767671665E+02  0.48934357617E+02  0.47000000000E+01 0.  1.
         13    1    6    6    0    0 -0.66718565757E+01  0.19947533947E+01  0.25379414302E+01  0.74117378513E+01  0.00000000000E+00 0. -1.
        -14    1    6    6    0    0  0.87272619603E+02  0.31235586762E+02 -0.38676223295E+03  0.39771496936E+03  0.00000000000E+00 0.  1.
</event>
<event>
12    1  0.8421768E-002  0.1727886E+03  0.7818608E-02  0.1175584E+00
         21   -1    0    0  501  502  0.00000000000E+00  0.00000000000E+00  0.13745882516E+04  0.13745882516E+04  0.00000000000E+00 0.  1.
         21   -1    0    0  502  503 -0.00000000000E+00 -0.00000000000E+00 -0.25927368269E+02  0.25927368269E+02  0.00000000000E+00 0.  1.
         -6    2    1    2    0  503  0.18653742031E+02  0.10414754975E+02  0.37853294761E+03  0.41512020381E+03  0.16905964029E+03 0.  0.
        -24    2    3    3    0    0 -0.20523673893E+02  0.20490974432E+02  0.36063307436E+03  0.37063542463E+03  0.80456835895E+02 0.  0.
          6    2    1    2  501    0 -0.18653742031E+02 -0.10414754975E+02  0.97012793567E+03  0.98539541601E+03  0.17146278052E+03 0.  0.
         24    2    5    5    0    0 -0.64592138394E+02 -0.46839111025E+02  0.57204746448E+03  0.58299360001E+03  0.79228715565E+02 0.  0.
          5    1    5    5  501    0  0.45938396363E+02  0.36424356049E+02  0.39808047119E+03  0.40240181600E+03  0.47000000000E+01 0. -1.
        -13    1    6    6    0    0  0.49399731846E+01 -0.40374236804E+02  0.26513397620E+03  0.26823591794E+03  0.00000000000E+00 0.  1.
         14    1    6    6    0    0 -0.69532111578E+02 -0.64648742202E+01  0.30691348828E+03  0.31475768208E+03  0.00000000000E+00 0. -1.
         -5    1    3    3    0  503  0.39177415924E+02 -0.10076219457E+02  0.17899873252E+02  0.44484779188E+02  0.47000000000E+01 0.  1.
         13    1    4    4    0    0  0.12169179275E+01  0.49083396109E+02  0.18803613035E+03  0.19434054384E+03  0.00000000000E+00 0. -1.
        -14    1    4    4    0    0 -0.21740591820E+02 -0.28592421677E+02  0.17259694401E+03  0.17629488078E+03  0.00000000000E+00 0.  1.
</event>
<event>
12    1  0.8421768E-002  0.1844922E+03  0.7818608E-02  0.1164128E+00
         21   -1    0    0  503  502  0.00000000000E+00  0.00000000000E+00  0.16564759255E+04  0.16564759255E+04  0.00000000000E+00 0.  1.
         21   -1    0    0  501  503 -0.00000000000E+00 -0.00000000000E+00 -0.62256007657E+02  0.62256007657E+02  0.00000000000E+00 0.  1.
          6    2    1    2  501    0  0.12230769235E+02  0.58951174418E+02  0.89529910553E+02  0.20277369454E+03  0.17168789600E+03 0.  0.
         24    2    3    3    0    0  0.49285643876E+02  0.40450507950E+02  0.11501533609E+03  0.15391742259E+03  0.79979542090E+02 0.  0.
         -6    2    1    2    0  502 -0.12230769235E+02 -0.58951174418E+02  0.15046900073E+04  0.15159582387E+04  0.17439188773E+03 0.  0.
        -24    2    5    5    0    0 -0.32359904316E+02 -0.86913965755E+02  0.14062411200E+04  0.14115485974E+04  0.79712949251E+02 0.  0.
          5    1    3    3  501    0 -0.37054874641E+02  0.18500666468E+02 -0.25485425540E+02  0.48856271956E+02  0.47000000000E+01 0. -1.
        -11    1    4    4    0    0 -0.12738346436E+02  0.26168527334E+02  0.93599015567E+01  0.30572292192E+02  0.00000000000E+00 0.  1.
         12    1    4    4    0    0  0.62023990312E+02  0.14281980616E+02  0.10565543454E+03  0.12334513039E+03  0.00000000000E+00 0. -1.
         -5    1    5    5    0  502  0.20129135081E+02  0.27962791337E+02  0.98448887290E+02  0.10440964126E+03  0.47000000000E+01 0.  1.
         13    1    6    6    0    0 -0.14265856226E+01  0.15368368479E+02  0.17704344696E+03  0.17771495156E+03  0.00000000000E+00 0. -1.
        -14    1    6    6    0    0 -0.30933318694E+02 -0.10228233423E+03  0.12291976731E+04  0.12338336458E+04  0.00000000000E+00 0.  1.
</event>
<event>
12    1  0.8421768E-002  0.2538903E+03  0.7818608E-02  0.1111353E+00
         21   -1    0    0  503  502  0.00000000000E+00  0.00000000000E+00  0.97055182677E+02  0.97055182677E+02  0.00000000000E+00 0.  1.
         21   -1    0    0  501  503 -0.00000000000E+00 -0.00000000000E+00 -0.72012116461E+03  0.72012116461E+03  0.00000000000E+00 0.  1.
          6    2    1    2  501    0  0.12030249405E+02  0.18676053654E+03 -0.43509716905E+03  0.50375574225E+03  0.17156945073E+03 0.  0.
         24    2    3    3    0    0  0.72663831692E+02  0.14034159522E+03 -0.28430427587E+03  0.33466483165E+03  0.78713610507E+02 0.  0.
         -6    2    1    2    0  502 -0.12030249405E+02 -0.18676053654E+03 -0.18796881288E+03  0.31342060504E+03  0.16696100185E+03 0.  0.
        -24    2    5    5    0    0  0.12548498028E+02 -0.19524209916E+03 -0.19358685467E+03  0.28640756886E+03  0.79224258371E+02 0.  0.
          5    1    3    3  501    0 -0.60633582287E+02  0.46418941320E+02 -0.15079289318E+03  0.16909091060E+03  0.47000000000E+01 0. -1.
        -11    1    4    4    0    0  0.69462135862E+02  0.11628256092E+03 -0.16773723442E+03  0.21559777852E+03  0.00000000000E+00 0.  1.
         12    1    4    4    0    0  0.32016958308E+01  0.24059034297E+02 -0.11656704145E+03  0.11906705313E+03  0.00000000000E+00 0. -1.
         -5    1    5    5    0  502 -0.24578747434E+02  0.84815626241E+01  0.56180417859E+01  0.27013036176E+02  0.47000000000E+01 0.  1.
         13    1    6    6    0    0  0.38130897772E+00  0.76238920551E+01 -0.47720951868E+01  0.90023340905E+01  0.00000000000E+00 0. -1.
        -14    1    6    6    0    0  0.12167189050E+02 -0.20286599122E+03 -0.18881475948E+03  0.27740523477E+03  0.00000000000E+00 0.  1.
</event>
<event>
12    1  0.8421768E-002  0.2249524E+03  0.7818608E-02  0.1130556E+00
         21   -1    0    0  503  502  0.00000000000E+00  0.00000000000E+00  0.97727867214E+03  0.97727867214E+03  0.00000000000E+00 0. -1.
         21   -1    0    0  501  503 -0.00000000000E+00 -0.00000000000E+00 -0.51973994586E+02  0.51973994586E+02  0.00000000000E+00 0. -1.
          6    2    1    2  501    0  0.13558603734E+03  0.49648531141E+02  0.40964303020E+03  0.46734463439E+03  0.17249650701E+03 0.  0.
         24    2    3    3    0    0  0.43612987957E+01  0.41557501765E+02  0.20941020401E+03  0.22776026209E+03  0.79221566295E+02 0.  0.
         -6    2    1    2    0  502 -0.13558603734E+03 -0.49648531141E+02  0.51566164735E+03  0.56190803234E+03  0.17025026312E+03 0.  0.
        -24    2    5    5    0    0 -0.13005951814E+03 -0.30452765923E+02  0.51807994122E+03  0.54124507123E+03  0.81832465539E+02 0.  0.
          5    1    3    3  501    0  0.13122473854E+03  0.80910293759E+01  0.20023282619E+03  0.23958437229E+03  0.47000000000E+01 0. -1.
        -11    1    4    4    0    0 -0.14100653220E+02 -0.16539999960E+02  0.10169234049E+03  0.10398909623E+03  0.00000000000E+00 0.  1.
         12    1    4    4    0    0  0.18461952015E+02  0.58097501725E+02  0.10771786351E+03  0.12377116586E+03  0.00000000000E+00 0. -1.
         -5    1    5    5    0  502 -0.55265191957E+01 -0.19195765218E+02 -0.24182938723E+01  0.20662961113E+02  0.47000000000E+01 0.  1.
         11    1    6    6    0    0 -0.55207645976E+02 -0.17882925893E+00  0.35504680649E+03  0.35931344388E+03  0.00000000000E+00 0. -1.
        -12    1    6    6    0    0 -0.74851872164E+02 -0.30273936664E+02  0.16303313474E+03  0.18193162735E+03  0.00000000000E+00 0.  1.
</event>
<event>
12    1  0.8421768E-002  0.1741021E+03  0.7818608E-02  0.1174076E+00
         21   -1    0    0  503  502  0.00000000000E+00  0.00000000000E+00  0.12147610989E+03  0.12147610989E+03  0.00000000000E+00 0.  1.
         21   -1    0    0  501  503 -0.00000000000E+00 -0.00000000000E+00 -0.25317477742E+03  0.25317477742E+03  0.00000000000E+00 0.  1.
          6    2    1    2  501    0 -0.27852333673E+02  0.10881376103E+02 -0.94660370185E+02  0.19665265797E+03  0.16975725424E+03 0.  0.
         24    2    3    3    0    0 -0.57660395818E+02  0.62815762457E+01 -0.97980462022E+00  0.98124402671E+02  0.79140753954E+02 0.  0.
         -6    2    1    2    0  502  0.27852333673E+02 -0.10881376103E+02 -0.37038297352E+02  0.17799822934E+03  0.17151494787E+03 0.  0.
        -24    2    5    5    0    0  0.27930438579E+02 -0.48472682578E+02 -0.76295585852E+02  0.12344241276E+03  0.79292512203E+02 0.  0.
          5    1    3    3  501    0  0.29808062145E+02  0.45997998573E+01 -0.93680565565E+02  0.98528255298E+02  0.47000000000E+01 0. -1.
        -11    1    4    4    0    0 -0.65802850670E+01  0.14848703918E+02 -0.33316974431E+02  0.37064874812E+02  0.00000000000E+00 0.  1.
         12    1    4    4    0    0 -0.51080110751E+02 -0.85671276728E+01  0.32337169811E+02  0.61059527859E+02  0.00000000000E+00 0. -1.
         -5    1    5    5    0  502 -0.78104906126E-01  0.37591306475E+02  0.39257288500E+02  0.54555816585E+02  0.47000000000E+01 0.  1.
         13    1    6    6    0    0  0.40544739817E+02 -0.22816764841E+01 -0.60801168273E+02  0.73115415870E+02  0.00000000000E+00 0. -1.
        -14    1    6    6    0    0 -0.12614301238E+02 -0.46191006094E+02 -0.15494417579E+02  0.50326996888E+02  0.00000000000E+00 0.  1.
</event>
<event>
12    1  0.8421768E-002  0.2182046E+03  0.7818608E-02  0.1135555E+00
         21   -1    0    0  503  502  0.00000000000E+00  0.00000000000E+00  0.66820920300E+03  0.66820920300E+03  0.00000000000E+00 0.  1.
         21   -1    0    0  501  503 -0.00000000000E+00 -0.00000000000E+00 -0.71203888653E+02  0.71203888653E+02  0.00000000000E+00 0. -1.
          6    2    1    2  501    0  0.21842376099E+02  0.12971966067E+03  0.26835439913E+03  0.34587183943E+03  0.17409470417E+03 0.  0.
         24    2    3    3    0    0  0.73027930902E+01  0.11624054191E+03  0.28567727824E+03  0.31912752681E+03  0.81643595550E+02 0.  0.
         -6    2    1    2    0  502 -0.21842376099E+02 -0.12971966067E+03  0.32865091522E+03  0.39354125223E+03  0.17192734910E+03 0.  0.
        -24    2    5    5    0    0  0.53183597039E+02 -0.74059044854E+02  0.15899199421E+03  0.19980627790E+03  0.79566684905E+02 0.  0.
          5    1    3    3  501    0  0.14539583008E+02  0.13479118766E+02 -0.17322879112E+02  0.26744312620E+02  0.47000000000E+01 0. -1.
        -13    1    4    4    0    0  0.20456318716E+02  0.12127059410E+03  0.22080826297E+03  0.25274751624E+03  0.00000000000E+00 0.  1.
         14    1    4    4    0    0 -0.13153525626E+02 -0.50300521891E+01  0.64869015269E+02  0.66380010571E+02  0.00000000000E+00 0. -1.
         -5    1    5    5    0  502 -0.75025973137E+02 -0.55660615818E+02  0.16965892101E+03  0.19373497433E+03  0.47000000000E+01 0.  1.
         11    1    6    6    0    0  0.52193424721E+02 -0.48863544478E+02  0.48309431451E+02  0.86287894459E+02  0.00000000000E+00 0. -1.
        -12    1    6    6    0    0  0.99017231770E+00 -0.25195500377E+02  0.11068256276E+03  0.11351838344E+03  0.00000000000E+00 0.  1.
</event>
<event>
12    1  0.8421768E-002  0.2223433E+03  0.7818608E-02  0.1132474E+00
         21   -1    0    0  503  502  0.00000000000E+00  0.00000000000E+00  0.30014604774E+03  0.30014604774E+03  0.00000000000E+00 0.  1.
         21   -1    0    0  501  503 -0.00000000000E+00 -0.00000000000E+00 -0.26435876028E+03  0.26435876028E+03  0.00000000000E+00 0. -1.
          6    2    1    2  501    0 -0.74625938383E+02 -0.11825675665E+03 -0.15648395900E+03  0.27188922600E+03  0.17286651098E+03 0.  0.
         24    2    3    3    0    0 -0.22065200266E+02 -0.14197851333E+03 -0.12225377831E+03  0.20466461591E+03  0.79352677258E+02 0.  0.
         -6    2    1    2    0  502  0.74625938383E+02  0.11825675665E+03  0.19227124646E+03  0.29261558202E+03  0.17059295254E+03 0.  0.
        -24    2    5    5    0    0  0.68487808626E+02  0.14654134001E+03  0.19215962293E+03  0.26329329096E+03  0.78949934244E+02 0.  0.
          5    1    3    3  501    0 -0.52560738116E+02  0.23721756679E+02 -0.34230180694E+02  0.67224610089E+02  0.47000000000E+01 0. -1.
        -11    1    4    4    0    0 -0.79760854812E+01 -0.12717083409E+01  0.87431404560E+01  0.11902843641E+02  0.00000000000E+00 0.  1.
         12    1    4    4    0    0 -0.14089114785E+02 -0.14070680498E+03 -0.13099691876E+03  0.19276177227E+03  0.00000000000E+00 0. -1.
         -5    1    5    5    0  502  0.61381297566E+01 -0.28284583367E+02  0.11162352469E+00  0.29322291059E+02  0.47000000000E+01 0.  1.
         13    1    6    6    0    0  0.13532634757E+02  0.30697528407E+01 -0.37038461396E+01  0.14362244330E+02  0.00000000000E+00 0. -1.
        -14    1    6    6    0    0  0.54955173869E+02  0.14347158717E+03  0.19586346907E+03  0.24893104663E+03  0.00000000000E+00 0.  1.
</event>
<event>
12    1  0.8421768E-002  0.2941446E+03  0.7818608E-02  0.1088956E+00
         21   -1    0    0  503  502  0.00000000000E+00  0.00000000000E+00  0.25213065092E+03  0.25213065092E+03  0.00000000000E+00 0.  1.
         21   -1    0    0  501  503 -0.00000000000E+00 -0.00000000000E+00 -0.33954231119E+03  0.33954231119E+03  0.00000000000E+00 0. -1.
          6    2    1    2  501    0 -0.14178125525E+03 -0.19157896219E+03 -0.15812939369E+02  0.29456929998E+03  0.17238503514E+03 0.  0.
         24    2    3    3    0    0 -0.14073661809E+03 -0.16604204466E+03  0.37798421895E+02  0.23499167430E+03  0.80097503263E+02 0.  0.
         -6    2    1    2    0  502  0.14178125525E+03  0.19157896219E+03 -0.71598720902E+02  0.29710366213E+03  0.16229536690E+03 0.  0.
        -24    2    5    5    0    0  0.10674680058E+03  0.14115527144E+03 -0.11128236736E+03  0.22384491931E+03  0.80019325936E+02 0.  0.
          5    1    3    3  501    0 -0.10446371620E+01 -0.25536917535E+02 -0.53611361264E+02  0.59577625671E+02  0.47000000000E+01 0. -1.
        -13    1    4    4    0    0 -0.15116516077E+03 -0.15136525731E+03  0.35313401920E+02  0.21681647379E+03  0.00000000000E+00 0.  1.
         14    1    4    4    0    0  0.10428542685E+02 -0.14676787346E+02  0.24850199751E+01  0.18175200511E+02  0.00000000000E+00 0. -1.
         -5    1    5    5    0  502  0.35034454669E+02  0.50423690752E+02  0.39683646462E+02  0.73258742820E+02  0.47000000000E+01 0.  1.
         13    1    6    6    0    0  0.11278892248E+03  0.95716251370E+02 -0.91337943723E+02  0.17385500216E+03  0.00000000000E+00 0. -1.
        -14    1    6    6    0    0 -0.60421219041E+01  0.45439020073E+02 -0.19944423641E+02  0.49989917150E+02  0.00000000000E+00 0.  1.
</event>
<event>
12    1  0.8421768E-002  0.1748964E+03  0.7818608E-02  0.1173607E+00
         21   -1    0    0  501  502  0.00000000000E+00  0.00000000000E+00  0.10346026168E+04  0.10346026168E+04  0.00000000000E+00 0.  1.
         21   -1    0    0  502  503 -0.00000000000E+00 -0.00000000000E+00 -0.34205835631E+02  0.34205835631E+02  0.00000000000E+00 0. -1.
         -6    2    1    2    0  503  0.23976915276E+02 -0.24329795221E+02  0.29653102401E+03  0.34426645934E+03  0.17152817677E+03 0.  0.
        -24    2    3    3    0    0  0.64448142537E+02 -0.62212547446E+02  0.19567224486E+03  0.22908136272E+03  0.78528206404E+02 0.  0.
          6    2    1    2  501    0 -0.23976915276E+02  0.24329795221E+02  0.70386575716E+03  0.72454199309E+03  0.16842584198E+03 0.  0.
         24    2    5    5    0    0  0.27319808319E+02 -0.17244078941E+02  0.55700311228E+03  0.56345050565E+03  0.78614725363E+02 0.  0.
          5    1    5    5  501    0 -0.51296723594E+02  0.41573874162E+02  0.14686264489E+03  0.16109148745E+03  0.47000000000E+01 0. -1.
        -13    1    6    6    0    0  0.50949159530E+01 -0.44562368726E+02  0.21435234753E+03  0.21899472999E+03  0.00000000000E+00 0.  1.
         14    1    6    6    0    0  0.22224892365E+02  0.27318289785E+02  0.34265076475E+03  0.34445577565E+03  0.00000000000E+00 0. -1.
         -5    1    3    3    0  503 -0.40471227261E+02  0.37882752225E+02  0.10085877914E+03  0.11518509662E+03  0.47000000000E+01 0.  1.
         11    1    4    4    0    0  0.29014881273E+02 -0.59098201886E+02  0.60865464529E+02  0.89660836343E+02  0.00000000000E+00 0. -1.
        -12    1    4    4    0    0  0.35433261264E+02 -0.31143455609E+01  0.13480678033E+03  0.13942052638E+03  0.00000000000E+00 0.  1.
</event>
<event>
12    1  0.8421768E-002  0.1946624E+03  0.7818608E-02  0.1154327E+00
         21   -1    0    0  503  502  0.00000000000E+00  0.00000000000E+00  0.15937430895E+04  0.15937430895E+04  0.00000000000E+00 0.  1.
         21   -1    0    0  501  503 -0.00000000000E+00 -0.00000000000E+00 -0.23849458056E+02  0.23849458056E+02  0.00000000000E+00 0. -1.
          6    2    1    2  501    0 -0.11458313532E+02  0.92012654445E+02  0.73938662864E+03  0.76457710950E+03  0.17113722048E+03 0.  0.
         24    2    3    3    0    0 -0.55655123381E+02  0.69348216553E+01  0.44315359616E+03  0.45318074606E+03  0.76433594047E+02 0.  0.
         -6    2    1    2    0  502  0.11458313532E+02 -0.92012654445E+02  0.83050700278E+03  0.85301543803E+03  0.17116025918E+03 0.  0.
        -24    2    5    5    0    0  0.18577955121E+02 -0.12681896087E+03  0.74340999930E+03  0.75883398403E+03  0.82112112390E+02 0.  0.
          5    1    3    3  501    0  0.44196809849E+02  0.85077832789E+02  0.29623303248E+03  0.31139636344E+03  0.47000000000E+01 0. -1.
        -11    1    4    4    0    0  0.13104477591E+02  0.12320340893E+02  0.18837800705E+03  0.18923475282E+03  0.00000000000E+00 0.  1.
         12    1    4    4    0    0 -0.68759600972E+02 -0.53855192381E+01  0.25477558910E+03  0.26394599324E+03  0.00000000000E+00 0. -1.
         -5    1    5    5    0  502 -0.71196415887E+01  0.34806306423E+02  0.87097003479E+02  0.94181454003E+02  0.47000000000E+01 0.  1.
         13    1    6    6    0    0 -0.14569554414E+02 -0.10042073593E+03  0.62243959829E+03  0.63065652272E+03  0.00000000000E+00 0. -1.
        -14    1    6    6    0    0  0.33147509535E+02 -0.26398224933E+02  0.12097040101E+03  0.12817746131E+03  0.00000000000E+00 0.  1.
</event>
<event>
12    1  0.8421768E-002  0.1778044E+03  0.7818608E-02  0.1170089E+00
         21   -1    0    0  501  502  0.00000000000E+00  0.00000000000E+00  0.46316459577E+03  0.46316459577E+03  0.00000000000E+00 0.  1.
         21   -1    0    0  502  503 -0.00000000000E+00 -0.00000000000E+00 -0.70720656892E+02  0.70720656892E+02  0.00000000000E+00 0.  1.
         -6    2    1    2    0  503  0.31602550918E+02  0.31800269860E+02  0.14449035078E+03  0.22911104637E+03  0.17205938426E+03 0.  0.
        -24    2    3    3    0    0 -0.30069771972E+02 -0.20709470232E+02  0.10899229355E+03  0.14055061343E+03  0.80883135064E+02 0.  0.
          6    2    1    2  501    0 -0.31602550918E+02 -0.31800269860E+02  0.24795358810E+03  0.30477420629E+03  0.17145365724E+03 0.  0.
         24    2    5    5    0    0 -0.55813161059E+02 -0.58062608223E+02  0.95045733220E+02  0.14767943826E+03  0.79304159161E+02 0.  0.
          5    1    5    5  501    0  0.24210610140E+02  0.26262338363E+02  0.15290785488E+03  0.15709476803E+03  0.47000000000E+01 0. -1.
        -13    1    6    6    0    0 -0.79285831166E+01  0.94520880847E+00 -0.13197026234E+02  0.15424569730E+02  0.00000000000E+00 0.  1.
         14    1    6    6    0    0 -0.47884577942E+02 -0.59007817031E+02  0.10824275945E+03  0.13225486853E+03  0.00000000000E+00 0. -1.
         -5    1    3    3    0  503  0.61672322891E+02  0.52509740092E+02  0.35498057223E+02  0.88560432936E+02  0.47000000000E+01 0.  1.
         11    1    4    4    0    0 -0.40408105375E+02  0.20113387205E+02  0.43492459816E+02  0.62681395850E+02  0.00000000000E+00 0. -1.
        -12    1    4    4    0    0  0.10338333403E+02 -0.40822857437E+02  0.65499833737E+02  0.77869217580E+02  0.00000000000E+00 0.  1.
</event>
<event>
12    1  0.8421768E-002  0.1903187E+03  0.7818608E-02  0.1158280E+00
         21   -1    0    0  503  502  0.00000000000E+00  0.00000000000E+00  0.16295668395E+03  0.16295668395E+03  0.00000000000E+00 0. -1.
         21   -1    0    0  501  503 -0.00000000000E+00 -0.00000000000E+00 -0.26740247012E+03  0.26740247012E+03  0.00000000000E+00 0. -1.
          6    2    1    2  501    0 -0.38803912440E+02  0.67381842466E+02 -0.14110150510E+03  0.23654265615E+03  0.17319566139E+03 0.  0.
         24    2    3    3    0    0 -0.48935610124E+02 -0.12899653282E+02 -0.12063876415E+03  0.15294490723E+03  0.79229655047E+02 0.  0.
         -6    2    1    2    0  502  0.38803912440E+02 -0.67381842466E+02  0.36655718932E+02  0.19381649792E+03  0.17370992148E+03 0.  0.
        -24    2    5    5    0    0 -0.16453933683E+02 -0.48761124248E+02  0.78412518895E+02  0.12194243411E+03  0.77929807813E+02 0.  0.
          5    1    3    3  501    0  0.10131697685E+02  0.80281495748E+02 -0.20462740946E+02  0.83597748920E+02  0.47000000000E+01 0. -1.
        -13    1    4    4    0    0 -0.29115774893E+02 -0.19376479107E+02 -0.48676591814E+01  0.35311052039E+02  0.00000000000E+00 0.  1.
         14    1    4    4    0    0 -0.19819835231E+02  0.64768258252E+01 -0.11577110497E+03  0.11763385519E+03  0.00000000000E+00 0. -1.
         -5    1    5    5    0  502  0.55257846123E+02 -0.18620718218E+02 -0.41756799963E+02  0.71874063808E+02  0.47000000000E+01 0.  1.
         11    1    6    6    0    0  0.26172045084E+02 -0.42153859128E+02  0.48994818160E+02  0.69731026020E+02  0.00000000000E+00 0. -1.
        -12    1    6    6    0    0 -0.42625978767E+02 -0.66072651203E+01  0.29417700736E+02  0.52211408091E+02  0.00000000000E+00 0.  1.
</event>
<event>
12    1  0.8421768E-002  0.1853446E+03  0.7818608E-02  0.1165841E+00
         21   -1    0    0  501  502  0.00000000000E+00  0.00000000000E+00  0.15594508695E+03  0.15594508695E+03  0.00000000000E+00 0.  1.
         21   -1    0    0  502  503 -0.00000000000E+00 -0.00000000000E+00 -0.22835179366E+03  0.22835179366E+03  0.00000000000E+00 0.  1.
         -6    2    1    2    0  503  0.15663402467E+02 -0.68073199509E+02 -0.98431443045E+02  0.20986031534E+03  0.17167789697E+03 0.  0.
        -24    2    3    3    0    0  0.62605588761E+02 -0.62465336233E+02 -0.22012141947E+02  0.11987689151E+03  0.77875264045E+02 0.  0.
          6    2    1    2  501    0 -0.15663402467E+02  0.68073199509E+02  0.26024736339E+02  0.17443656527E+03  0.15770708840E+03 0.  0.
         24    2    5    5    0    0 -0.34408698716E+02 -0.58729210956E+01  0.42877703593E+02  0.96170816761E+02  0.78688492052E+02 0.  0.
          5    1    5    5  501    0  0.18745296250E+02  0.73946120604E+02 -0.16852967254E+02  0.78265748506E+02  0.47000000000E+01 0. -1.
        -11    1    6    6    0    0  0.48684243119E+01  0.21504176542E+02  0.42966997470E+02  0.48293830203E+02  0.00000000000E+00 0.  1.
         12    1    6    6    0    0 -0.39277123028E+02 -0.27377097638E+02 -0.89293876802E-01  0.47876986558E+02  0.00000000000E+00 0. -1.
         -5    1    3    3    0  503 -0.46942186294E+02 -0.56078632758E+01 -0.76419301098E+02  0.89983423834E+02  0.47000000000E+01 0.  1.
         13    1    4    4    0    0  0.69939983326E+01 -0.47779725957E+02  0.16072155930E+02  0.50893343587E+02  0.00000000000E+00 0. -1.
        -14    1    4    4    0    0  0.55611590428E+02 -0.14685610276E+02 -0.38084297877E+02  0.68983547922E+02  0.00000000000E+00 0.  1.
</event>
<event>
12    1  0.8421768E-002  0.2068704E+03  0.7818608E-02  0.1144151E+00
         21   -1    0    0  501  502  0.00000000000E+00  0.00000000000E+00  0.13065865360E+04  0.13065865360E+04  0.00000000000E+00 0. -1.
         21   -1    0    0  502  503 -0.00000000000E+00 -0.00000000000E+00 -0.47799817382E+02  0.47799817382E+02  0.00000000000E+00 0. -1.
         -6    2    1    2    0  503  0.99949755103E+02 -0.54795360180E+02  0.24906477448E+03  0.32377250369E+03  0.17263512741E+03 0.  0.
        -24    2    3    3    0    0  0.13670170374E+03 -0.61109909933E+02  0.20697199034E+03  0.26734137979E+03  0.78817711630E+02 0.  0.
          6    2    1    2  501    0 -0.99949755103E+02  0.54795360180E+02  0.10097219441E+04  0.10306138497E+04  0.17214533879E+03 0.  0.
         24    2    5    5    0    0 -0.10128578500E+03  0.42426884163E+02  0.40650052819E+03  0.42724586013E+03  0.72370538450E+02 0.  0.
          5    1    5    5  501    0  0.13360298988E+01  0.12368476018E+02  0.60322141591E+03  0.60336798953E+03  0.47000000000E+01 0. -1.
        -13    1    6    6    0    0 -0.56039476752E+02  0.59067434996E+02  0.28871423763E+03  0.29997549207E+03  0.00000000000E+00 0.  1.
         14    1    6    6    0    0 -0.45246308250E+02 -0.16640550834E+02  0.11778629056E+03  0.12727036806E+03  0.00000000000E+00 0. -1.
         -5    1    3    3    0  503 -0.36751948638E+02  0.63145497532E+01  0.42092784137E+02  0.56431123892E+02  0.47000000000E+01 0.  1.
         13    1    4    4    0    0  0.88474098923E+02 -0.39230005380E+02  0.18733725791E+03  0.21085992437E+03  0.00000000000E+00 0. -1.
        -14    1    4    4    0    0  0.48227604818E+02 -0.21879904553E+02  0.19634732433E+02  0.56481455429E+02  0.00000000000E+00 0.  1.
</event>
<event>
12    1  0.8421768E-002  0.2279108E+03  0.7818608E-02  0.1128157E+00
         21   -1    0    0  503  502  0.00000000000E+00  0.00000000000E+00  0.74635620709E+02  0.74635620709E+02  0.00000000000E+00 0. -1.
         21   -1    0    0  501  503 -0.00000000000E+00 -0.00000000000E+00 -0.29833770398E+04  0.29833770398E+04  0.00000000000E+00 0.  1.
          6    2    1    2  501    0  0.14398950389E+03 -0.42131311632E+02 -0.27932404112E+04  0.28025056550E+04  0.17128317607E+03 0.  0.
         24    2    3    3    0    0  0.58664160797E+02 -0.52760584131E+02 -0.22194596456E+04  0.22222989223E+04  0.79913819614E+02 0.  0.
         -6    2    1    2    0  502 -0.14398950389E+03  0.42131311632E+02 -0.11550100781E+03  0.25550700552E+03  0.17156725333E+03 0.  0.
        -24    2    5    5    0    0 -0.30618823815E+02  0.16886309606E+02 -0.10840469754E+03  0.13904813361E+03  0.79750518417E+02 0.  0.
          5    1    3    3  501    0  0.85325343089E+02  0.10629272500E+02 -0.57378076561E+03  0.58020673263E+03  0.47000000000E+01 0. -1.
        -11    1    4    4    0    0 -0.29800397737E+01 -0.11374123155E+02 -0.12304357821E+04  0.12304919606E+04  0.00000000000E+00 0.  1.
         12    1    4    4    0    0  0.61644200571E+02 -0.41386460976E+02 -0.98902386358E+03  0.99180696174E+03  0.00000000000E+00 0. -1.
         -5    1    5    5    0  502 -0.11337068007E+03  0.25245002026E+02 -0.70963102723E+01  0.11645887191E+03  0.47000000000E+01 0.  1.
         13    1    6    6    0    0 -0.47544824949E+02  0.23237244715E+01 -0.27189577973E+02  0.54819551487E+02  0.00000000000E+00 0. -1.
        -14    1    6    6    0    0  0.16926001134E+02  0.14562585134E+02 -0.81215119568E+02  0.84228582124E+02  0.00000000000E+00 0.  1.
</event>
<event>
12    1  0.8421768E-002  0.1902194E+03  0.7818608E-02  0.1158372E+00
         21   -1    0    0  503  502  0.00000000000E+00  0.00000000000E+00  0.35774607345E+02  0.35774607345E+02  0.00000000000E+00 0.  1.
         21   -1    0    0  501  503 -0.00000000000E+00 -0.00000000000E+00 -0.10931477654E+04  0.10931477654E+04  0.00000000000E+00 0.  1.
          6    2    1    2  501    0  0.69006661154E+02 -0.39183754833E+02 -0.68602352009E+03  0.71190707480E+03  0.17287604551E+03 0.  0.
         24    2    3    3    0    0  0.63304815672E+02 -0.71932580911E+02 -0.30338974983E+03  0.32780332736E+03  0.78916951576E+02 0.  0.
         -6    2    1    2    0  502 -0.69006661154E+02  0.39183754833E+02 -0.37134963801E+03  0.41701529799E+03  0.17234824972E+03 0.  0.
        -24    2    5    5    0    0 -0.95802063095E+02  0.24230091284E+02 -0.36359226010E+03  0.38501728976E+03  0.79207633433E+02 0.  0.
          5    1    3    3  501    0  0.57018454818E+01  0.32748826078E+02 -0.38263377026E+03  0.38410374744E+03  0.47000000000E+01 0. -1.
        -13    1    4    4    0    0  0.12528512067E+02 -0.71912479227E+02 -0.19110331104E+03  0.20456989948E+03  0.00000000000E+00 0.  1.
         14    1    4    4    0    0  0.50776303606E+02 -0.20101683460E-01 -0.11228643878E+03  0.12323342788E+03  0.00000000000E+00 0. -1.
         -5    1    5    5    0  502  0.26795401941E+02  0.14953663549E+02 -0.77573779162E+01  0.31998008233E+02  0.47000000000E+01 0.  1.
         11    1    6    6    0    0 -0.53374570608E+02 -0.23170143576E+02 -0.12162153757E+03  0.13482395463E+03  0.00000000000E+00 0. -1.
        -12    1    6    6    0    0 -0.42427492487E+02  0.47400234859E+02 -0.24197072252E+03  0.25019333513E+03  0.00000000000E+00 0.  1.
</event>
<event>
12    1  0.8421768E-002  0.2108634E+03  0.7818608E-02  0.1141370E+00
         21   -1    0    0  503  502  0.00000000000E+00  0.00000000000E+00  0.10747793019E+04  0.10747793019E+04  0.00000000000E+00 0. -1.
         21   -1    0    0  501  503 -0.00000000000E+00 -0.00000000000E+00 -0.69450781713E+02  0.69450781713E+02  0.00000000000E+00 0. -1.
          6    2    1    2  501    0 -0.91791140992E+02  0.81005734554E+02  0.13405758550E+03  0.24780585635E+03  0.16866761283E+03 0.  0.
         24    2    3    3    0    0 -0.80250530621E+02 -0.97477202384E+00  0.34694399846E+02  0.11838745809E+03  0.79817235023E+02 0.  0.
         -6    2    1    2    0  502  0.91791140992E+02 -0.81005734554E+02  0.87127093468E+03  0.89642422725E+03  0.17168520899E+03 0.  0.
        -24    2    5    5    0    0  0.68183386152E+02 -0.35690349560E+00  0.66983880136E+03  0.67811583444E+03  0.80671950363E+02 0.  0.
          5    1    3    3  501    0 -0.11540610370E+02  0.81980506577E+02  0.99363185650E+02  0.12941839826E+03  0.47000000000E+01 0. -1.
        -13    1    4    4    0    0  0.14981083938E+02  0.28197084682E+01  0.14344401437E+02  0.20931925004E+02  0.00000000000E+00 0.  1.
         14    1    4    4    0    0 -0.95231614559E+02 -0.37944804921E+01  0.20349998409E+02  0.97455533086E+02  0.00000000000E+00 0. -1.
         -5    1    5    5    0  502  0.23607754840E+02 -0.80648831058E+02  0.20143213331E+03  0.21830839281E+03  0.47000000000E+01 0.  1.
         13    1    6    6    0    0  0.38902542277E+02  0.21169842871E+02  0.57255478743E+03  0.57426523023E+03  0.00000000000E+00 0. -1.
        -14    1    6    6    0    0  0.29280843875E+02 -0.21526746366E+02  0.97284013936E+02  0.10385060421E+03  0.00000000000E+00 0.  1.
</event>
<event>
12    1  0.8421768E-002  0.1993780E+03  0.7818608E-02  0.1150566E+00
         21   -1    0    0  501  502  0.00000000000E+00  0.00000000000E+00  0.11620697649E+03  0.11620697649E+03  0.00000000000E+00 0.  1.
         21   -1    0    0  502  503 -0.00000000000E+00 -0.00000000000E+00 -0.76768418398E+03  0.76768418398E+03  0.00000000000E+00 0.  1.
         -6    2    1    2    0  503 -0.64502925571E+02 -0.80399231183E+02 -0.65522561957E+03  0.68447797465E+03  0.16901130569E+03 0.  0.
        -24    2    3    3    0    0 -0.56447615712E+02  0.13202675457E+02 -0.41933701014E+03  0.43052575276E+03  0.78410788511E+02 0.  0.
          6    2    1    2  501    0  0.64502925571E+02  0.80399231183E+02  0.37484120775E+01  0.19941318582E+03  0.17066606078E+03 0.  0.
         24    2    5    5    0    0 -0.41928734849E+02  0.35837593357E+01 -0.14205032458E+02  0.66851007105E+02  0.49964107786E+02 0.  0.
          5    1    5    5  501    0  0.10643166042E+03  0.76815471847E+02  0.17953444536E+02  0.13256217871E+03  0.47000000000E+01 0. -1.
        -13    1    6    6    0    0 -0.14835765084E+02 -0.98341408359E+00  0.18759897501E+02  0.23937434765E+02  0.00000000000E+00 0.  1.
         14    1    6    6    0    0 -0.27092969766E+02  0.45671734193E+01 -0.32964929959E+02  0.42913572340E+02  0.00000000000E+00 0. -1.
         -5    1    3    3    0  503 -0.80553098589E+01 -0.93601906639E+02 -0.23588860943E+03  0.25395222189E+03  0.47000000000E+01 0.  1.
         11    1    4    4    0    0 -0.48926111580E+02 -0.14212433686E+02 -0.12742824269E+03  0.13723598180E+03  0.00000000000E+00 0. -1.
        -12    1    4    4    0    0 -0.75215041318E+01  0.27415109143E+02 -0.29190876745E+03  0.29328977096E+03  0.00000000000E+00 0.  1.
</event>
<event>
12    1  0.8421768E-002  0.1854702E+03  0.7818608E-02  0.1163275E+00
         21   -1    0    0  503  502  0.00000000000E+00  0.00000000000E+00  0.22774898560E+03  0.22774898560E+03  0.00000000000E+00 0. -1.
         21   -1    0    0  501  503 -0.00000000000E+00 -0.00000000000E+00 -0.16444813684E+03  0.16444813684E+03  0.00000000000E+00 0. -1.
          6    2    1    2  501    0  0.50295790264E+02  0.45196239273E+02 -0.29166129023E+02  0.18495490661E+03  0.16966227581E+03 0.  0.
         24    2    3    3    0    0 -0.31097083103E+02  0.17253109048E+02 -0.43046894202E+02  0.97660095742E+02  0.80123410128E+02 0.  0.
         -6    2    1    2    0  502 -0.50295790264E+02 -0.45196239273E+02  0.92466977783E+02  0.20724221583E+03  0.17270445124E+03 0.  0.
        -24    2    5    5    0    0  0.16182186172E+02 -0.12040053012E+02  0.10432089710E+03  0.13186808604E+03  0.78099401525E+02 0.  0.
          5    1    3    3  501    0  0.81392873367E+02  0.27943130226E+02  0.13880765179E+02  0.87294810863E+02  0.47000000000E+01 0. -1.
        -11    1    4    4    0    0 -0.25612520991E+02 -0.29390272832E+02 -0.29165298295E+02  0.48686794856E+02  0.00000000000E+00 0.  1.
         12    1    4    4    0    0 -0.54845621112E+01  0.46643381880E+02 -0.13881595907E+02  0.48973300886E+02  0.00000000000E+00 0. -1.
         -5    1    5    5    0  502 -0.66477976436E+02 -0.33156186261E+02 -0.11853919312E+02  0.75374129789E+02  0.47000000000E+01 0.  1.
         11    1    6    6    0    0  0.31931870516E+01 -0.44057281545E+02  0.43971126168E+02  0.62327365075E+02  0.00000000000E+00 0. -1.
        -12    1    6    6    0    0  0.12988999120E+02  0.32017228533E+02  0.60349770927E+02  0.69540720963E+02  0.00000000000E+00 0.  1.
</event>
<event>
12    1  0.8421768E-002  0.3122818E+03  0.7818608E-02  0.1079335E+00
         21   -1    0    0  501  502  0.00000000000E+00  0.00000000000E+00  0.10183624107E+04  0.10183624107E+04  0.00000000000E+00 0. -1.
         21   -1    0    0  502  503 -0.00000000000E+00 -0.00000000000E+00 -0.97154132209E+02  0.97154132209E+02  0.00000000000E+00 0.  1.
         -6    2    1    2    0  503  0.79520004025E+00 -0.26051503868E+03  0.38963848153E+03  0.49933763549E+03  0.17219526764E+03 0.  0.
        -24    2    3    3    0    0 -0.38974157962E+01 -0.26835121967E+03  0.30493611464E+03  0.41401467648E+03  0.79965938887E+02 0.  0.
          6    2    1    2  501    0 -0.79520004025E+00  0.26051503868E+03  0.53156979693E+03  0.61617890740E+03  0.17100081634E+03 0.  0.
         24    2    5    5    0    0 -0.27342784109E+02  0.14726214935E+03  0.18861679224E+03  0.25400513061E+03  0.80675545177E+02 0.  0.
          5    1    5    5  501    0  0.26547584069E+02  0.11325288933E+03  0.34295300469E+03  0.36217377678E+03  0.47000000000E+01 0. -1.
        -11    1    6    6    0    0  0.17819024072E+02  0.45902254161E+02  0.22265430792E+02  0.54039651778E+02  0.00000000000E+00 0.  1.
         12    1    6    6    0    0 -0.45161808180E+02  0.10135989519E+03  0.16635136145E+03  0.19996547884E+03  0.00000000000E+00 0. -1.
         -5    1    3    3    0  503  0.46926158364E+01  0.78361809872E+01  0.84702366896E+02  0.85322959007E+02  0.47000000000E+01 0.  1.
         11    1    4    4    0    0 -0.10352470412E+02 -0.83850270628E+02  0.15358761661E+03  0.17529174967E+03  0.00000000000E+00 0. -1.
        -12    1    4    4    0    0  0.64550546155E+01 -0.18450094904E+03  0.15134849803E+03  0.23872292681E+03  0.00000000000E+00 0.  1.
</event>
<event>
12    1  0.8421768E-002  0.2368815E+03  0.7818608E-02  0.1122123E+00
         21   -1    0    0  503  502  0.00000000000E+00  0.00000000000E+00  0.62482377667E+03  0.62482377667E+03  0.00000000000E+00 0.  1.
         21   -1    0    0  501  503 -0.00000000000E+00 -0.00000000000E+00 -0.11086897487E+03  0.11086897487E+03  0.00000000000E+00 0.  1.
          6    2    1    2  501    0 -0.26101209575E+02 -0.15777626058E+03  0.95267970104E+02  0.25532107971E+03  0.17475195585E+03 0.  0.
         24    2    3    3    0    0 -0.92219594170E+01  0.17965216886E+00  0.28922415064E+02  0.83103768933E+02  0.77360542315E+02 0.  0.
         -6    2    1    2    0  502  0.26101209575E+02  0.15777626058E+03  0.41868683170E+03  0.48037167183E+03  0.17286890559E+03 0.  0.
        -24    2    5    5    0    0  0.35983126758E+02  0.52633082166E+02  0.10290815600E+03  0.14736866543E+03  0.84038135556E+02 0.  0.
          5    1    3    3  501    0 -0.16879250158E+02 -0.15795591274E+03  0.66345555040E+02  0.17221731077E+03  0.47000000000E+01 0. -1.
        -13    1    4    4    0    0 -0.42583867803E+02  0.47051263390E+01  0.83520172372E+01  0.43649515494E+02  0.00000000000E+00 0.  1.
         14    1    4    4    0    0  0.33361908386E+02 -0.45254741702E+01  0.20570397827E+02  0.39454253439E+02  0.00000000000E+00 0. -1.
         -5    1    5    5    0  502 -0.98819171837E+01  0.10514317841E+03  0.31577867569E+03  0.33300300641E+03  0.47000000000E+01 0.  1.
         11    1    6    6    0    0 -0.27115991512E+02  0.18744362995E+02  0.23826053383E+02  0.40673197066E+02  0.00000000000E+00 0. -1.
        -12    1    6    6    0    0  0.63099118270E+02  0.33888719170E+02  0.79082102621E+02  0.10669546836E+03  0.00000000000E+00 0.  1.
</event>
<event>
12    1  0.8421768E-002  0.2254026E+03  0.7818608E-02  0.1130100E+00
         21   -1    0    0  503  502  0.00000000000E+00  0.00000000000E+00  0.89164914795E+03  0.89164914795E+03  0.00000000000E+00 0. -1.
         21   -1    0    0  501  503 -0.00000000000E+00 -0.00000000000E+00 -0.68540809052E+02  0.68540809052E+02  0.00000000000E+00 0.  1.
          6    2    1    2  501    0 -0.13594604988E+03  0.47061011542E+02  0.21299397710E+03  0.31011735876E+03  0.17352312421E+03 0.  0.
         24    2    3    3    0    0 -0.96377027687E+02  0.87043894248E+02  0.92705144549E+02  0.17724211026E+03  0.77170919599E+02 0.  0.
         -6    2    1    2    0  502  0.13594604988E+03 -0.47061011542E+02  0.61011436179E+03  0.65007259824E+03  0.17221725011E+03 0.  0.
        -24    2    5    5    0    0  0.12559722530E+03 -0.90861804082E+02  0.46032709409E+03  0.49359920382E+03  0.87798690253E+02 0.  0.
          5    1    3    3  501    0 -0.39569022188E+02 -0.39982882706E+02  0.12028883256E+03  0.13287524850E+03  0.47000000000E+01 0. -1.
        -13    1    4    4    0    0 -0.47406326607E+02  0.53765349374E+02  0.93764252264E+02  0.11802460590E+03  0.00000000000E+00 0.  1.
         14    1    4    4    0    0 -0.48970701080E+02  0.33278544873E+02 -0.10591077150E+01  0.59217504357E+02  0.00000000000E+00 0. -1.
         -5    1    5    5    0  502  0.10348824576E+02  0.43800792540E+02  0.14978726770E+03  0.15647339442E+03  0.47000000000E+01 0.  1.
         11    1    6    6    0    0  0.47083769573E+02 -0.52287508778E+02  0.32449475636E+03  0.33203570868E+03  0.00000000000E+00 0. -1.
        -12    1    6    6    0    0  0.78513455726E+02 -0.38574295304E+02  0.13583233773E+03  0.16156349514E+03  0.00000000000E+00 0.  1.
</event>
<event>
12    1  0.8421768E-002  0.1964622E+03  0.7818608E-02  0.1153226E+00
         21   -1    0    0  503  502  0.00000000000E+00  0.00000000000E+00  0.17325916794E+03  0.17325916794E+03  0.00000000000E+00 0. -1.
         21   -1    0    0  501  503 -0.00000000000E+00 -0.00000000000E+00 -0.57324958105E+03  0.57324958105E+03  0.00000000000E+00 0. -1.
          6    2    1    2  501    0  0.88587091155E+02 -0.38458804866E+02 -0.49243427183E+03  0.52938379225E+03  0.16860882254E+03 0.  0.
         24    2    3    3    0    0  0.26518011741E+02  0.25590036490E+02 -0.13778034963E+03  0.16365668192E+03  0.80262256884E+02 0.  0.
         -6    2    1    2    0  502 -0.88587091155E+02  0.38458804866E+02  0.92443858721E+02  0.21712495674E+03  0.17108660799E+03 0.  0.
        -24    2    5    5    0    0 -0.45434493697E+02  0.76461991783E+02  0.10573523758E+03  0.15792073700E+03  0.76474108701E+02 0.  0.
          5    1    3    3  501    0  0.62069079414E+02 -0.64048841356E+02 -0.35465392220E+03  0.36572711033E+03  0.47000000000E+01 0. -1.
        -13    1    4    4    0    0  0.19260942640E+02 -0.25648367062E+02 -0.29204493521E+02  0.43378855288E+02  0.00000000000E+00 0.  1.
         14    1    4    4    0    0  0.72570691017E+01  0.51238403553E+02 -0.10857585611E+03  0.12027782663E+03  0.00000000000E+00 0. -1.
         -5    1    5    5    0  502 -0.43152597458E+02 -0.38003186918E+02 -0.13291378864E+02  0.59204219743E+02  0.47000000000E+01 0.  1.
         11    1    6    6    0    0 -0.57042319458E+02  0.41732054803E+02  0.97440509627E+02  0.12037459667E+03  0.00000000000E+00 0. -1.
        -12    1    6    6    0    0  0.11607825760E+02  0.34729936980E+02  0.82947279580E+01  0.37546140327E+02  0.00000000000E+00 0.  1.
</event>
<event>
12    1  0.8421768E-002  0.2441212E+03  0.7818608E-02  0.1117161E+00
         21   -1    0    0  501  502  0.00000000000E+00  0.00000000000E+00  0.17346973507E+04  0.17346973507E+04  0.00000000000E+00 0.  1.
         21   -1    0    0  502  503 -0.00000000000E+00 -0.00000000000E+00 -0.35416598243E+02  0.35416598243E+02  0.00000000000E+00 0. -1.
         -6    2    1    2    0  503  0.14616658983E+03  0.90616933109E+02  0.10071328939E+04  0.10361767407E+04  0.17253831900E+03 0.  0.
        -24    2    3    3    0    0  0.69440107135E+02  0.18276448620E+02  0.25344952342E+03  0.27513744361E+03  0.79422886492E+02 0.  0.
          6    2    1    2  501    0 -0.14616658983E+03 -0.90616933109E+02  0.69214785861E+03  0.73393720826E+03  0.17326011352E+03 0.  0.
         24    2    5    5    0    0 -0.48286900947E+02  0.10117926405E+02  0.38936956138E+03  0.40013377405E+03  0.77874158521E+02 0.  0.
          5    1    5    5  501    0 -0.97879688883E+02 -0.10073485951E+03  0.30277829723E+03  0.33380343421E+03  0.47000000000E+01 0. -1.
        -11    1    6    6    0    0 -0.42160380350E+02  0.35232727384E+02  0.15711778148E+03  0.16644770953E+03  0.00000000000E+00 0.  1.
         12    1    6    6    0    0 -0.61265205972E+01 -0.25114800979E+02  0.23225177990E+03  0.23368606452E+03  0.00000000000E+00 0. -1.
         -5    1    3    3    0  503  0.76726482695E+02  0.72340484489E+02  0.75368337046E+03  0.76103929712E+03  0.47000000000E+01 0.  1.
         13    1    4    4    0    0  0.81238751735E+02  0.12295390266E+01  0.16036974384E+03  0.17977680965E+03  0.00000000000E+00 0. -1.
        -14    1    4    4    0    0 -0.11798644600E+02  0.17046909594E+02  0.93079779581E+02  0.95360633953E+02  0.00000000000E+00 0.  1.
</event>
<event>
12    1  0.8421768E-002  0.1915645E+03  0.7818608E-02  0.1158549E+00
         21   -1    0    0  501  502  0.00000000000E+00  0.00000000000E+00  0.11627931428E+04  0.11627931428E+04  0.00000000000E+00 0. -1.
         21   -1    0    0  502  503 -0.00000000000E+00 -0.00000000000E+00 -0.41135467612E+02  0.41135467612E+02  0.00000000000E+00 0. -1.
         -6    2    1    2    0  503  0.20932345850E+02 -0.52634074066E+02  0.26184415481E+03  0.32443692269E+03  0.18299848782E+03 0.  0.
        -24    2    3    3    0    0 -0.28679633881E+02 -0.60649490526E+02  0.68491904124E+02  0.12460504766E+03  0.79588911735E+02 0.  0.
          6    2    1    2  501    0 -0.20932345850E+02  0.52634074066E+02  0.85981352036E+03  0.87949168770E+03  0.17611879538E+03 0.  0.
         24    2    5    5    0    0 -0.72247624400E+02  0.62750211489E+02  0.52894236612E+03  0.54447914352E+03  0.86719102741E+02 0.  0.
          5    1    5    5  501    0  0.51315278550E+02 -0.10116137424E+02  0.33087115424E+03  0.33501254418E+03  0.47000000000E+01 0. -1.
        -11    1    6    6    0    0  0.12112038540E+01  0.77775448315E+01  0.24031586665E+00  0.78749584188E+01  0.00000000000E+00 0.  1.
         12    1    6    6    0    0 -0.73458828254E+02  0.54972666658E+02  0.52870205025E+03  0.53660418510E+03  0.00000000000E+00 0. -1.
         -5    1    3    3    0  503  0.49611979731E+02  0.80154164607E+01  0.19335225069E+03  0.19983187503E+03  0.47000000000E+01 0.  1.
         13    1    4    4    0    0 -0.87536774054E+01 -0.26959556756E+02 -0.15235576806E+02  0.32180232585E+02  0.00000000000E+00 0. -1.
        -14    1    4    4    0    0 -0.19925956476E+02 -0.33689933770E+02  0.83727480930E+02  0.92424815075E+02  0.00000000000E+00 0.  1.
</event>
<event>
12    1  0.8421768E-002  0.1917021E+03  0.7818608E-02  0.1157139E+00
         21   -1    0    0  501  502  0.00000000000E+00  0.00000000000E+00  0.13999490868E+04  0.13999490868E+04  0.00000000000E+00 0. -1.
         21   -1    0    0  502  503 -0.00000000000E+00 -0.00000000000E+00 -0.32045217565E+02  0.32045217565E+02  0.00000000000E+00 0.  1.
         -6    2    1    2    0  503 -0.70485619150E+02  0.45364868774E+02  0.37490437917E+03  0.42065969688E+03  0.17139163701E+03 0.  0.
        -24    2    3    3    0    0 -0.40599467881E+01 -0.32711297042E+01  0.70291104503E+02  0.10508218279E+03  0.77937425610E+02 0.  0.
          6    2    1    2  501    0  0.70485619150E+02 -0.45364868774E+02  0.99299949009E+03  0.10113346075E+04  0.17240506720E+03 0.  0.
         24    2    5    5    0    0  0.72262720432E+02  0.18336166271E+02  0.38716318265E+03  0.40213784014E+03  0.79128987843E+02 0.  0.
          5    1    5    5  501    0 -0.17771012821E+01 -0.63701035045E+02  0.60583630744E+03  0.60919676737E+03  0.47000000000E+01 0. -1.
        -11    1    6    6    0    0  0.48422191620E+01  0.37658928035E+02  0.11625008048E+03  0.12229359410E+03  0.00000000000E+00 0.  1.
         12    1    6    6    0    0  0.67420501270E+02 -0.19322761764E+02  0.27091310217E+03  0.27984424604E+03  0.00000000000E+00 0. -1.
         -5    1    3    3    0  503 -0.66425672362E+02  0.48635998478E+02  0.30461327467E+03  0.31557751409E+03  0.47000000000E+01 0.  1.
         13    1    4    4    0    0  0.29360118396E+02  0.21035107442E+02  0.39672681892E+02  0.53650852610E+02  0.00000000000E+00 0. -1.
        -14    1    4    4    0    0 -0.33420065184E+02 -0.24306237146E+02  0.30618422611E+02  0.51431330182E+02  0.00000000000E+00 0.  1.
</event>
<event>
12    1  0.8421768E-002  0.3183495E+03  0.7818608E-02  0.1076415E+00
         21   -1    0    0  503  502  0.00000000000E+00  0.00000000000E+00  0.15376154731E+03  0.15376154731E+03  0.00000000000E+00 0.  1.
         21   -1    0    0  501  503 -0.00000000000E+00 -0.00000000000E+00 -0.69557453468E+03  0.69557453468E+03  0.00000000000E+00 0.  1.
          6    2    1    2  501    0  0.26842207499E+03  0.88671091270E+00 -0.17358009456E+03  0.36256932262E+03  0.17110016914E+03 0.  0.
         24    2    3    3    0    0  0.26192407144E+03  0.10439740801E+02 -0.10695176563E+03  0.29478356714E+03  0.82130773130E+02 0.  0.
         -6    2    1    2    0  502 -0.26842207499E+03 -0.88671091270E+00 -0.36823289281E+03  0.48676675937E+03  0.17115845899E+03 0.  0.
        -24    2    5    5    0    0 -0.10822763140E+03  0.27925998558E+02 -0.88764426677E+02  0.16332102119E+03  0.79382308645E+02 0.  0.
          5    1    3    3  501    0  0.64980035493E+01 -0.95530298882E+01 -0.66628328931E+02  0.67785755483E+02  0.47000000000E+01 0. -1.
        -11    1    4    4    0    0  0.11639485061E+03 -0.20178995468E+02 -0.12923450333E+02  0.11883588968E+03  0.00000000000E+00 0.  1.
         12    1    4    4    0    0  0.14552922083E+03  0.30618736269E+02 -0.94028315296E+02  0.17594767746E+03  0.00000000000E+00 0. -1.
         -5    1    5    5    0  502 -0.16019444359E+03 -0.28812709470E+02 -0.27946846613E+03  0.32344573818E+03  0.47000000000E+01 0.  1.
         13    1    6    6    0    0 -0.11510055925E+03  0.10428750073E+02 -0.63618481459E+02  0.13192501184E+03  0.00000000000E+00 0. -1.
        -14    1    6    6    0    0  0.68729278515E+01  0.17497248485E+02 -0.25145945218E+02  0.31396009344E+02  0.00000000000E+00 0.  1.
</event>
<event>
12    1  0.8421768E-002  0.1765634E+03  0.7818608E-02  0.1171720E+00
         21   -1    0    0  503  502  0.00000000000E+00  0.00000000000E+00  0.15356374511E+03  0.15356374511E+03  0.00000000000E+00 0.  1.
         21   -1    0    0  501  503 -0.00000000000E+00 -0.00000000000E+00 -0.23446261723E+03  0.23446261723E+03  0.00000000000E+00 0.  1.
          6    2    1    2  501    0  0.29134906234E+02 -0.72059598122E+01 -0.11451887432E+03  0.21044998105E+03  0.17399383130E+03 0.  0.
         24    2    3    3    0    0  0.33866610684E+02  0.43896350638E+02 -0.15459163750E+02  0.98786417531E+02  0.80286571893E+02 0.  0.
         -6    2    1    2    0  502 -0.29134906234E+02  0.72059598122E+01  0.33620002192E+02  0.17757638128E+03  0.17176233005E+03 0.  0.
        -24    2    5    5    0    0 -0.52342239627E+02  0.54218940364E+02 -0.72659257247E+01  0.11092392623E+03  0.81067380552E+02 0.  0.
          5    1    3    3  501    0 -0.47317044499E+01 -0.51102310450E+02 -0.99059710566E+02  0.11166356352E+03  0.47000000000E+01 0. -1.
        -11    1    4    4    0    0 -0.23998027482E+02 -0.14571078952E+01 -0.33125007864E+01  0.24269345849E+02  0.00000000000E+00 0.  1.
         12    1    4    4    0    0  0.57864638166E+02  0.45353458533E+02 -0.12146662963E+02  0.74517071683E+02  0.00000000000E+00 0. -1.
         -5    1    5    5    0  502  0.23207333393E+02 -0.47012980551E+02  0.40885927917E+02  0.66652455057E+02  0.47000000000E+01 0.  1.
         11    1    6    6    0    0  0.71114977131E+00  0.24899588208E+02 -0.36051621735E+02  0.43820253955E+02  0.00000000000E+00 0. -1.
        -12    1    6    6    0    0 -0.53053389399E+02  0.29319352156E+02  0.28785696011E+02  0.67103672271E+02  0.00000000000E+00 0.  1.
</event>
<event>
12    1  0.8421768E-002  0.2473270E+03  0.7818608E-02  0.1116748E+00
         21   -1    0    0  503  502  0.00000000000E+00  0.00000000000E+00  0.10535496171E+04  0.10535496171E+04  0.00000000000E+00 0. -1.
         21   -1    0    0  501  503 -0.00000000000E+00 -0.00000000000E+00 -0.58236539420E+02  0.58236539420E+02  0.00000000000E+00 0. -1.
          6    2    1    2  501    0 -0.15908426242E+03  0.11587141970E+02  0.60559691686E+03  0.65021349648E+03  0.17489397041E+03 0.  0.
         24    2    3    3    0    0 -0.50494785609E+02  0.67610345332E+02  0.27728307569E+03  0.29986746455E+03  0.76900650573E+02 0.  0.
         -6    2    1    2    0  502  0.15908426242E+03 -0.11587141970E+02  0.38971616083E+03  0.46157266005E+03  0.18902002562E+03 0.  0.
        -24    2    5    5    0    0  0.19279976115E+03 -0.19006312445E+02  0.35193081629E+03  0.41017615037E+03  0.82802095782E+02 0.  0.
          5    1    3    3  501    0 -0.10858947681E+03 -0.56023203363E+02  0.32831384117E+03  0.35034603194E+03  0.47000000000E+01 0. -1.
        -13    1    4    4    0    0 -0.22141608229E+02  0.17154069777E+02  0.20670088331E+03  0.20858995203E+03  0.00000000000E+00 0.  1.
         14    1    4    4    0    0 -0.28353177380E+02  0.50456275555E+02  0.70582192381E+02  0.91277512520E+02  0.00000000000E+00 0. -1.
         -5    1    5    5    0  502 -0.33715498730E+02  0.74191704756E+01  0.37785344535E+02  0.51396509676E+02  0.47000000000E+01 0.  1.
         11    1    6    6    0    0  0.16573471705E+03 -0.26310328407E+02  0.22790154846E+03  0.28301827786E+03  0.00000000000E+00 0. -1.
        -12    1    6    6    0    0  0.27065044105E+02  0.73040159615E+01  0.12402926784E+03  0.12715787251E+03  0.00000000000E+00 0.  1.
</event>
<event>
12    1  0.8421768E-002  0.2240118E+03  0.7818608E-02  0.1130973E+00
         21   -1    0    0  501  502  0.00000000000E+00  0.00000000000E+00  0.28321124865E+02  0.28321124865E+02  0.00000000000E+00 0.  1.
         21   -1    0    0  502  503 -0.00000000000E+00 -0.00000000000E+00 -0.18441093809E+04  0.18441093809E+04  0.00000000000E+00 0.  1.
         -6    2    1    2    0  503  0.99339244951E+02 -0.10218489588E+03 -0.10962146853E+04  0.11188690295E+04  0.17283295505E+03 0.  0.
        -24    2    3    3    0    0  0.10834757183E+03 -0.48561527973E+02 -0.98060508379E+03  0.99102425838E+03  0.80282825237E+02 0.  0.
          6    2    1    2  501    0 -0.99339244951E+02  0.10218489588E+03 -0.71957357074E+03  0.75356147628E+03  0.17250720649E+03 0.  0.
         24    2    5    5    0    0 -0.68236775325E+02  0.10719220145E+03 -0.70068227664E+03  0.71652895383E+03  0.79445977403E+02 0.  0.
          5    1    5    5  501    0 -0.31102469625E+02 -0.50073055783E+01 -0.18891294101E+02  0.37032522447E+02  0.47000000000E+01 0. -1.
        -13    1    6    6    0    0 -0.63406896512E+02  0.10265204099E+03 -0.45405277581E+03  0.46981038650E+03  0.00000000000E+00 0.  1.
         14    1    6    6    0    0 -0.48298788132E+01  0.45401604634E+01 -0.24662950083E+03  0.24671856733E+03  0.00000000000E+00 0. -1.
         -5    1    3    3    0  503 -0.90083268789E+01 -0.53623367903E+02 -0.11560960152E+03  0.12784477112E+03  0.47000000000E+01 0.  1.
         11    1    4    4    0    0  0.43568901248E+02  0.15438252313E+02 -0.20817001327E+03  0.21324010695E+03  0.00000000000E+00 0. -1.
        -12    1    4    4    0    0  0.64778670582E+02 -0.63999780286E+02 -0.77243507052E+03  0.77778415143E+03  0.00000000000E+00 0.  1.
</event>
<event>
12    1  0.8421768E-002  0.2138984E+03  0.7818608E-02  0.1139486E+00
         21   -1    0    0  501  502  0.00000000000E+00  0.00000000000E+00  0.28081222559E+03  0.28081222559E+03  0.00000000000E+00 0.  1.
         21   -1    0    0  502  503 -0.00000000000E+00 -0.00000000000E+00 -0.24733539166E+03  0.24733539166E+03  0.00000000000E+00 0.  1.
         -6    2    1    2    0  503  0.48022671486E+02  0.10813922293E+03 -0.14103999190E+03  0.25208846080E+03  0.17220930359E+03 0.  0.
        -24    2    3    3    0    0  0.57662592951E+02  0.34802026160E+02 -0.14884631309E+02  0.10577189468E+03  0.80187192271E+02 0.  0.
          6    2    1    2  501    0 -0.48022671486E+02 -0.10813922293E+03  0.17451682582E+03  0.27605915645E+03  0.17819165764E+03 0.  0.
         24    2    5    5    0    0 -0.14134279579E+02 -0.50734417251E+02  0.18453960545E+03  0.20848489410E+03  0.81469786627E+02 0.  0.
          5    1    5    5  501    0 -0.33888391907E+02 -0.57404805675E+02 -0.10022779630E+02  0.67574262350E+02  0.47000000000E+01 0. -1.
        -11    1    6    6    0    0 -0.12799363288E+02 -0.63474004115E+02  0.78886332030E+02  0.10205795550E+03  0.00000000000E+00 0.  1.
         12    1    6    6    0    0 -0.13349162912E+01  0.12739586864E+02  0.10565327342E+03  0.10642693860E+03  0.00000000000E+00 0. -1.
         -5    1    3    3    0  503 -0.96399214646E+01  0.73337196765E+02 -0.12615536059E+03  0.14631656612E+03  0.47000000000E+01 0.  1.
         13    1    4    4    0    0  0.50011093078E+02  0.68701422832E+01 -0.42324365930E+02  0.65876097617E+02  0.00000000000E+00 0. -1.
        -14    1    4    4    0    0  0.76514998728E+01  0.27931883877E+02  0.27439734621E+02  0.39895797063E+02  0.00000000000E+00 0.  1.
</event>
<event>
12    1  0.8421768E-002  0.2349132E+03  0.7818608E-02  0.1123449E+00
         21   -1    0    0  501  502  0.00000000000E+00  0.00000000000E+00  0.48934022072E+02  0.48934022072E+02  0.00000000000E+00 0.  1.
         21   -1    0    0  502  503 -0.00000000000E+00 -0.00000000000E+00 -0.12118516076E+04  0.12118516076E+04  0.00000000000E+00 0. -1.
         -6    2    1    2    0  503 -0.13500055056E+03 -0.81842662695E+02 -0.75203490589E+03  0.78748995098E+03  0.17222239440E+03 0.  0.
        -24    2    3    3    0    0 -0.77704579048E+02  0.16617385871E+02 -0.27044229184E+03  0.29258516678E+03  0.78440470982E+02 0.  0.
          6    2    1    2  501    0  0.13500055056E+03  0.81842662695E+02 -0.41088267964E+03  0.47329567869E+03  0.17395646855E+03 0.  0.
         24    2    5    5    0    0  0.14363575849E+03  0.11412475959E+03 -0.37621759933E+03  0.42491739442E+03  0.73208047147E+02 0.  0.
          5    1    5    5  501    0 -0.86352079288E+01 -0.32282096896E+02 -0.34665080306E+02  0.48378284267E+02  0.47000000000E+01 0. -1.
        -13    1    6    6    0    0  0.25396747863E+02  0.64106701239E+02 -0.14033366435E+03  0.15635920599E+03  0.00000000000E+00 0.  1.
         14    1    6    6    0    0  0.11823901063E+03  0.50018058352E+02 -0.23588393498E+03  0.26855818843E+03  0.00000000000E+00 0. -1.
         -5    1    3    3    0  503 -0.57295971513E+02 -0.98460048566E+02 -0.48159261405E+03  0.49490478420E+03  0.47000000000E+01 0.  1.
         11    1    4    4    0    0 -0.95254399522E+01  0.38654795254E+02 -0.88495183442E+02  0.97037748814E+02  0.00000000000E+00 0. -1.
        -12    1    4    4    0    0 -0.68179139096E+02 -0.22037409383E+02 -0.18194710840E+03  0.19554741797E+03  0.00000000000E+00 0.  1.
</event>
<event>
12    1  0.8421768E-002  0.2298491E+03  0.7818608E-02  0.1126853E+00
         21   -1    0    0  503  502  0.00000000000E+00  0.00000000000E+00  0.62676886831E+03  0.62676886831E+03  0.00000000000E+00 0.  1.
         21   -1    0    0  501  503 -0.00000000000E+00 -0.00000000000E+00 -0.93459476874E+02  0.93459476874E+02  0.00000000000E+00 0. -1.
          6    2    1    2  501    0  0.48641113320E+02 -0.14377117707E+03  0.38112048532E+03  0.44506564438E+03  0.17261081720E+03 0.  0.
         24    2    3    3    0    0  0.37365182567E+02 -0.17431520370E+03  0.31086699122E+03  0.36749163062E+03  0.81423984389E+02 0.  0.
         -6    2    1    2    0  502 -0.48641113320E+02  0.14377117707E+03  0.15218890611E+03  0.27516270080E+03  0.17180494611E+03 0.  0.
        -24    2    5    5    0    0 -0.96255919783E+02  0.12803736257E+03  0.11589144533E+03  0.21307954389E+03  0.79456255987E+02 0.  0.
          5    1    3    3  501    0  0.11275930753E+02  0.30544026633E+02  0.70253494101E+02  0.77574013760E+02  0.47000000000E+01 0. -1.
        -11    1    4    4    0    0  0.47587162430E+02 -0.11887394890E+03  0.26680403261E+03  0.29593909098E+03  0.00000000000E+00 0.  1.
         12    1    4    4    0    0 -0.10221979863E+02 -0.55441254807E+02  0.44062958609E+02  0.71552539635E+02  0.00000000000E+00 0. -1.
         -5    1    5    5    0  502  0.47614806463E+02  0.15733814500E+02  0.36297460782E+02  0.62083156915E+02  0.47000000000E+01 0.  1.
         11    1    6    6    0    0 -0.30699911118E+02  0.27175314318E+02 -0.64499451670E+01  0.41504024426E+02  0.00000000000E+00 0. -1.
        -12    1    6    6    0    0 -0.65556008665E+02  0.10086204825E+03  0.12234139050E+03  0.17157551946E+03  0.00000000000E+00 0.  1.
</event>
<event>
12    1  0.8421768E-002  0.1780449E+03  0.7818608E-02  0.1169965E+00
         21   -1    0    0  503  502  0.00000000000E+00  0.00000000000E+00  0.21635921107E+03  0.21635921107E+03  0.00000000000E+00 0.  1.
         21   -1    0    0  501  503 -0.00000000000E+00 -0.00000000000E+00 -0.16927884821E+03  0.16927884821E+03  0.00000000000E+00 0.  1.
          6    2    1    2  501    0  0.37460541238E+02 -0.28744457544E+02 -0.48422756375E+02  0.18451221315E+03  0.17166961722E+03 0.  0.
         24    2    3    3    0    0 -0.33750955772E+02 -0.23796136083E+02  0.12478782619E+02  0.90561956928E+02  0.79626408427E+02 0.  0.
         -6    2    1    2    0  502 -0.37460541238E+02  0.28744457544E+02  0.95503119233E+02  0.20112584613E+03  0.17059080928E+03 0.  0.
        -24    2    5    5    0    0  0.37360851860E+02  0.36748882879E+02  0.24745594903E+02  0.97728414156E+02  0.78690436661E+02 0.  0.
          5    1    3    3  501    0  0.71211497010E+02 -0.49483214613E+01 -0.60901538994E+02  0.93950256219E+02  0.47000000000E+01 0. -1.
        -13    1    4    4    0    0  0.44334682690E+01  0.84050852017E+01 -0.25888660748E+02  0.27577596948E+02  0.00000000000E+00 0.  1.
         14    1    4    4    0    0 -0.38184424041E+02 -0.32201221285E+02  0.38367443367E+02  0.62984359980E+02  0.00000000000E+00 0. -1.
         -5    1    5    5    0  502 -0.74821393097E+02 -0.80044253344E+01  0.70757524330E+02  0.10339743198E+03  0.47000000000E+01 0.  1.
         13    1    6    6    0    0  0.35672667781E+02  0.25214429200E+02  0.52101822025E+02  0.67991959266E+02  0.00000000000E+00 0. -1.
        -14    1    6    6    0    0  0.16881840781E+01  0.11534453679E+02 -0.27356227121E+02  0.29736454891E+02  0.00000000000E+00 0.  1.
</event>
<event>
12    1  0.8421768E-002  0.2483906E+03  0.7818608E-02  0.1114368E+00
         21   -1    0    0  501  502  0.00000000000E+00  0.00000000000E+00  0.21213821498E+03  0.21213821498E+03  0.00000000000E+00 0.  1.
         21   -1    0    0  502  503 -0.00000000000E+00 -0.00000000000E+00 -0.10858158286E+04  0.10858158286E+04  0.00000000000E+00 0.  1.
         -6    2    1    2    0  503 -0.17852709901E+03 -0.12610943922E+02 -0.99231043951E+03  0.10229261552E+04  0.17224096371E+03 0.  0.
        -24    2    3    3    0    0 -0.88228840416E+02 -0.64887296273E+02 -0.41492427739E+03  0.43616942301E+03  0.78018716383E+02 0.  0.
          6    2    1    2  501    0  0.17852709901E+03  0.12610943922E+02  0.11863282589E+03  0.27502788840E+03  0.17185933502E+03 0.  0.
         24    2    5    5    0    0  0.10057990458E+03  0.48862125879E+02  0.12857737082E+03  0.18836245535E+03  0.80277330221E+02 0.  0.
          5    1    5    5  501    0  0.77947194432E+02 -0.36251181957E+02 -0.99445449262E+01  0.86665433057E+02  0.47000000000E+01 0. -1.
        -11    1    6    6    0    0  0.45937545328E+02 -0.11314023463E+02  0.82029067436E+02  0.94694419593E+02  0.00000000000E+00 0.  1.
         12    1    6    6    0    0  0.54642359252E+02  0.60176149342E+02  0.46548303380E+02  0.93668035753E+02  0.00000000000E+00 0. -1.
         -5    1    3    3    0  503 -0.90298258597E+02  0.52276352351E+02 -0.57738616212E+03  0.58675673215E+03  0.47000000000E+01 0.  1.
         13    1    4    4    0    0  0.44066123060E+01 -0.15852273962E+02 -0.15555577007E+03  0.15642349703E+03  0.00000000000E+00 0. -1.
        -14    1    4    4    0    0 -0.92635452722E+02 -0.49035022311E+02 -0.25936850732E+03  0.27974592598E+03  0.00000000000E+00 0.  1.
</event>
<event>
12    1  0.8421768E-002  0.2027577E+03  0.7818608E-02  0.1151167E+00
         21   -1    0    0  501  502  0.00000000000E+00  0.00000000000E+00  0.31645961494E+03  0.31645961494E+03  0.00000000000E+00 0. -1.
         21   -1    0    0  502  503 -0.00000000000E+00 -0.00000000000E+00 -0.12294549798E+03  0.12294549798E+03  0.00000000000E+00 0. -1.
         -6    2    1    2    0  503 -0.41867165469E+02  0.56778884578E+02  0.13958148516E+03  0.24615779745E+03  0.19008937100E+03 0.  0.
        -24    2    3    3    0    0 -0.88773391648E+02  0.60097091449E+02  0.48813746515E+02  0.14382463113E+03  0.82524948979E+02 0.  0.
          6    2    1    2  501    0  0.41867165469E+02 -0.56778884578E+02  0.53932631802E+02  0.19324731547E+03  0.17163651967E+03 0.  0.
         24    2    5    5    0    0  0.37632547488E+02 -0.24281002213E+02  0.10093991589E+03  0.13575106250E+03  0.78953838746E+02 0.  0.
          5    1    5    5  501    0  0.42346179809E+01 -0.32497882365E+02 -0.47007284085E+02  0.57496252962E+02  0.47000000000E+01 0. -1.
        -13    1    6    6    0    0 -0.10936011308E+02  0.20019067169E+02  0.14032881707E+02  0.26782105270E+02  0.00000000000E+00 0.  1.
         14    1    6    6    0    0  0.48568558796E+02 -0.44300069382E+02  0.86907034179E+02  0.10896895723E+03  0.00000000000E+00 0. -1.
         -5    1    3    3    0  503  0.46906226180E+02 -0.33182068708E+01  0.90767738647E+02  0.10233316633E+03  0.47000000000E+01 0.  1.
         11    1    4    4    0    0 -0.35266696785E+02 -0.17799977963E+02  0.55622592201E+01  0.39893832170E+02  0.00000000000E+00 0. -1.
        -12    1    4    4    0    0 -0.53506694864E+02  0.77897069412E+02  0.43251487295E+02  0.10393079895E+03  0.00000000000E+00 0.  1.
</event>
<event>
12    1  0.8421768E-002  0.2510494E+03  0.7818608E-02  0.1113050E+00
         21   -1    0    0  501  502  0.00000000000E+00  0.00000000000E+00  0.94174258483E+03  0.94174258483E+03  0.00000000000E+00 0. -1.
         21   -1    0    0  502  503 -0.00000000000E+00 -0.00000000000E+00 -0.66278692457E+02  0.66278692457E+02  0.00000000000E+00 0.  1.
         -6    2    1    2    0  503 -0.42944818501E+02  0.17581946364E+03  0.42348515522E+03  0.49100038665E+03  0.17024970417E+03 0.  0.
        -24    2    3    3    0    0  0.25481732826E+02  0.15323290414E+03  0.30116193270E+03  0.34895318899E+03  0.83307723393E+02 0.  0.
          6    2    1    2  501    0  0.42944818501E+02 -0.17581946364E+03  0.45197873715E+03  0.51702089063E+03  0.17398011750E+03 0.  0.
         24    2    5    5    0    0 -0.42988767472E+02 -0.10052171056E+03  0.28098062096E+03  0.31131046660E+03  0.77533533622E+02 0.  0.
          5    1    5    5  501    0  0.85933585973E+02 -0.75297753078E+02  0.17099811619E+03  0.20571042404E+03  0.47000000000E+01 0. -1.
        -13    1    6    6    0    0 -0.29234505569E+02 -0.87073587688E+02  0.13037158484E+03  0.15947794870E+03  0.00000000000E+00 0.  1.
         14    1    6    6    0    0 -0.13754261903E+02 -0.13448122871E+02  0.15060903612E+03  0.15183251790E+03  0.00000000000E+00 0. -1.
         -5    1    3    3    0  503 -0.68426551327E+02  0.22586559495E+02  0.12232322252E+03  0.14204719766E+03  0.47000000000E+01 0.  1.
         13    1    4    4    0    0  0.83242022174E+01  0.15687785527E+03  0.25425307410E+03  0.29887217921E+03  0.00000000000E+00 0. -1.
        -14    1    4    4    0    0  0.17157530608E+02 -0.36449511244E+01  0.46908858599E+02  0.50081009778E+02  0.00000000000E+00 0.  1.
</event>
<event>
12    1  0.8421768E-002  0.2116171E+03  0.7818608E-02  0.1140350E+00
         21   -1    0    0  503  502  0.00000000000E+00  0.00000000000E+00  0.87927086621E+02  0.87927086621E+02  0.00000000000E+00 0. -1.
         21   -1    0    0  501  503 -0.00000000000E+00 -0.00000000000E+00 -0.91671238611E+03  0.91671238611E+03  0.00000000000E+00 0. -1.
          6    2    1    2  501    0  0.95495634196E+02  0.78580304121E+02 -0.74971523896E+03  0.77900881320E+03  0.17171928014E+03 0.  0.
         24    2    3    3    0    0  0.93268999367E+02  0.11822569889E+03 -0.56768751485E+03  0.59264117231E+03  0.79233972977E+02 0.  0.
         -6    2    1    2    0  502 -0.95495634196E+02 -0.78580304121E+02 -0.79070060529E+02  0.22563065953E+03  0.17135588610E+03 0.  0.
        -24    2    5    5    0    0 -0.76708121284E+02 -0.12005562257E+03 -0.47881898109E+02  0.17024145339E+03  0.79949908719E+02 0.  0.
          5    1    3    3  501    0  0.22266348295E+01 -0.39645394769E+02 -0.18202772411E+03  0.18636764090E+03  0.47000000000E+01 0. -1.
        -11    1    4    4    0    0  0.47735960067E+02  0.40796891034E+02 -0.11403149210E+03  0.13017791438E+03  0.00000000000E+00 0.  1.
         12    1    4    4    0    0  0.45533039299E+02  0.77428807856E+02 -0.45365602276E+03  0.46246325793E+03  0.00000000000E+00 0. -1.
         -5    1    5    5    0  502 -0.18787512912E+02  0.41475318447E+02 -0.31188162420E+02  0.55389206140E+02  0.47000000000E+01 0.  1.
         13    1    6    6    0    0 -0.93211851202E+02 -0.93428480856E+02 -0.40610897969E+02  0.13808177024E+03  0.00000000000E+00 0. -1.
        -14    1    6    6    0    0  0.16503729918E+02 -0.26627141712E+02 -0.72710001397E+01  0.32159683145E+02  0.00000000000E+00 0.  1.
</event>
<event>
12    1  0.8421768E-002  0.1849903E+03  0.7818608E-02  0.1163281E+00
         21   -1    0    0  503  502  0.00000000000E+00  0.00000000000E+00  0.20227004582E+03  0.20227004582E+03  0.00000000000E+00 0. -1.
         21   -1    0    0  501  503 -0.00000000000E+00 -0.00000000000E+00 -0.28095253159E+03  0.28095253159E+03  0.00000000000E+00 0. -1.
          6    2    1    2  501    0 -0.12751496800E+02 -0.65274932130E+02 -0.19225946365E+03  0.26614850188E+03  0.17160392261E+03 0.  0.
         24    2    3    3    0    0  0.20642171020E+01  0.26540927400E+02 -0.12364296786E+03  0.15047667759E+03  0.81528922339E+02 0.  0.
         -6    2    1    2    0  502  0.12751496800E+02  0.65274932130E+02  0.11357697788E+03  0.21707407554E+03  0.17262099215E+03 0.  0.
        -24    2    5    5    0    0  0.46979068674E+02  0.10062259939E+03  0.87063420437E+02  0.16098447770E+03  0.77485627577E+02 0.  0.
          5    1    3    3  501    0 -0.14815713902E+02 -0.91815859530E+02 -0.68616495790E+02  0.11567182429E+03  0.47000000000E+01 0. -1.
        -13    1    4    4    0    0  0.36816955924E+02  0.23982474617E+02 -0.97403592090E+02  0.10685554307E+03  0.00000000000E+00 0.  1.
         14    1    4    4    0    0 -0.34752738822E+02  0.25584527825E+01 -0.26239375773E+02  0.43621134525E+02  0.00000000000E+00 0. -1.
         -5    1    5    5    0  502 -0.34227571875E+02 -0.35347667258E+02  0.26513557445E+02  0.56089597836E+02  0.47000000000E+01 0.  1.
         11    1    6    6    0    0 -0.10267852149E+02  0.60308446762E+02  0.60665953403E+02  0.86156226942E+02  0.00000000000E+00 0. -1.
        -12    1    6    6    0    0  0.57246920823E+02  0.40314152626E+02  0.26397467034E+02  0.74828250758E+02  0.00000000000E+00 0.  1.
</event>
<event>
12    1  0.8421768E-002  0.1950104E+03  0.7818608E-02  0.1156213E+00
         21   -1    0    0  503  502  0.00000000000E+00  0.00000000000E+00  0.14509983448E+04  0.14509983448E+04  0.00000000000E+00 0.  1.
         21   -1    0    0  501  503 -0.00000000000E+00 -0.00000000000E+00 -0.61488119567E+02  0.61488119567E+02  0.00000000000E+00 0.  1.
          6    2    1    2  501    0  0.87160282051E+02  0.42239617475E+02  0.10429357158E+03  0.21255919178E+03  0.15787070940E+03 0.  0.
         24    2    3    3    0    0  0.89934657137E+02 -0.97452664803E+01  0.10163246445E+03  0.16022089980E+03  0.84607128115E+02 0.  0.
         -6    2    1    2    0  502 -0.87160282051E+02 -0.42239617475E+02  0.12852166536E+04  0.12999272725E+04  0.16925710364E+03 0.  0.
        -24    2    5    5    0    0 -0.81400757729E+02 -0.86613091185E+02  0.11127296163E+04  0.11216689058E+04  0.76459297832E+02 0.  0.
          5    1    3    3  501    0 -0.27743750861E+01  0.51984883955E+02  0.26611071296E+01  0.52338291987E+02  0.47000000000E+01 0. -1.
        -13    1    4    4    0    0  0.50845631031E+02  0.12082449502E+02  0.35242710163E+01  0.52380189644E+02  0.00000000000E+00 0.  1.
         14    1    4    4    0    0  0.39089026106E+02 -0.21827715983E+02  0.98108193437E+02  0.10784071015E+03  0.00000000000E+00 0. -1.
         -5    1    5    5    0  502 -0.57595243225E+01  0.44373473711E+02  0.17248703728E+03  0.17825836676E+03  0.47000000000E+01 0.  1.
         11    1    6    6    0    0 -0.11634273400E+02  0.12420293180E+02  0.23554433762E+03  0.23615832610E+03  0.00000000000E+00 0. -1.
        -12    1    6    6    0    0 -0.69766484328E+02 -0.99033384365E+02  0.87718527870E+03  0.88551057967E+03  0.00000000000E+00 0.  1.
</event>
<event>
12    1  0.8421768E-002  0.2048320E+03  0.7818608E-02  0.1145806E+00
         21   -1    0    0  501  502  0.00000000000E+00  0.00000000000E+00  0.25088183706E+03  0.25088183706E+03  0.00000000000E+00 0. -1.
         21   -1    0    0  502  503 -0.00000000000E+00 -0.00000000000E+00 -0.29576064125E+03  0.29576064125E+03  0.00000000000E+00 0. -1.
         -6    2    1    2    0  503 -0.89141296077E+02  0.67574078918E+02 -0.20285347192E+03  0.28828057873E+03  0.17159176610E+03 0.  0.
        -24    2    3    3    0    0 -0.34641578581E+02  0.11918870170E+02 -0.20259395764E+02  0.89709664148E+02  0.79342815001E+02 0.  0.
          6    2    1    2  501    0  0.89141296077E+02 -0.67574078918E+02  0.15797466773E+03  0.25836189958E+03  0.17112115212E+03 0.  0.
         24    2    5    5    0    0  0.10869075483E+03 -0.89381283509E+02  0.16110975597E+03  0.22853482651E+03  0.80430836342E+02 0.  0.
          5    1    5    5  501    0 -0.19549458749E+02  0.21807204591E+02 -0.31350882385E+01  0.29827073067E+02  0.47000000000E+01 0. -1.
        -11    1    6    6    0    0  0.28307413278E+01 -0.26732824398E+02  0.13642510182E+01  0.26916875332E+02  0.00000000000E+00 0.  1.
         12    1    6    6    0    0  0.10586001350E+03 -0.62648459111E+02  0.15974550495E+03  0.20161795118E+03  0.00000000000E+00 0. -1.
         -5    1    3    3    0  503 -0.54499717496E+02  0.55655208748E+02 -0.18259407616E+03  0.19857091458E+03  0.47000000000E+01 0.  1.
         11    1    4    4    0    0 -0.43354566121E+02 -0.18028754458E+02 -0.31517174696E+02  0.56550744395E+02  0.00000000000E+00 0. -1.
        -12    1    4    4    0    0  0.87129875403E+01  0.29947624628E+02  0.11257778932E+02  0.33158919753E+02  0.00000000000E+00 0.  1.
</event>
<event>
12    1  0.8421768E-002  0.2350164E+03  0.7818608E-02  0.1123354E+00
         21   -1    0    0  503  502  0.00000000000E+00  0.00000000000E+00  0.33156060033E+03  0.33156060033E+03  0.00000000000E+00 0.  1.
         21   -1    0    0  501  503 -0.00000000000E+00 -0.00000000000E+00 -0.21526940425E+03  0.21526940425E+03  0.00000000000E+00 0.  1.
          6    2    1    2  501    0  0.14114831452E+03  0.72378525952E+02 -0.73067832284E+02  0.24501953498E+03  0.17185507469E+03 0.  0.
         24    2    3    3    0    0  0.14499117604E+03  0.49747596976E+01 -0.60240861272E+02  0.17613806813E+03  0.79677276033E+02 0.  0.
         -6    2    1    2    0  502 -0.14114831452E+03 -0.72378525952E+02  0.18935902836E+03  0.30181046960E+03  0.17341055397E+03 0.  0.
        -24    2    5    5    0    0 -0.10483836335E+03  0.11107043081E+02  0.15728168135E+03  0.20517042106E+03  0.79012186105E+02 0.  0.
          5    1    3    3  501    0 -0.38428615172E+01  0.67403766254E+02 -0.12826971011E+02  0.68881466849E+02  0.47000000000E+01 0. -1.
        -11    1    4    4    0    0  0.14197395491E+03  0.25079110207E+02 -0.46058548064E+02  0.15135043935E+03  0.00000000000E+00 0.  1.
         12    1    4    4    0    0  0.30172211269E+01 -0.20104350510E+02 -0.14182313209E+02  0.24787628783E+02  0.00000000000E+00 0. -1.
         -5    1    5    5    0  502 -0.36309951167E+02 -0.83485569033E+02  0.32077347009E+02  0.96640048539E+02  0.47000000000E+01 0.  1.
         13    1    6    6    0    0 -0.15877218030E+02  0.27399624742E+02  0.11653157441E+02  0.33743467023E+02  0.00000000000E+00 0. -1.
        -14    1    6    6    0    0 -0.88961145323E+02 -0.16292581662E+02  0.14562852391E+03  0.17142695404E+03  0.00000000000E+00 0.  1.
</event>
<event>
12    1  0.8421768E-002  0.2290638E+03  0.7818608E-02  0.1128301E+00
         21   -1    0    0  503  502  0.00000000000E+00  0.00000000000E+00  0.81320690040E+02  0.81320690040E+02  0.00000000000E+00 0. -1.
         21   -1    0    0  501  503 -0.00000000000E+00 -0.00000000000E+00 -0.62960393173E+03  0.62960393173E+03  0.00000000000E+00 0. -1.
          6    2    1    2  501    0 -0.92237274731E+02 -0.11701412094E+03 -0.27095453621E+03  0.35122830076E+03  0.16656812183E+03 0.  0.
         24    2    3    3    0    0 -0.16802782035E+01 -0.65683142591E+02 -0.19576966923E+03  0.22273591506E+03  0.83477098139E+02 0.  0.
         -6    2    1    2    0  502  0.92237274731E+02  0.11701412094E+03 -0.27732870548E+03  0.35969632102E+03  0.17398337024E+03 0.  0.
        -24    2    5    5    0    0  0.99063030300E+02  0.13596059695E+03 -0.28234613254E+03  0.33841664840E+03  0.80670449716E+02 0.  0.
          5    1    3    3  501    0 -0.90556996528E+02 -0.51330978345E+02 -0.75184866979E+02  0.12849238569E+03  0.47000000000E+01 0. -1.
        -13    1    4    4    0    0  0.35106033353E+02 -0.38176963464E+02 -0.59491094228E+02  0.78924675543E+02  0.00000000000E+00 0.  1.
         14    1    4    4    0    0 -0.36786311557E+02 -0.27506179127E+02 -0.13627857500E+03  0.14381123952E+03  0.00000000000E+00 0. -1.
         -5    1    5    5    0  502 -0.68257555691E+01 -0.18946476012E+02  0.50174270604E+01  0.21279672616E+02  0.47000000000E+01 0.  1.
         13    1    6    6    0    0  0.45257668860E+02  0.72547929211E+02 -0.70470483136E+02  0.11080409567E+03  0.00000000000E+00 0. -1.
        -14    1    6    6    0    0  0.53805361440E+02  0.63412667736E+02 -0.21187564941E+03  0.22761255273E+03  0.00000000000E+00 0.  1.
</event>
<event>
12    1  0.8421768E-002  0.1835938E+03  0.7818608E-02  0.1164946E+00
         21   -1    0    0  501  502  0.00000000000E+00  0.00000000000E+00  0.30425785528E+02  0.30425785528E+02  0.00000000000E+00 0. -1.
         21   -1    0    0  502  503 -0.00000000000E+00 -0.00000000000E+00 -0.11131320415E+04  0.11131320415E+04  0.00000000000E+00 0. -1.
         -6    2    1    2    0  503  0.56864415143E+01 -0.63520085213E+02 -0.61427811279E+03  0.64043596050E+03  0.16956851950E+03 0.  0.
        -24    2    3    3    0    0  0.30432075267E+02  0.21519765946E+02 -0.37813495507E+03  0.38818647366E+03  0.79457426037E+02 0.  0.
          6    2    1    2  501    0 -0.56864415143E+01  0.63520085213E+02 -0.46842814317E+03  0.50312186652E+03  0.17216140802E+03 0.  0.
         24    2    5    5    0    0 -0.17473265931E+02 -0.29989679616E+02 -0.26051091226E+03  0.27479168835E+03  0.80248617925E+02 0.  0.
          5    1    5    5  501    0  0.11786824417E+02  0.93509764829E+02 -0.20791723091E+03  0.22833017816E+03  0.47000000000E+01 0. -1.
        -11    1    6    6    0    0 -0.11353639731E+02  0.15255773744E+02 -0.12835907218E+02  0.22943501951E+02  0.00000000000E+00 0.  1.
         12    1    6    6    0    0 -0.61196262007E+01 -0.45245453360E+02 -0.24767500504E+03  0.25184818640E+03  0.00000000000E+00 0. -1.
         -5    1    3    3    0  503 -0.24745633753E+02 -0.85039851159E+02 -0.23614315772E+03  0.25224948685E+03  0.47000000000E+01 0.  1.
         11    1    4    4    0    0 -0.13526563796E+02  0.30949814793E+02 -0.82406021193E+02  0.89059594052E+02  0.00000000000E+00 0. -1.
        -12    1    4    4    0    0  0.43958639064E+02 -0.94300488472E+01 -0.29572893388E+03  0.29912687961E+03  0.00000000000E+00 0.  1.
</event>
<event>
12    1  0.8421768E-002  0.1966317E+03  0.7818608E-02  0.1152980E+00
         21   -1    0    0  503  502  0.00000000000E+00  0.00000000000E+00  0.62529807717E+03  0.62529807717E+03  0.00000000000E+00 0.  1.
         21   -1    0    0  501  503 -0.00000000000E+00 -0.00000000000E+00 -0.72655040019E+02  0.72655040019E+02  0.00000000000E+00 0. -1.
          6    2    1    2  501    0 -0.23522887005E+02  0.89177217937E+02  0.41528705718E+03  0.45948597676E+03  0.17366093562E+03 0.  0.
         24    2    3    3    0    0 -0.52707725452E+02 -0.18407729267E+01  0.16150190736E+03  0.18825725091E+03  0.81095213613E+02 0.  0.
         -6    2    1    2    0  502  0.23522887005E+02 -0.89177217937E+02  0.13735597997E+03  0.23846714043E+03  0.17173820024E+03 0.  0.
        -24    2    5    5    0    0 -0.17226111809E+02 -0.59343520150E+02  0.87209556710E+01  0.10019353520E+03  0.78385567015E+02 0.  0.
          5    1    3    3  501    0  0.29184838447E+02  0.91017990863E+02  0.25378514982E+03  0.27122872585E+03  0.47000000000E+01 0. -1.
        -13    1    4    4    0    0 -0.59430383229E+01  0.26389660208E+02  0.10966330814E+03  0.11295032104E+03  0.00000000000E+00 0.  1.
         14    1    4    4    0    0 -0.46764687129E+02 -0.28230433135E+02  0.51838599222E+02  0.75306929870E+02  0.00000000000E+00 0. -1.
         -5    1    5    5    0  502  0.40748998814E+02 -0.29833697787E+02  0.12863502430E+03  0.13827360523E+03  0.47000000000E+01 0.  1.
         13    1    6    6    0    0 -0.19239073627E+02 -0.72768871969E+02  0.24707505916E+02  0.79220650908E+02  0.00000000000E+00 0. -1.
        -14    1    6    6    0    0  0.20129618184E+01  0.13425351820E+02 -0.15986550245E+02  0.20972884292E+02  0.00000000000E+00 0.  1.
</event>
<event>
12    1  0.8421768E-002  0.1906174E+03  0.7818608E-02  0.1160835E+00
         21   -1    0    0  501  502  0.00000000000E+00  0.00000000000E+00  0.19218238531E+02  0.19218238531E+02  0.00000000000E+00 0. -1.
         21   -1    0    0  502  503 -0.00000000000E+00 -0.00000000000E+00 -0.17692996122E+04  0.17692996122E+04  0.00000000000E+00 0. -1.
         -6    2    1    2    0  503 -0.83099649997E+02  0.46053496240E+01 -0.86987204439E+03  0.88790502591E+03  0.15738869193E+03 0.  0.
        -24    2    3    3    0    0 -0.65171945743E+02  0.47871830044E+02 -0.76247937945E+03  0.77065032284E+03  0.77382306706E+02 0.  0.
          6    2    1    2  501    0  0.83099649997E+02 -0.46053496240E+01 -0.88020932930E+03  0.90061282484E+03  0.17148829642E+03 0.  0.
         24    2    5    5    0    0  0.68194146488E+02  0.30948080266E+02 -0.82871187617E+03  0.83611245205E+03  0.81929442072E+02 0.  0.
          5    1    5    5  501    0  0.14905503509E+02 -0.35553429890E+02 -0.51497453134E+02  0.64500372798E+02  0.47000000000E+01 0. -1.
        -13    1    6    6    0    0 -0.11270956650E+02  0.28193878033E+01 -0.33894929425E+03  0.33914835616E+03  0.00000000000E+00 0.  1.
         14    1    6    6    0    0  0.79465103138E+02  0.28128692463E+02 -0.48976258191E+03  0.49696409589E+03  0.00000000000E+00 0. -1.
         -5    1    3    3    0  503 -0.17927704255E+02 -0.43266480420E+02 -0.10739266494E+03  0.11725470307E+03  0.47000000000E+01 0.  1.
         13    1    4    4    0    0 -0.62704810152E+02  0.66345429251E+02 -0.56914430358E+03  0.57641898607E+03  0.00000000000E+00 0. -1.
        -14    1    4    4    0    0 -0.24671355910E+01 -0.18473599208E+02 -0.19333507586E+03  0.19423133677E+03  0.00000000000E+00 0.  1.
</event>
<event>
12    1  0.8421768E-002  0.2294596E+03  0.7818608E-02  0.1127036E+00
         21   -1    0    0  503  502  0.00000000000E+00  0.00000000000E+00  0.72903321540E+02  0.72903321540E+02  0.00000000000E+00 0. -1.
         21   -1    0    0  501  503 -0.00000000000E+00 -0.00000000000E+00 -0.78316221868E+03  0.78316221868E+03  0.00000000000E+00 0.  1.
          6    2    1    2  501    0  0.51374823918E+02 -0.14214123667E+03 -0.23551557515E+03  0.32881498565E+03  0.17265052840E+03 0.  0.
         24    2    3    3    0    0 -0.98485653389E+01 -0.59072699780E+01 -0.77459636666E+02  0.11130230381E+03  0.79096886430E+02 0.  0.
         -6    2    1    2    0  502 -0.51374823918E+02  0.14214123667E+03 -0.47474332200E+03  0.52725055457E+03  0.17253527703E+03 0.  0.
        -24    2    5    5    0    0 -0.72130370395E+02  0.39255225663E+02 -0.32287744010E+03  0.34258420665E+03  0.79814373664E+02 0.  0.
          5    1    3    3  501    0  0.61223389257E+02 -0.13623396670E+03 -0.15805593848E+03  0.21751268184E+03  0.47000000000E+01 0. -1.
        -11    1    4    4    0    0 -0.76129843384E+01 -0.26343772148E+02  0.36174872197E+01  0.27659321671E+02  0.00000000000E+00 0.  1.
         12    1    4    4    0    0 -0.22355810004E+01  0.20436502170E+02 -0.81077123885E+02  0.83642982138E+02  0.00000000000E+00 0. -1.
         -5    1    5    5    0  502  0.20755546477E+02  0.10288601101E+03 -0.15186588190E+03  0.18466634793E+03  0.47000000000E+01 0.  1.
         13    1    6    6    0    0 -0.67466848102E+02  0.33498934634E+02 -0.13525527116E+03  0.15481583444E+03  0.00000000000E+00 0. -1.
        -14    1    6    6    0    0 -0.46635222926E+01  0.57562910291E+01 -0.18762216894E+03  0.18776837221E+03  0.00000000000E+00 0.  1.
</event>
<event>
12    1  0.8421768E-002  0.2955686E+03  0.7818608E-02  0.1087530E+00
         21   -1    0    0  501  502  0.00000000000E+00  0.00000000000E+00  0.10869896352E+03  0.10869896352E+03  0.00000000000E+00 0.  1.
         21   -1    0    0  502  503 -0.00000000000E+00 -0.00000000000E+00 -0.81695994740E+03  0.81695994740E+03  0.00000000000E+00 0. -1.
         -6    2    1    2    0  503  0.23897672627E+03 -0.22910336148E+02 -0.41582650966E+03  0.51016906155E+03  0.17241237202E+03 0.  0.
        -24    2    3    3    0    0  0.42541761857E+02 -0.48214908155E+01 -0.18817399121E+03  0.20890230147E+03  0.79985450664E+02 0.  0.
          6    2    1    2  501    0 -0.23897672627E+03  0.22910336148E+02 -0.29243447422E+03  0.41548984937E+03  0.17169488640E+03 0.  0.
         24    2    5    5    0    0 -0.15236535745E+03  0.23839424465E+02 -0.89627613617E+02  0.19491082697E+03  0.78572266347E+02 0.  0.
          5    1    5    5  501    0 -0.86611368820E+02 -0.92908831653E+00 -0.20280686061E+03  0.22057902240E+03  0.47000000000E+01 0. -1.
        -13    1    6    6    0    0 -0.79430492059E+02 -0.27295890405E+02 -0.42140477656E+02  0.93968550903E+02  0.00000000000E+00 0.  1.
         14    1    6    6    0    0 -0.72934865390E+02  0.51135314870E+02 -0.47487135961E+02  0.10094227607E+03  0.00000000000E+00 0. -1.
         -5    1    3    3    0  503  0.19643496441E+03 -0.18088845332E+02 -0.22765251845E+03  0.30126676007E+03  0.47000000000E+01 0.  1.
         13    1    4    4    0    0  0.47934502117E+02 -0.11207741979E+02 -0.19304855221E+03  0.19922618674E+03  0.00000000000E+00 0. -1.
        -14    1    4    4    0    0 -0.53927402592E+01  0.63862511636E+01  0.48745609984E+01  0.96761147345E+01  0.00000000000E+00 0.  1.
</event>
<event>
12    1  0.8421768E-002  0.2211363E+03  0.7818608E-02  0.1133504E+00
         21   -1    0    0  503  502  0.00000000000E+00  0.00000000000E+00  0.32666704697E+03  0.32666704697E+03  0.00000000000E+00 0.  1.
         21   -1    0    0  501  503 -0.00000000000E+00 -0.00000000000E+00 -0.22567141515E+03  0.22567141515E+03  0.00000000000E+00 0.  1.
          6    2    1    2  501    0  0.73614631303E+02  0.11308582835E+03 -0.11131905478E+03  0.24757464286E+03  0.17519632791E+03 0.  0.
         24    2    3    3    0    0  0.72794372203E+02  0.41030619346E+02 -0.15244175343E+01  0.11616087517E+03  0.80675229926E+02 0.  0.
         -6    2    1    2    0  502 -0.73614631303E+02 -0.11308582835E+03  0.21231468659E+03  0.30476381927E+03  0.17203470834E+03 0.  0.
        -24    2    5    5    0    0  0.17258633910E+02 -0.87690548367E+02  0.90542775653E+02  0.15064257196E+03  0.80670301521E+02 0.  0.
          5    1    3    3  501    0  0.82025909932E+00  0.72055209008E+02 -0.10979463724E+03  0.13141376768E+03  0.47000000000E+01 0. -1.
        -13    1    4    4    0    0  0.12010718170E+02  0.38584557685E+02 -0.28668249835E+02  0.49546886797E+02  0.00000000000E+00 0.  1.
         14    1    4    4    0    0  0.60783654033E+02  0.24460616614E+01  0.27143832301E+02  0.66613988375E+02  0.00000000000E+00 0. -1.
         -5    1    5    5    0  502 -0.90873265213E+02 -0.25395279987E+02  0.12177191094E+03  0.15412124730E+03  0.47000000000E+01 0.  1.
         13    1    6    6    0    0  0.89055596471E+01  0.14745410755E+02  0.89241293034E+01  0.19400417902E+02  0.00000000000E+00 0. -1.
        -14    1    6    6    0    0  0.83530742630E+01 -0.10243595912E+03  0.81618646350E+02  0.13124215406E+03  0.00000000000E+00 0.  1.
</event>
<event>
12    1  0.8421768E-002  0.2396132E+03  0.7818608E-02  0.1120192E+00
         21   -1    0    0  501  502  0.00000000000E+00  0.00000000000E+00  0.57012878628E+03  0.57012878628E+03  0.00000000000E+00 0. -1.
         21   -1    0    0  502  503 -0.00000000000E+00 -0.00000000000E+00 -0.16339219184E+03  0.16339219184E+03  0.00000000000E+00 0. -1.
         -6    2    1    2    0  503 -0.13986058572E+03 -0.89354651206E+02 -0.24667698971E+02  0.24003931822E+03  0.17165413421E+03 0.  0.
        -24    2    3    3    0    0 -0.15306889483E+03 -0.28112277252E+02 -0.31233722954E+02  0.17687057225E+03  0.78020940659E+02 0.  0.
          6    2    1    2  501    0  0.13986058572E+03  0.89354651206E+02  0.43140429341E+03  0.49348165989E+03  0.17282721762E+03 0.  0.
         24    2    5    5    0    0 -0.30655382784E+00  0.16193936674E+02  0.15552590286E+03  0.17547176456E+03  0.79622208816E+02 0.  0.
          5    1    5    5  501    0  0.14016713955E+03  0.73160714531E+02  0.27587839054E+03  0.31800989533E+03  0.47000000000E+01 0. -1.
        -11    1    6    6    0    0 -0.24371614494E+02  0.39053618494E+02  0.10897649239E+03  0.11830061962E+03  0.00000000000E+00 0.  1.
         12    1    6    6    0    0  0.24065060666E+02 -0.22859681820E+02  0.46549410476E+02  0.57171144937E+02  0.00000000000E+00 0. -1.
         -5    1    3    3    0  503  0.13208309112E+02 -0.61242373954E+02  0.65660239834E+01  0.63168745975E+02  0.47000000000E+01 0.  1.
         13    1    4    4    0    0 -0.96701480609E+02  0.16622506123E+02  0.74688209990E+00  0.98122586057E+02  0.00000000000E+00 0. -1.
        -14    1    4    4    0    0 -0.56367414222E+02 -0.44734783375E+02 -0.31980605054E+02  0.78747986192E+02  0.00000000000E+00 0.  1.
</event>
<event>
12    1  0.8421768E-002  0.2508330E+03  0.7818608E-02  0.1112947E+00
         21   -1    0    0  501  502  0.00000000000E+00  0.00000000000E+00  0.13330966355E+03  0.13330966355E+03  0.00000000000E+00 0. -1.
         21   -1    0    0  502  503 -0.00000000000E+00 -0.00000000000E+00 -0.67985289367E+03  0.67985289367E+03  0.00000000000E+00 0. -1.
         -6    2    1    2    0  503  0.15342832014E+03 -0.95375330731E+02 -0.49957978938E+03  0.55901443977E+03  0.17401285811E+03 0.  0.
        -24    2    3    3    0    0  0.16428789359E+03 -0.12382098988E+03 -0.43919569660E+03  0.49122495297E+03  0.78018875899E+02 0.  0.
          6    2    1    2  501    0 -0.15342832014E+03  0.95375330731E+02 -0.46963440736E+02  0.25414811745E+03  0.17247897757E+03 0.  0.
         24    2    5    5    0    0 -0.11970542557E+03  0.15418818651E+02  0.18422478784E+02  0.14539295245E+03  0.78946779662E+02 0.  0.
          5    1    5    5  501    0 -0.33722894570E+02  0.79956512080E+02 -0.65385919519E+02  0.10875516500E+03  0.47000000000E+01 0. -1.
        -13    1    6    6    0    0 -0.31569299320E+02 -0.28555685846E+02  0.19657585904E+02  0.46887829308E+02  0.00000000000E+00 0.  1.
         14    1    6    6    0    0 -0.88136126250E+02  0.43974504496E+02 -0.12351071208E+01  0.98505123144E+02  0.00000000000E+00 0. -1.
         -5    1    3    3    0  503 -0.10859573448E+02  0.28445659151E+02 -0.60384092780E+02  0.67789486802E+02  0.47000000000E+01 0.  1.
         11    1    4    4    0    0  0.65642812566E+02 -0.95610682276E+01 -0.10056195317E+03  0.12047032536E+03  0.00000000000E+00 0. -1.
        -12    1    4    4    0    0  0.98645081021E+02 -0.11425992165E+03 -0.33863374343E+03  0.37075462761E+03  0.00000000000E+00 0.  1.
</event>
<event>
12    1  0.8421768E-002  0.2305165E+03  0.7818608E-02  0.1126519E+00
         21   -1    0    0  503  502  0.00000000000E+00  0.00000000000E+00  0.43365703917E+03  0.43365703917E+03  0.00000000000E+00 0. -1.
         21   -1    0    0  501  503 -0.00000000000E+00 -0.00000000000E+00 -0.13501950642E+03  0.13501950642E+03  0.00000000000E+00 0. -1.
          6    2    1    2  501    0 -0.14484428324E+03 -0.44116696842E+02  0.59952890723E+02  0.23685094319E+03  0.17198218180E+03 0.  0.
         24    2    3    3    0    0 -0.37700465492E+02 -0.76890136147E+02  0.27189551697E+02  0.12002020070E+03  0.79574862366E+02 0.  0.
         -6    2    1    2    0  502  0.14484428324E+03  0.44116696842E+02  0.23868464203E+03  0.33182560240E+03  0.17381519708E+03 0.  0.
        -24    2    5    5    0    0  0.19890614883E+02  0.25693654916E+02  0.86731666053E+02  0.13417787380E+03  0.97085114506E+02 0.  0.
          5    1    3    3  501    0 -0.10714381775E+03  0.32773439305E+02  0.32763339026E+02  0.11683074249E+03  0.47000000000E+01 0. -1.
        -13    1    4    4    0    0  0.20705673234E+02 -0.60274100747E+01 -0.59867671313E+01  0.22380705015E+02  0.00000000000E+00 0.  1.
         14    1    4    4    0    0 -0.58406138727E+02 -0.70862726072E+02  0.33176318828E+02  0.97639495689E+02  0.00000000000E+00 0. -1.
         -5    1    5    5    0  502  0.12495366836E+03  0.18423041926E+02  0.15195297598E+03  0.19764772859E+03  0.47000000000E+01 0.  1.
         13    1    6    6    0    0  0.56000731226E+02  0.90928487883E+01  0.72284463243E+02  0.91890181321E+02  0.00000000000E+00 0. -1.
        -14    1    6    6    0    0 -0.36110116343E+02  0.16600806128E+02  0.14447202810E+02  0.42287692482E+02  0.00000000000E+00 0.  1.
</event>
<event>
12    1  0.8421768E-002  0.1896541E+03  0.7818608E-02  0.1158936E+00
         21   -1    0    0  501  502  0.00000000000E+00  0.00000000000E+00  0.49329901497E+02  0.49329901497E+02  0.00000000000E+00 0.  1.
         21   -1    0    0  502  503 -0.00000000000E+00 -0.00000000000E+00 -0.73280602834E+03  0.73280602834E+03  0.00000000000E+00 0.  1.
         -6    2    1    2    0  503 -0.68068794233E+02 -0.38910953500E+02 -0.30451502509E+03  0.35836690397E+03  0.17190117599E+03 0.  0.
        -24    2    3    3    0    0  0.73641991027E+01  0.20161378913E+02 -0.20112135785E+03  0.21732784071E+03  0.79503944149E+02 0.  0.
          6    2    1    2  501    0  0.68068794233E+02  0.38910953500E+02 -0.37896110176E+03  0.42376902587E+03  0.17268829605E+03 0.  0.
         24    2    5    5    0    0 -0.27094516561E+02  0.30803352162E+01 -0.13353255782E+03  0.15806778555E+03  0.80067968241E+02 0.  0.
          5    1    5    5  501    0  0.95163310794E+02  0.35830618284E+02 -0.24542854394E+03  0.26570124032E+03  0.47000000000E+01 0. -1.
        -13    1    6    6    0    0 -0.92988812768E+01 -0.38021454371E+02 -0.52561691599E+02  0.65534964784E+02  0.00000000000E+00 0.  1.
         14    1    6    6    0    0 -0.17795635285E+02  0.41101789587E+02 -0.80970866221E+02  0.92532820767E+02  0.00000000000E+00 0. -1.
         -5    1    3    3    0  503 -0.75432993336E+02 -0.59072332414E+02 -0.10339366723E+03  0.14103906326E+03  0.47000000000E+01 0.  1.
         13    1    4    4    0    0  0.10260968194E+02 -0.23744699388E+02 -0.13787734790E+03  0.14028279040E+03  0.00000000000E+00 0. -1.
        -14    1    4    4    0    0 -0.28967690910E+01  0.43906078301E+02 -0.63244009949E+02  0.77045050311E+02  0.00000000000E+00 0.  1.
</event>
<event>
12    1  0.8421768E-002  0.1895134E+03  0.7818608E-02  0.1159416E+00
         21   -1    0    0  501  502  0.00000000000E+00  0.00000000000E+00  0.85882551324E+02  0.85882551324E+02  0.00000000000E+00 0. -1.
         21   -1    0    0  502  503 -0.00000000000E+00 -0.00000000000E+00 -0.42994956925E+03  0.42994956925E+03  0.00000000000E+00 0. -1.
         -6    2    1    2    0  503  0.70980432282E+02 -0.29150433726E+02 -0.22192710674E+03  0.29036933096E+03  0.17080614188E+03 0.  0.
        -24    2    3    3    0    0  0.14499967317E+02 -0.76687408066E+02 -0.15646224305E+03  0.19158904330E+03  0.78324455983E+02 0.  0.
          6    2    1    2  501    0 -0.70980432282E+02  0.29150433726E+02 -0.12213991118E+03  0.22546278961E+03  0.17328399246E+03 0.  0.
         24    2    5    5    0    0  0.67542328683E+01  0.17936700828E+01 -0.68495645041E+00  0.78614341501E+02  0.78300118840E+02 0.  0.
          5    1    5    5  501    0 -0.77734665150E+02  0.27356763643E+02 -0.12145495473E+03  0.14684844811E+03  0.47000000000E+01 0. -1.
        -11    1    6    6    0    0 -0.31955899772E+01  0.10022715611E+02  0.37163679207E+02  0.38623900317E+02  0.00000000000E+00 0.  1.
         12    1    6    6    0    0  0.99498228455E+01 -0.82290455286E+01 -0.37848635657E+02  0.39990441184E+02  0.00000000000E+00 0. -1.
         -5    1    3    3    0  503  0.56480464965E+02  0.47536974340E+02 -0.65464863690E+02  0.98780287659E+02  0.47000000000E+01 0.  1.
         13    1    4    4    0    0 -0.73613824818E+01 -0.67466319768E+02 -0.54899668989E+02  0.87291854776E+02  0.00000000000E+00 0. -1.
        -14    1    4    4    0    0  0.21861349799E+02 -0.92210882972E+01 -0.10156257406E+03  0.10429718853E+03  0.00000000000E+00 0.  1.
</event>
<event>
12    1  0.8421768E-002  0.2410343E+03  0.7818608E-02  0.1119206E+00
         21   -1    0    0  503  502  0.00000000000E+00  0.00000000000E+00  0.16088768113E+03  0.16088768113E+03  0.00000000000E+00 0. -1.
         21   -1    0    0  501  503 -0.00000000000E+00 -0.00000000000E+00 -0.42902684683E+03  0.42902684683E+03  0.00000000000E+00 0.  1.
          6    2    1    2  501    0 -0.55692591391E+02  0.15864761170E+03 -0.25234973713E+03  0.34896697120E+03  0.17270445195E+03 0.  0.
         24    2    3    3    0    0 -0.94586958698E+02  0.66944907868E+02 -0.14665687383E+03  0.20365616963E+03  0.80865835452E+02 0.  0.
         -6    2    1    2    0  502  0.55692591391E+02 -0.15864761170E+03 -0.15789428567E+02  0.24094755675E+03  0.17185950546E+03 0.  0.
        -24    2    5    5    0    0  0.29909337286E+02 -0.18149687799E+03 -0.26246312878E+02  0.20463913360E+03  0.85747424954E+02 0.  0.
          5    1    3    3  501    0  0.38894367307E+02  0.91702703832E+02 -0.10569286330E+03  0.14531080157E+03  0.47000000000E+01 0. -1.
        -13    1    4    4    0    0  0.13053291817E+02 -0.83682861923E+00 -0.21746956372E+02  0.25377525901E+02  0.00000000000E+00 0.  1.
         14    1    4    4    0    0 -0.10764025052E+03  0.67781736488E+02 -0.12490991746E+03  0.17827864373E+03  0.00000000000E+00 0. -1.
         -5    1    5    5    0  502  0.25783254105E+02  0.22849266288E+02  0.10456884311E+02  0.36308423150E+02  0.47000000000E+01 0.  1.
         11    1    6    6    0    0  0.54252702875E+02 -0.92908720290E+02  0.47098479060E+01  0.10769200872E+03  0.00000000000E+00 0. -1.
        -12    1    6    6    0    0 -0.24343365589E+02 -0.88588157698E+02 -0.30956160784E+02  0.96947124883E+02  0.00000000000E+00 0.  1.
</event>
<event>
12    1  0.8421768E-002  0.1882632E+03  0.7818608E-02  0.1161255E+00
         21   -1    0    0  503  502  0.00000000000E+00  0.00000000000E+00  0.52865147105E+03  0.52865147105E+03  0.00000000000E+00 0.  1.
         21   -1    0    0  501  503 -0.00000000000E+00 -0.00000000000E+00 -0.65425250735E+02  0.65425250735E+02  0.00000000000E+00 0.  1.
          6    2    1    2  501    0  0.54061947926E+02 -0.46365967434E+02  0.21691824511E+03  0.28722217003E+03  0.17427149149E+03 0.  0.
         24    2    3    3    0    0  0.53035536119E+02  0.16421054665E+01  0.21818244029E+03  0.23895710219E+03  0.81740166581E+02 0.  0.
         -6    2    1    2    0  502 -0.54061947926E+02  0.46365967434E+02  0.24630797520E+03  0.30685455175E+03  0.16858113813E+03 0.  0.
        -24    2    5    5    0    0 -0.10911518723E+01  0.63569272854E+01  0.22334038284E+03  0.23645406292E+03  0.77382143466E+02 0.  0.
          5    1    3    3  501    0  0.10264118073E+01 -0.48008072901E+02 -0.12641951762E+01  0.48265067847E+02  0.47000000000E+01 0. -1.
        -13    1    4    4    0    0 -0.63572666236E+00  0.19880596006E+02  0.14515331549E+03  0.14650981962E+03  0.00000000000E+00 0.  1.
         14    1    4    4    0    0  0.53671262781E+02 -0.18238490540E+02  0.73029124800E+02  0.92447282571E+02  0.00000000000E+00 0. -1.
         -5    1    5    5    0  502 -0.52970796054E+02  0.40009040149E+02  0.22967592353E+02  0.70400488825E+02  0.47000000000E+01 0.  1.
         11    1    6    6    0    0  0.32195523067E+02  0.19197910212E+02  0.74518272441E+02  0.83415132858E+02  0.00000000000E+00 0. -1.
        -12    1    6    6    0    0 -0.33286674940E+02 -0.12840982926E+02  0.14882211040E+03  0.15303893007E+03  0.00000000000E+00 0.  1.
</event>
<event>
12    1  0.8421768E-002  0.1984035E+03  0.7818608E-02  0.1151574E+00
         21   -1    0    0  503  502  0.00000000000E+00  0.00000000000E+00  0.84993422937E+02  0.84993422937E+02  0.00000000000E+00 0. -1.
         21   -1    0    0  501  503 -0.00000000000E+00 -0.00000000000E+00 -0.77411700293E+03  0.77411700293E+03  0.00000000000E+00 0.  1.
          6    2    1    2  501    0 -0.33081617101E+02  0.87189890903E+02 -0.62025282059E+03  0.65121232929E+03  0.17512128915E+03 0.  0.
         24    2    3    3    0    0 -0.43610827038E+02  0.11998163654E+03 -0.38427851327E+03  0.41269162463E+03  0.79667458414E+02 0.  0.
         -6    2    1    2    0  502  0.33081617101E+02 -0.87189890903E+02 -0.68870759407E+02  0.20789809657E+03  0.17257452475E+03 0.  0.
        -24    2    5    5    0    0 -0.31034043441E+01 -0.95189692657E+02  0.52079003062E+01  0.12493370403E+03  0.80688285834E+02 0.  0.
          5    1    3    3  501    0  0.10529209937E+02 -0.32791745635E+02 -0.23597430731E+03  0.23852070467E+03  0.47000000000E+01 0. -1.
        -13    1    4    4    0    0  0.83388971436E+01  0.38159223777E+02 -0.20695943138E+03  0.21061308080E+03  0.00000000000E+00 0.  1.
         14    1    4    4    0    0 -0.51949724182E+02  0.81822412761E+02 -0.17731908189E+03  0.20207854383E+03  0.00000000000E+00 0. -1.
         -5    1    5    5    0  502  0.36185021445E+02  0.79998017548E+01 -0.74078659713E+02  0.82964392542E+02  0.47000000000E+01 0.  1.
         13    1    6    6    0    0 -0.32348212009E+02 -0.90185397672E+01  0.48803084212E+01  0.33934617870E+02  0.00000000000E+00 0. -1.
        -14    1    6    6    0    0  0.29244807665E+02 -0.86171152890E+02  0.32759188495E+00  0.90999086162E+02  0.00000000000E+00 0.  1.
</event>
<event>
12    1  0.8421768E-002  0.2354183E+03  0.7818608E-02  0.1122901E+00
         21   -1    0    0  503  502  0.00000000000E+00  0.00000000000E+00  0.62399822844E+03  0.62399822844E+03  0.00000000000E+00 0.  1.
         21   -1    0    0  501  503 -0.00000000000E+00 -0.00000000000E+00 -0.10192813820E+03  0.10192813820E+03  0.00000000000E+00 0. -1.
          6    2    1    2  501    0  0.80691360999E+02 -0.13707966237E+03  0.13071206608E+03  0.26927199810E+03  0.17355067031E+03 0.  0.
         24    2    3    3    0    0  0.74029295316E+01 -0.59390246612E+02  0.12909365281E+03  0.16235357701E+03  0.78176134547E+02 0.  0.
         -6    2    1    2    0  502 -0.80691360999E+02  0.13707966237E+03  0.39135802417E+03  0.45665436854E+03  0.17340755362E+03 0.  0.
        -24    2    5    5    0    0 -0.76261974541E+02  0.10605075741E+03  0.39617771388E+03  0.42459611194E+03  0.79135487560E+02 0.  0.
          5    1    3    3  501    0  0.73288431467E+02 -0.77689415760E+02  0.16184132739E+01  0.10691842110E+03  0.47000000000E+01 0. -1.
        -11    1    4    4    0    0 -0.13402461896E+02  0.13925747340E+02  0.12350109247E+02  0.22936382066E+02  0.00000000000E+00 0.  1.
         12    1    4    4    0    0  0.20805391428E+02 -0.73315993951E+02  0.11674354356E+03  0.13941719494E+03  0.00000000000E+00 0. -1.
         -5    1    5    5    0  502 -0.44293864579E+01  0.31028904963E+02 -0.48196897100E+01  0.32058256604E+02  0.47000000000E+01 0.  1.
         11    1    6    6    0    0 -0.28017179249E+02 -0.59196106738E+01  0.50589812045E+02  0.58132032533E+02  0.00000000000E+00 0. -1.
        -12    1    6    6    0    0 -0.48244795292E+02  0.11197036808E+03  0.34558790183E+03  0.36646407940E+03  0.00000000000E+00 0.  1.
</event>
<event>
12    1  0.8421768E-002  0.1813176E+03  0.7818608E-02  0.1166852E+00
         21   -1    0    0  501  502  0.00000000000E+00  0.00000000000E+00  0.22449211240E+03  0.22449211240E+03  0.00000000000E+00 0. -1.
         21   -1    0    0  502  503 -0.00000000000E+00 -0.00000000000E+00 -0.68355057592E+03  0.68355057592E+03  0.00000000000E+00 0.  1.
         -6    2    1    2    0  503 -0.20096273863E+00 -0.60415853467E+02 -0.63220676376E+03  0.65733085371E+03  0.16955336432E+03 0.  0.
        -24    2    3    3    0    0 -0.62660327476E+02 -0.58507978168E+02 -0.38295836101E+03  0.40032566211E+03  0.79082421121E+02 0.  0.
          6    2    1    2  501    0  0.20096273863E+00  0.60415853467E+02  0.17314830024E+03  0.25071183461E+03  0.17095605986E+03 0.  0.
         24    2    5    5    0    0 -0.62432208415E+02  0.20306931208E+02  0.78790840276E+02  0.13047431957E+03  0.80656056519E+02 0.  0.
          5    1    5    5  501    0  0.62633171154E+02  0.40108922259E+02  0.94357459959E+02  0.12023751504E+03  0.47000000000E+01 0. -1.
        -13    1    6    6    0    0 -0.61324405014E+02  0.46472636627E+02  0.51134875498E+02  0.92385951841E+02  0.00000000000E+00 0.  1.
         14    1    6    6    0    0 -0.11078034013E+01 -0.26165705419E+02  0.27655964778E+02  0.38088367729E+02  0.00000000000E+00 0. -1.
         -5    1    3    3    0  503  0.62459364737E+02 -0.19078752989E+01 -0.24924840276E+03  0.25700519160E+03  0.47000000000E+01 0.  1.
         13    1    4    4    0    0 -0.33361212982E+02 -0.35025506238E+02 -0.69788329747E+02  0.84912705691E+02  0.00000000000E+00 0. -1.
        -14    1    4    4    0    0 -0.29299114494E+02 -0.23482471930E+02 -0.31317003126E+03  0.31541295642E+03  0.00000000000E+00 0.  1.
</event>
<event>
12    1  0.8421768E-002  0.2013861E+03  0.7818608E-02  0.1148595E+00
         21   -1    0    0  501  502  0.00000000000E+00  0.00000000000E+00  0.72251447119E+03  0.72251447119E+03  0.00000000000E+00 0.  1.
         21   -1    0    0  502  503 -0.00000000000E+00 -0.00000000000E+00 -0.60351785325E+02  0.60351785325E+02  0.00000000000E+00 0.  1.
         -6    2    1    2    0  503 -0.10311917677E+03 -0.17997922296E+02  0.22717783777E+03  0.30352483747E+03  0.17193041372E+03 0.  0.
        -24    2    3    3    0    0 -0.11166903427E+03  0.32561311741E+02  0.12418334138E+03  0.18837583619E+03  0.80831560341E+02 0.  0.
          6    2    1    2  501    0  0.10311917677E+03  0.17997922296E+02  0.43498484809E+03  0.47934141904E+03  0.17204327397E+03 0.  0.
         24    2    5    5    0    0  0.16072681280E+02 -0.21220890959E+02  0.31389337485E+03  0.32506749843E+03  0.80194578761E+02 0.  0.
          5    1    5    5  501    0  0.87046495489E+02  0.39218813255E+02  0.12109147323E+03  0.15427392061E+03  0.47000000000E+01 0. -1.
        -13    1    6    6    0    0  0.34877737266E+02  0.48374932496E+01  0.63404929795E+02  0.72526154041E+02  0.00000000000E+00 0.  1.
         14    1    6    6    0    0 -0.18805055986E+02 -0.26058384209E+02  0.25048844506E+03  0.25254134439E+03  0.00000000000E+00 0. -1.
         -5    1    3    3    0  503  0.85498574961E+01 -0.50559234036E+02  0.10299449639E+03  0.11514900128E+03  0.47000000000E+01 0.  1.
         11    1    4    4    0    0 -0.61965492568E+02  0.32783999622E+02  0.11937812765E+03  0.13844006018E+03  0.00000000000E+00 0. -1.
        -12    1    4    4    0    0 -0.49703541697E+02 -0.22268788149E+00  0.48052137348E+01  0.49935776015E+02  0.00000000000E+00 0.  1.
</event>
<event>
12    1  0.8421768E-002  0.2311723E+03  0.7818608E-02  0.1126550E+00
         21   -1    0    0  501  502  0.00000000000E+00  0.00000000000E+00  0.33005599383E+03  0.33005599383E+03  0.00000000000E+00 0. -1.
         21   -1    0    0  502  503 -0.00000000000E+00 -0.00000000000E+00 -0.64682595629E+03  0.64682595629E+03  0.00000000000E+00 0.  1.
         -6    2    1    2    0  503 -0.15494721513E+03  0.84348645413E+01 -0.58219985468E+03  0.62489662482E+03  0.16570858305E+03 0.  0.
        -24    2    3    3    0    0 -0.13579269747E+03 -0.86984230987E+01 -0.27935757409E+03  0.32092955093E+03  0.80248384455E+02 0.  0.
          6    2    1    2  501    0  0.15494721513E+03 -0.84348645413E+01  0.26542989223E+03  0.35198532530E+03  0.17135009520E+03 0.  0.
         24    2    5    5    0    0  0.65541902445E+02 -0.45659303341E+02  0.21515283234E+03  0.24276608922E+03  0.79146192928E+02 0.  0.
          5    1    5    5  501    0  0.89405312681E+02  0.37224438799E+02  0.50277059891E+02  0.10921923608E+03  0.47000000000E+01 0. -1.
        -11    1    6    6    0    0  0.23456336440E+01 -0.31365830057E+02  0.20329936369E+02  0.37451616856E+02  0.00000000000E+00 0.  1.
         12    1    6    6    0    0  0.63196268801E+02 -0.14293473284E+02  0.19482289597E+03  0.20531447236E+03  0.00000000000E+00 0. -1.
         -5    1    3    3    0  503 -0.19154517658E+02  0.17133287640E+02 -0.30284228059E+03  0.30396707389E+03  0.47000000000E+01 0.  1.
         11    1    4    4    0    0 -0.38343164896E+02 -0.38639712466E+02 -0.76429574865E+02  0.93833392711E+02  0.00000000000E+00 0. -1.
        -12    1    4    4    0    0 -0.97449532572E+02  0.29941289367E+02 -0.20292799923E+03  0.22709615822E+03  0.00000000000E+00 0.  1.
</event>
<event>
12    1  0.8421768E-002  0.1903916E+03  0.7818608E-02  0.1158140E+00
         21   -1    0    0  501  502  0.00000000000E+00  0.00000000000E+00  0.25259414262E+03  0.25259414262E+03  0.00000000000E+00 0.  1.
         21   -1    0    0  502  503 -0.00000000000E+00 -0.00000000000E+00 -0.15853964768E+03  0.15853964768E+03  0.00000000000E+00 0.  1.
         -6    2    1    2    0  503  0.81527866083E+02  0.11997360054E+02 -0.16476852265E+02  0.19110326582E+03  0.17163403494E+03 0.  0.
        -24    2    3    3    0    0  0.63685365263E+02 -0.10882469309E+02  0.52821359103E+02  0.11582927612E+03  0.80324786594E+02 0.  0.
          6    2    1    2  501    0 -0.81527866083E+02 -0.11997360054E+02  0.11053134720E+03  0.22003052449E+03  0.17148038779E+03 0.  0.
         24    2    5    5    0    0  0.71714538141E+01  0.78421510392E+01  0.10217971033E+03  0.12863569209E+03  0.77417820898E+02 0.  0.
          5    1    5    5  501    0 -0.88699319897E+02 -0.19839511093E+02  0.83516368684E+01  0.91394832398E+02  0.47000000000E+01 0. -1.
        -11    1    6    6    0    0 -0.33922788864E+02  0.38170283303E+01  0.63314181574E+02  0.71930597786E+02  0.00000000000E+00 0.  1.
         12    1    6    6    0    0  0.41094242678E+02  0.40251227090E+01  0.38865528760E+02  0.56705094303E+02  0.00000000000E+00 0. -1.
         -5    1    3    3    0  503  0.17842500820E+02  0.22879829363E+02 -0.69298211368E+02  0.75273989704E+02  0.47000000000E+01 0.  1.
         11    1    4    4    0    0 -0.31629024510E+01 -0.27252630999E+02  0.35488163905E+02  0.44856656425E+02  0.00000000000E+00 0. -1.
        -12    1    4    4    0    0  0.66848267714E+02  0.16370161690E+02  0.17333195197E+02  0.70972619691E+02  0.00000000000E+00 0.  1.
</event>
<event>
12    1  0.8421768E-002  0.1838472E+03  0.7818608E-02  0.1164537E+00
         21   -1    0    0  503  502  0.00000000000E+00  0.00000000000E+00  0.20232774876E+03  0.20232774876E+03  0.00000000000E+00 0.  1.
         21   -1    0    0  501  503 -0.00000000000E+00 -0.00000000000E+00 -0.24493431622E+03  0.24493431622E+03  0.00000000000E+00 0.  1.
          6    2    1    2  501    0  0.61920654147E+02  0.18323431987E+02  0.10598403949E+03  0.21220837804E+03  0.17213327253E+03 0.  0.
         24    2    3    3    0    0 -0.32795052753E+02  0.19363306488E+02  0.58629035858E+02  0.10620492130E+03  0.79947910157E+02 0.  0.
         -6    2    1    2    0  502 -0.61920654147E+02 -0.18323431987E+02 -0.14859060695E+03  0.23505368693E+03  0.17029724512E+03 0.  0.
        -24    2    5    5    0    0 -0.50784193979E+02  0.37476940669E+02 -0.14599999738E+03  0.17790035290E+03  0.79680492505E+02 0.  0.
          5    1    3    3  501    0  0.94715706900E+02 -0.10398745004E+01  0.47355003635E+02  0.10600345674E+03  0.47000000000E+01 0. -1.
        -13    1    4    4    0    0  0.93319293863E+01 -0.64807487477E+01  0.55535261642E+02  0.56685538685E+02  0.00000000000E+00 0.  1.
         14    1    4    4    0    0 -0.42126982140E+02  0.25844055236E+02  0.30937742167E+01  0.49519382610E+02  0.00000000000E+00 0. -1.
         -5    1    5    5    0  502 -0.11136460168E+02 -0.55800372656E+02 -0.25906095743E+01  0.57153334038E+02  0.47000000000E+01 0.  1.
         11    1    6    6    0    0 -0.33361896203E+01 -0.13628111533E+02  0.21158769090E+01  0.14189169117E+02  0.00000000000E+00 0. -1.
        -12    1    6    6    0    0 -0.47448004358E+02  0.51105052202E+02 -0.14811587429E+03  0.16371118378E+03  0.00000000000E+00 0.  1.
</event>
<event>
12    1  0.8421768E-002  0.2140330E+03  0.7818608E-02  0.1138658E+00
         21   -1    0    0  501  502  0.00000000000E+00  0.00000000000E+00  0.81105258695E+03  0.81105258695E+03  0.00000000000E+00 0. -1.
         21   -1    0    0  502  503 -0.00000000000E+00 -0.00000000000E+00 -0.67844814012E+02  0.67844814012E+02  0.00000000000E+00 0. -1.
         -6    2    1    2    0  503 -0.12033495739E+03  0.37200897645E+02  0.19004808969E+03  0.28623140793E+03  0.17304835665E+03 0.  0.
        -24    2    3    3    0    0 -0.15075566431E+03  0.51960134139E+02  0.16183161234E+03  0.24194242436E+03  0.83183773007E+02 0.  0.
          6    2    1    2  501    0  0.12033495739E+03 -0.37200897645E+02  0.55315968325E+03  0.59266599303E+03  0.17147284148E+03 0.  0.
         24    2    5    5    0    0  0.91521628789E+01 -0.68615480374E+01  0.12346287810E+03  0.14775754820E+03  0.80363971113E+02 0.  0.
          5    1    5    5  501    0  0.11118279451E+03 -0.30339349608E+02  0.42969680515E+03  0.44490844483E+03  0.47000000000E+01 0. -1.
        -13    1    6    6    0    0 -0.28471596058E+02 -0.26323648436E+02  0.56729095606E+02  0.68715038655E+02  0.00000000000E+00 0.  1.
         14    1    6    6    0    0  0.37623758937E+02  0.19462100399E+02  0.66733782496E+02  0.79042509542E+02  0.00000000000E+00 0. -1.
         -5    1    3    3    0  503  0.30420706926E+02 -0.14759236494E+02  0.28216477347E+02  0.44288983570E+02  0.47000000000E+01 0.  1.
         13    1    4    4    0    0 -0.22670168989E+02  0.32360324453E+02  0.71390848199E+01  0.40150886575E+02  0.00000000000E+00 0. -1.
        -14    1    4    4    0    0 -0.12808549532E+03  0.19599809686E+02  0.15469252752E+03  0.20179153779E+03  0.00000000000E+00 0.  1.
</event>
<event>
12    1  0.8421768E-002  0.2304002E+03  0.7818608E-02  0.1126963E+00
         21   -1    0    0  503  502  0.00000000000E+00  0.00000000000E+00  0.64261414812E+03  0.64261414812E+03  0.00000000000E+00 0.  1.
         21   -1    0    0  501  503 -0.00000000000E+00 -0.00000000000E+00 -0.14750531892E+03  0.14750531892E+03  0.00000000000E+00 0.  1.
          6    2    1    2  501    0 -0.87713210231E+02 -0.12314126641E+03 -0.15918550305E+02  0.23094949429E+03  0.17385882183E+03 0.  0.
         24    2    3    3    0    0 -0.12737480032E+03 -0.78324717048E+02  0.38102334975E+01  0.16776025679E+03  0.75959757912E+02 0.  0.
         -6    2    1    2    0  502  0.87713210231E+02  0.12314126641E+03  0.51102737951E+03  0.55916997275E+03  0.16930651812E+03 0.  0.
        -24    2    5    5    0    0  0.80097275789E+01  0.59483845397E+01  0.12082673438E+03  0.14400079016E+03  0.77701922842E+02 0.  0.
          5    1    3    3  501    0  0.39661590090E+02 -0.44816549363E+02 -0.19728783803E+02  0.63189237498E+02  0.47000000000E+01 0. -1.
        -11    1    4    4    0    0 -0.68740367983E+02 -0.84226458386E+02  0.16437007315E+00  0.10871688691E+03  0.00000000000E+00 0.  1.
         12    1    4    4    0    0 -0.58634432338E+02  0.59017413381E+01  0.36458634243E+01  0.59043369878E+02  0.00000000000E+00 0. -1.
         -5    1    5    5    0  502  0.79703482652E+02  0.11719288187E+03  0.39020064513E+03  0.41516918258E+03  0.47000000000E+01 0.  1.
         13    1    6    6    0    0 -0.31573562037E+02  0.18692791107E+02  0.59533892219E+02  0.69932786173E+02  0.00000000000E+00 0. -1.
        -14    1    6    6    0    0  0.39583289616E+02 -0.12744406567E+02  0.61292842156E+02  0.74068003991E+02  0.00000000000E+00 0.  1.
</event>
<event>
12    1  0.8421768E-002  0.1797792E+03  0.7818608E-02  0.1168301E+00
         21   -1    0    0  501  502  0.00000000000E+00  0.00000000000E+00  0.62059161535E+03  0.62059161535E+03  0.00000000000E+00 0. -1.
         21   -1    0    0  502  503 -0.00000000000E+00 -0.00000000000E+00 -0.60156300282E+02  0.60156300282E+02  0.00000000000E+00 0. -1.
         -6    2    1    2    0  503 -0.36146655059E+02  0.38588710386E+02  0.15370836698E+03  0.23653082498E+03  0.17182811134E+03 0.  0.
        -24    2    3    3    0    0 -0.78515723803E+01  0.85847375335E+01  0.35777397062E+01  0.80767718520E+02  0.79845345676E+02 0.  0.
          6    2    1    2  501    0  0.36146655059E+02 -0.38588710386E+02  0.40672694809E+03  0.44421709065E+03  0.17060581491E+03 0.  0.
         24    2    5    5    0    0  0.77058178626E+02  0.39899532042E+01  0.32627338453E+03  0.34430932697E+03  0.78362673289E+02 0.  0.
          5    1    5    5  501    0 -0.40911523568E+02 -0.42578663590E+02  0.80453563556E+02  0.99907763675E+02  0.47000000000E+01 0. -1.
        -11    1    6    6    0    0  0.46393420407E+02  0.33520606391E+02  0.25452753982E+03  0.26088359288E+03  0.00000000000E+00 0.  1.
         12    1    6    6    0    0  0.30664758219E+02 -0.29530653186E+02  0.71745844717E+02  0.83425734089E+02  0.00000000000E+00 0. -1.
         -5    1    3    3    0  503 -0.28295082678E+02  0.30003972852E+02  0.15013062727E+03  0.15576310646E+03  0.47000000000E+01 0.  1.
         11    1    4    4    0    0  0.29612927491E+02  0.22016476511E+02 -0.10803665523E+02  0.38449576087E+02  0.00000000000E+00 0. -1.
        -12    1    4    4    0    0 -0.37464499872E+02 -0.13431738977E+02  0.14381405229E+02  0.42318142433E+02  0.00000000000E+00 0.  1.
</event>
<event>
12    1  0.8421768E-002  0.2831198E+03  0.7818608E-02  0.1094079E+00
         21   -1    0    0  501  502  0.00000000000E+00  0.00000000000E+00  0.11340891723E+03  0.11340891723E+03  0.00000000000E+00 0.  1.
         21   -1    0    0  502  503 -0.00000000000E+00 -0.00000000000E+00 -0.82228047752E+03  0.82228047752E+03  0.00000000000E+00 0. -1.
         -6    2    1    2    0  503  0.21635268623E+03  0.62530709177E+02 -0.53123867593E+03  0.60197290208E+03  0.17157584212E+03 0.  0.
        -24    2    3    3    0    0  0.21790335577E+03  0.94379335425E+02 -0.46980053670E+03  0.53259369394E+03  0.80957810764E+02 0.  0.
          6    2    1    2  501    0 -0.21635268623E+03 -0.62530709177E+02 -0.17763288437E+03  0.33371649268E+03  0.17057163143E+03 0.  0.
         24    2    5    5    0    0 -0.17409897654E+03  0.16385604935E+02 -0.10528206775E+03  0.21852147855E+03  0.78028079018E+02 0.  0.
          5    1    5    5  501    0 -0.42253709686E+02 -0.78916314112E+02 -0.72350816617E+02  0.11519501413E+03  0.47000000000E+01 0. -1.
        -11    1    6    6    0    0 -0.61412877300E+02 -0.10781570840E+02 -0.63186971318E+00  0.62355296707E+02  0.00000000000E+00 0.  1.
         12    1    6    6    0    0 -0.11268609924E+03  0.27167175775E+02 -0.10465019804E+03  0.15616618184E+03  0.00000000000E+00 0. -1.
         -5    1    3    3    0  503 -0.15506695480E+01 -0.31848626248E+02 -0.61438139229E+02  0.69379208138E+02  0.47000000000E+01 0. -1.
         11    1    4    4    0    0  0.19371126195E+03  0.10749651595E+03 -0.43557272538E+03  0.48867489504E+03  0.00000000000E+00 0. -1.
        -12    1    4    4    0    0  0.24192093820E+02 -0.13117180530E+02 -0.34227811321E+02  0.43918798894E+02  0.00000000000E+00 0.  1.
</event>
<event>
12    1  0.8421768E-002  0.2046179E+03  0.7818608E-02  0.1146273E+00
         21   -1    0    0  503  502  0.00000000000E+00  0.00000000000E+00  0.16553096843E+03  0.16553096843E+03  0.00000000000E+00 0.  1.
         21   -1    0    0  501  503 -0.00000000000E+00 -0.00000000000E+00 -0.32174842158E+03  0.32174842158E+03  0.00000000000E+00 0.  1.
          6    2    1    2  501    0  0.94057532217E+02 -0.59096895809E+02 -0.19232536685E+03  0.27950000920E+03  0.16968189635E+03 0.  0.
         24    2    3    3    0    0  0.74878105747E+02 -0.10540158504E+03 -0.15521721337E+03  0.21696138355E+03  0.79143122100E+02 0.  0.
         -6    2    1    2    0  502 -0.94057532217E+02  0.59096895809E+02  0.36107913702E+02  0.20777938081E+03  0.17184070297E+03 0.  0.
        -24    2    5    5    0    0 -0.80830669964E+02 -0.21996972989E+02  0.43274526822E+02  0.12516814800E+03  0.82322029710E+02 0.  0.
          5    1    3    3  501    0  0.19179426470E+02  0.46304689227E+02 -0.37108153480E+02  0.62538625655E+02  0.47000000000E+01 0. -1.
        -11    1    4    4    0    0 -0.89054907422E+01 -0.49369054417E+02 -0.42472015213E+02  0.65730383961E+02  0.00000000000E+00 0.  1.
         12    1    4    4    0    0  0.83783596489E+02 -0.56032530619E+02 -0.11274519816E+03  0.15123099959E+03  0.00000000000E+00 0. -1.
         -5    1    5    5    0  502 -0.13226862253E+02  0.81093868798E+02 -0.71666131200E+01  0.82611232803E+02  0.47000000000E+01 0.  1.
         11    1    6    6    0    0 -0.12232175355E+02 -0.19839372803E+02 -0.20826673173E+02  0.31256633577E+02  0.00000000000E+00 0. -1.
        -12    1    6    6    0    0 -0.68598494608E+02 -0.21576001859E+01  0.64101199995E+02  0.93911514427E+02  0.00000000000E+00 0.  1.
</event>
<event>
12    1  0.8421768E-002  0.2471896E+03  0.7818608E-02  0.1116954E+00
         21   -1    0    0  503  502  0.00000000000E+00  0.00000000000E+00  0.84439368356E+03  0.84439368356E+03  0.00000000000E+00 0.  1.
         21   -1    0    0  501  503 -0.00000000000E+00 -0.00000000000E+00 -0.71767553210E+02  0.71767553210E+02  0.00000000000E+00 0.  1.
          6    2    1    2  501    0  0.21458163379E+02 -0.15964831221E+03  0.46609331063E+03  0.52237823101E+03  0.17230207676E+03 0.  0.
         24    2    3    3    0    0  0.15566361427E+02 -0.18582920726E+03  0.36565102985E+03  0.41830664813E+03  0.80653396482E+02 0.  0.
         -6    2    1    2    0  502 -0.21458163379E+02  0.15964831221E+03  0.30653281972E+03  0.39378300576E+03  0.18749573245E+03 0.  0.
        -24    2    5    5    0    0  0.31049581267E+02  0.16997582053E+02  0.66670019571E+02  0.10977147965E+03  0.79698757475E+02 0.  0.
          5    1    3    3  501    0  0.58918019518E+01  0.26180895043E+02  0.10044228078E+03  0.10407158288E+03  0.47000000000E+01 0. -1.
        -13    1    4    4    0    0  0.45338813738E+02 -0.69662353307E+02  0.15724815966E+03  0.17786352975E+03  0.00000000000E+00 0.  1.
         14    1    4    4    0    0 -0.29772452311E+02 -0.11616685395E+03  0.20840287019E+03  0.24044311838E+03  0.00000000000E+00 0. -1.
         -5    1    5    5    0  502 -0.52507744646E+02  0.14265073016E+03  0.23986280015E+03  0.28401152610E+03  0.47000000000E+01 0.  1.
         11    1    6    6    0    0 -0.12647558232E+02  0.15003791252E+01 -0.12614410640E+02  0.17925825575E+02  0.00000000000E+00 0. -1.
        -12    1    6    6    0    0  0.43697139499E+02  0.15497202928E+02  0.79284430211E+02  0.91845654078E+02  0.00000000000E+00 0.  1.
</event>
<event>
12    1  0.8421768E-002  0.2025678E+03  0.7818608E-02  0.1147595E+00
         21   -1    0    0  503  502  0.00000000000E+00  0.00000000000E+00  0.94055253415E+02  0.94055253415E+02  0.00000000000E+00 0. -1.
         21   -1    0    0  501  503 -0.00000000000E+00 -0.00000000000E+00 -0.45146516404E+03  0.45146516404E+03  0.00000000000E+00 0. -1.
          6    2    1    2  501    0 -0.10306493358E+03 -0.25986754920E+02 -0.22881472566E+03  0.30558203881E+03  0.17241378076E+03 0.  0.
         24    2    3    3    0    0  0.72813814530E+01  0.19556639186E+02 -0.87668762864E+02  0.12066372494E+03  0.80239902062E+02 0.  0.
         -6    2    1    2    0  502  0.10306493358E+03  0.25986754920E+02 -0.12859518496E+03  0.23993837865E+03  0.17244132912E+03 0.  0.
        -24    2    5    5    0    0  0.90000875498E+02  0.80148041864E+02 -0.76798223486E+02  0.16372073086E+03  0.79891453719E+02 0.  0.
          5    1    3    3  501    0 -0.11034631503E+03 -0.45543394107E+02 -0.14114596280E+03  0.18491831386E+03  0.47000000000E+01 0. -1.
        -13    1    4    4    0    0  0.15866080030E+02 -0.28460208235E+02 -0.46808772131E+02  0.57033122803E+02  0.00000000000E+00 0.  1.
         14    1    4    4    0    0 -0.85846985773E+01  0.48016847421E+02 -0.40859990733E+02  0.63630602140E+02  0.00000000000E+00 0. -1.
         -5    1    5    5    0  502  0.13064058079E+02 -0.54161286944E+02 -0.51796961478E+02  0.76217647794E+02  0.47000000000E+01 0.  1.
         13    1    6    6    0    0  0.72634211894E+02  0.25712800987E+02 -0.13110897545E+02  0.78158636801E+02  0.00000000000E+00 0. -1.
        -14    1    6    6    0    0  0.17366663603E+02  0.54435240878E+02 -0.63687325941E+02  0.85562094058E+02  0.00000000000E+00 0.  1.
</event>
<event>
12    1  0.8421768E-002  0.2091287E+03  0.7818608E-02  0.1142453E+00
         21   -1    0    0  501  502  0.00000000000E+00  0.00000000000E+00  0.36484149026E+03  0.36484149026E+03  0.00000000000E+00 0. -1.
         21   -1    0    0  502  503 -0.00000000000E+00 -0.00000000000E+00 -0.11972215036E+03  0.11972215036E+03  0.00000000000E+00 0.  1.
         -6    2    1    2    0  503 -0.14166793914E+02 -0.11760313122E+03  0.13701374969E+03  0.25001514905E+03  0.17234736038E+03 0.  0.
        -24    2    3    3    0    0 -0.38093578240E+01  0.77259699601E+01  0.28456923170E+02  0.83818474389E+02  0.78367967651E+02 0.  0.
          6    2    1    2  501    0  0.14166793914E+02  0.11760313122E+03  0.10810559021E+03  0.23454849157E+03  0.17115776857E+03 0.  0.
         24    2    5    5    0    0  0.33225361183E+01  0.14133584131E+03  0.12171903262E+03  0.20474487988E+03  0.84368736220E+02 0.  0.
          5    1    5    5  501    0  0.10844257796E+02 -0.23732710092E+02 -0.13613442414E+02  0.29803611690E+02  0.47000000000E+01 0. -1.
        -11    1    6    6    0    0  0.18672550592E+02  0.10273071769E+03  0.37692633169E+02  0.11100900458E+03  0.00000000000E+00 0.  1.
         12    1    6    6    0    0 -0.15350014474E+02  0.38605123619E+02  0.84026399451E+02  0.93735875303E+02  0.00000000000E+00 0. -1.
         -5    1    3    3    0  503 -0.10357436090E+02 -0.12532910118E+03  0.10855682652E+03  0.16619667466E+03  0.47000000000E+01 0.  1.
         13    1    4    4    0    0 -0.34431572204E+01  0.19227033125E+02  0.53123082992E+02  0.56600318736E+02  0.00000000000E+00 0. -1.
        -14    1    4    4    0    0 -0.36620060362E+00 -0.11501063165E+02 -0.24666159822E+02  0.27218155653E+02  0.00000000000E+00 0.  1.
</event>
<event>
12    1  0.8421768E-002  0.1956802E+03  0.7818608E-02  0.1154339E+00
         21   -1    0    0  501  502  0.00000000000E+00  0.00000000000E+00  0.81884089264E+02  0.81884089264E+02  0.00000000000E+00 0. -1.
         21   -1    0    0  502  503 -0.00000000000E+00 -0.00000000000E+00 -0.60207790006E+03  0.60207790006E+03  0.00000000000E+00 0. -1.
         -6    2    1    2    0  503  0.83751783761E+02  0.34927091588E+02 -0.42957903301E+03  0.47204752841E+03  0.17336799147E+03 0.  0.
        -24    2    3    3    0    0 -0.18874992405E+02  0.16572660714E+02 -0.25181548685E+03  0.26591381292E+03  0.81659035394E+02 0.  0.
          6    2    1    2  501    0 -0.83751783761E+02 -0.34927091588E+02 -0.90614777783E+02  0.21191446091E+03  0.16870814379E+03 0.  0.
         24    2    5    5    0    0 -0.91061154929E+02 -0.31899554645E+02 -0.12447203177E+03  0.17682890072E+03  0.80408071196E+02 0.  0.
          5    1    5    5  501    0  0.73093711685E+01 -0.30275369428E+01  0.33857253983E+02  0.35085560194E+02  0.47000000000E+01 0. -1.
        -11    1    6    6    0    0 -0.40807380127E+02 -0.22199549642E+02 -0.11599326494E+03  0.12494998915E+03  0.00000000000E+00 0.  1.
         12    1    6    6    0    0 -0.50253774802E+02 -0.97000050031E+01 -0.84787668305E+01  0.51878911572E+02  0.00000000000E+00 0. -1.
         -5    1    3    3    0  503  0.10262677617E+03  0.18354430875E+02 -0.17776354616E+03  0.20613371549E+03  0.47000000000E+01 0.  1.
         13    1    4    4    0    0  0.21343806920E+02 -0.20531391291E+02 -0.69066537415E+02  0.75148404592E+02  0.00000000000E+00 0. -1.
        -14    1    4    4    0    0 -0.40218799325E+02  0.37104052004E+02 -0.18274894944E+03  0.19076540833E+03  0.00000000000E+00 0.  1.
</event>
<event>
12    1  0.8421768E-002  0.2053381E+03  0.7818608E-02  0.1145396E+00
         21   -1    0    0  501  502  0.00000000000E+00  0.00000000000E+00  0.59263723879E+03  0.59263723879E+03  0.00000000000E+00 0.  1.
         21   -1    0    0  502  503 -0.00000000000E+00 -0.00000000000E+00 -0.92662636791E+02  0.92662636791E+02  0.00000000000E+00 0.  1.
         -6    2    1    2    0  503  0.76097738526E+02 -0.82846006940E+02  0.84131437844E+02  0.22152270043E+03  0.17128888259E+03 0.  0.
        -24    2    3    3    0    0  0.92815701939E+02 -0.70471747422E+02  0.11622233758E+03  0.18299312160E+03  0.79986430639E+02 0.  0.
          6    2    1    2  501    0 -0.76097738526E+02  0.82846006940E+02  0.41584316415E+03  0.46377717515E+03  0.17178301528E+03 0.  0.
         24    2    5    5    0    0 -0.79242218470E+02  0.11131800893E+03  0.24814548023E+03  0.29358567758E+03  0.77106046580E+02 0.  0.
          5    1    5    5  501    0  0.31444799433E+01 -0.28472001992E+02  0.16769768392E+03  0.17019149757E+03  0.47000000000E+01 0. -1.
        -11    1    6    6    0    0 -0.34149038517E+02  0.36734086574E+01  0.27590041692E+02  0.44055205860E+02  0.00000000000E+00 0.  1.
         12    1    6    6    0    0 -0.45093179952E+02  0.10764460027E+03  0.22055543854E+03  0.24953047172E+03  0.00000000000E+00 0. -1.
         -5    1    3    3    0  503 -0.16717963413E+02 -0.12374259518E+02 -0.32090899740E+02  0.38529578838E+02  0.47000000000E+01 0.  1.
         13    1    4    4    0    0  0.13112394882E+02 -0.51675988021E+02  0.73004043518E+02  0.90398744502E+02  0.00000000000E+00 0. -1.
        -14    1    4    4    0    0  0.79703307057E+02 -0.18795759401E+02  0.43218294066E+02  0.92594377093E+02  0.00000000000E+00 0.  1.
</event>
<event>
12    1  0.8421768E-002  0.1893971E+03  0.7818608E-02  0.1160098E+00
         21   -1    0    0  503  502  0.00000000000E+00  0.00000000000E+00  0.10411987165E+03  0.10411987165E+03  0.00000000000E+00 0. -1.
         21   -1    0    0  501  503 -0.00000000000E+00 -0.00000000000E+00 -0.34206080771E+03  0.34206080771E+03  0.00000000000E+00 0. -1.
          6    2    1    2  501    0  0.82882920964E+01  0.82861611421E+02 -0.90578028493E+02  0.20994197169E+03  0.17010734786E+03 0.  0.
         24    2    3    3    0    0  0.15211968239E+02 -0.17520591300E+02 -0.66323343370E+02  0.10633259149E+03  0.79808890734E+02 0.  0.
         -6    2    1    2    0  502 -0.82882920964E+01 -0.82861611421E+02 -0.14736290756E+03  0.23623870767E+03  0.16479732414E+03 0.  0.
        -24    2    5    5    0    0  0.15706224078E+02  0.10050666283E+02 -0.97572280165E+02  0.12802768821E+03  0.80765325020E+02 0.  0.
          5    1    3    3  501    0 -0.69236761429E+01  0.10038220272E+03 -0.24254685122E+02  0.10360938020E+03  0.47000000000E+01 0. -1.
        -13    1    4    4    0    0 -0.83214620588E+01 -0.44194473341E+02 -0.23758862193E+02  0.50861397321E+02  0.00000000000E+00 0.  1.
         14    1    4    4    0    0  0.23533430298E+02  0.26673882042E+02 -0.42564481177E+02  0.55471194170E+02  0.00000000000E+00 0. -1.
         -5    1    5    5    0  502 -0.23994516174E+02 -0.92912277703E+02 -0.49790627399E+02  0.10821101945E+03  0.47000000000E+01 0.  1.
         11    1    6    6    0    0  0.21301894847E+02 -0.30226930942E+02 -0.69144757845E+02  0.78411960922E+02  0.00000000000E+00 0. -1.
        -12    1    6    6    0    0 -0.55956707693E+01  0.40277597224E+02 -0.28427522320E+02  0.49615727293E+02  0.00000000000E+00 0.  1.
</event>
<event>
12    1  0.8421768E-002  0.4734366E+03  0.7818608E-02  0.1021100E+00
         21   -1    0    0  503  502  0.00000000000E+00  0.00000000000E+00  0.19343614464E+03  0.19343614464E+03  0.00000000000E+00 0.  1.
         21   -1    0    0  501  503 -0.00000000000E+00 -0.00000000000E+00 -0.12804227831E+04  0.12804227831E+04  0.00000000000E+00 0. -1.
          6    2    1    2  501    0  0.39279156662E+03  0.20138751863E+03 -0.77643239102E+03  0.90938960427E+03  0.17117256514E+03 0.  0.
         24    2    3    3    0    0  0.18555905473E+03  0.14011035518E+03 -0.51177884720E+03  0.56768242992E+03  0.79263348245E+02 0.  0.
         -6    2    1    2    0  502 -0.39279156662E+03 -0.20138751863E+03 -0.31055424744E+03  0.56446932346E+03  0.16534669352E+03 0.  0.
        -24    2    5    5    0    0 -0.81729708169E+02 -0.42668397172E+02 -0.72284965645E+02  0.14168618763E+03  0.79683889158E+02 0.  0.
          5    1    3    3  501    0  0.20723251189E+03  0.61277163449E+02 -0.26465354382E+03  0.34170717435E+03  0.47000000000E+01 0. -1.
        -13    1    4    4    0    0  0.35014991953E+01  0.12669752072E+02 -0.45548484515E+01  0.13911497352E+02  0.00000000000E+00 0.  1.
         14    1    4    4    0    0  0.18205755553E+03  0.12744060311E+03 -0.50722399875E+03  0.55377093256E+03  0.00000000000E+00 0. -1.
         -5    1    5    5    0  502 -0.31106185845E+03 -0.15871912146E+03 -0.23826928179E+03  0.42278313584E+03  0.47000000000E+01 0.  1.
         13    1    6    6    0    0 -0.95969793721E+02 -0.29560067051E+02 -0.50028511107E+02  0.11219113510E+03  0.00000000000E+00 0. -1.
        -14    1    6    6    0    0  0.14240085552E+02 -0.13108330121E+02 -0.22256454538E+02  0.29495052529E+02  0.00000000000E+00 0.  1.
</event>
<event>
12    1  0.8421768E-002  0.2243681E+03  0.7818608E-02  0.1132943E+00
         21   -1    0    0  503  502  0.00000000000E+00  0.00000000000E+00  0.15877819015E+04  0.15877819015E+04  0.00000000000E+00 0.  1.
         21   -1    0    0  501  503 -0.00000000000E+00 -0.00000000000E+00 -0.35363816201E+02  0.35363816201E+02  0.00000000000E+00 0.  1.
          6    2    1    2  501    0  0.14834263811E+02 -0.14293442196E+03  0.47890888007E+03  0.52886174894E+03  0.17230998150E+03 0.  0.
         24    2    3    3    0    0  0.37637605999E+02 -0.16766345677E+03  0.38951178110E+03  0.43322990863E+03  0.80256476343E+02 0.  0.
         -6    2    1    2    0  502 -0.14834263811E+02  0.14293442196E+03  0.10735092052E+04  0.10942839687E+04  0.15615724829E+03 0.  0.
        -24    2    5    5    0    0 -0.57908127396E+02  0.47722606594E+02  0.57559494716E+03  0.58549978474E+03  0.76613682455E+02 0.  0.
          5    1    3    3  501    0 -0.22803342188E+02  0.24729034812E+02  0.89397098970E+02  0.95631840314E+02  0.47000000000E+01 0. -1.
        -11    1    4    4    0    0  0.52025698557E+02 -0.84489489248E+02  0.15549680836E+03  0.18445705331E+03  0.00000000000E+00 0.  1.
         12    1    4    4    0    0 -0.14388092558E+02 -0.83173967525E+02  0.23401497273E+03  0.24877285532E+03  0.00000000000E+00 0. -1.
         -5    1    5    5    0  502  0.43073863585E+02  0.95211815368E+02  0.49791425803E+03  0.50878418397E+03  0.47000000000E+01 0.  1.
         13    1    6    6    0    0  0.11449737773E+02  0.18002705511E+02  0.47893305020E+02  0.52430549935E+02  0.00000000000E+00 0. -1.
        -14    1    6    6    0    0 -0.69357865169E+02  0.29719901082E+02  0.52770164214E+03  0.53306923480E+03  0.00000000000E+00 0.  1.
</event>
<event>
12    1  0.8421768E-002  0.1800694E+03  0.7818608E-02  0.1168786E+00
         21   -1    0    0  503  502  0.00000000000E+00  0.00000000000E+00  0.37442014722E+03  0.37442014722E+03  0.00000000000E+00 0.  1.
         21   -1    0    0  501  503 -0.00000000000E+00 -0.00000000000E+00 -0.14012677722E+03  0.14012677722E+03  0.00000000000E+00 0. -1.
          6    2    1    2  501    0  0.70935055644E+02  0.18164672124E+01 -0.45720800963E+02  0.18163111675E+03  0.16082409414E+03 0.  0.
         24    2    3    3    0    0  0.37228845829E+02 -0.28707313453E+02  0.23925200764E+02  0.98321661565E+02  0.82973713270E+02 0.  0.
         -6    2    1    2    0  502 -0.70935055644E+02 -0.18164672124E+01  0.28001417096E+03  0.33291580769E+03  0.16549899516E+03 0.  0.
        -24    2    5    5    0    0 -0.30919135598E+02 -0.45548541677E+02  0.87579538938E+02  0.13150343023E+03  0.81193065747E+02 0.  0.
          5    1    3    3  501    0  0.33706209815E+02  0.30523780665E+02 -0.69646001726E+02  0.83309455181E+02  0.47000000000E+01 0. -1.
        -11    1    4    4    0    0 -0.16798399476E+02 -0.94194251683E+01  0.34949891980E+02  0.39904971431E+02  0.00000000000E+00 0.  1.
         12    1    4    4    0    0  0.54027245305E+02 -0.19287888284E+02 -0.11024691217E+02  0.58416690134E+02  0.00000000000E+00 0. -1.
         -5    1    5    5    0  502 -0.40015920046E+02  0.43732074465E+02  0.19243463203E+03  0.20141237747E+03  0.47000000000E+01 0.  1.
         13    1    6    6    0    0 -0.37644784301E+02 -0.42438334663E+02  0.10118992197E+03  0.11600664784E+03  0.00000000000E+00 0. -1.
        -14    1    6    6    0    0  0.67256487031E+01 -0.31102070144E+01 -0.13610383031E+02  0.15496782389E+02  0.00000000000E+00 0.  1.
</event>
<event>
12    1  0.8421768E-002  0.2071271E+03  0.7818608E-02  0.1144474E+00
         21   -1    0    0  501  502  0.00000000000E+00  0.00000000000E+00  0.15443571693E+03  0.15443571693E+03  0.00000000000E+00 0.  1.
         21   -1    0    0  502  503 -0.00000000000E+00 -0.00000000000E+00 -0.38854973145E+03  0.38854973145E+03  0.00000000000E+00 0. -1.
         -6    2    1    2    0  503 -0.10497766298E+03  0.32237519508E+02  0.29895892596E+02  0.20927354730E+03  0.17561914991E+03 0.  0.
        -24    2    3    3    0    0 -0.81129589432E+01  0.64951449121E+02  0.28075760948E+02  0.10690961342E+03  0.79730209098E+02 0.  0.
          6    2    1    2  501    0  0.10497766298E+03 -0.32237519508E+02 -0.26400990712E+03  0.33371190108E+03  0.17205474267E+03 0.  0.
         24    2    5    5    0    0  0.15625912565E+02 -0.62914243259E+01 -0.21114566182E+03  0.22659675934E+03  0.80497513466E+02 0.  0.
          5    1    5    5  501    0  0.89351750419E+02 -0.25946095182E+02 -0.52864245295E+02  0.10711514173E+03  0.47000000000E+01 0. -1.
        -11    1    6    6    0    0  0.95874207484E+01  0.34399839520E+02 -0.13933012062E+03  0.14383375858E+03  0.00000000000E+00 0.  1.
         12    1    6    6    0    0  0.60384918168E+01 -0.40691263846E+02 -0.71815541208E+02  0.82763000766E+02  0.00000000000E+00 0. -1.
         -5    1    3    3    0  503 -0.96864704041E+02 -0.32713929613E+02  0.18201316487E+01  0.10236393388E+03  0.47000000000E+01 0.  1.
         11    1    4    4    0    0  0.18340557336E+02 -0.11908957014E+02  0.63426252770E+01  0.22769018336E+02  0.00000000000E+00 0. -1.
        -12    1    4    4    0    0 -0.26453516279E+02  0.76860406135E+02  0.21733135671E+02  0.84140595083E+02  0.00000000000E+00 0.  1.
</event>
<event>
12    1  0.8421768E-002  0.1936684E+03  0.7818608E-02  0.1155449E+00
         21   -1    0    0  501  502  0.00000000000E+00  0.00000000000E+00  0.29723044818E+03  0.29723044818E+03  0.00000000000E+00 0.  1.
         21   -1    0    0  502  503 -0.00000000000E+00 -0.00000000000E+00 -0.16394496203E+03  0.16394496203E+03  0.00000000000E+00 0.  1.
         -6    2    1    2    0  503 -0.84514519071E+02 -0.24042179488E+02 -0.45265092415E+02  0.19775981306E+03  0.17128714121E+03 0.  0.
        -24    2    3    3    0    0 -0.14611067333E+02 -0.35040344246E+01 -0.82187871809E+02  0.11594484129E+03  0.80390287995E+02 0.  0.
          6    2    1    2  501    0  0.84514519071E+02  0.24042179488E+02  0.17855057857E+03  0.26341559715E+03  0.17258834661E+03 0.  0.
         24    2    5    5    0    0  0.44440936943E+02 -0.20750382353E+02  0.28165790772E+02  0.10139726491E+03  0.84157699092E+02 0.  0.
          5    1    5    5  501    0  0.40073582128E+02  0.44792561841E+02  0.15038478780E+03  0.16201833224E+03  0.47000000000E+01 0. -1.
        -11    1    6    6    0    0  0.16952875150E+02  0.16550696189E+02  0.46004316231E+02  0.51746716148E+02  0.00000000000E+00 0.  1.
         12    1    6    6    0    0  0.27488061793E+02 -0.37301078542E+02 -0.17838525459E+02  0.49650548759E+02  0.00000000000E+00 0. -1.
         -5    1    3    3    0  503 -0.69903451738E+02 -0.20538145063E+02  0.36922779393E+02  0.81814971769E+02  0.47000000000E+01 0.  1.
         13    1    4    4    0    0 -0.22757200767E+01 -0.13455597880E+02  0.13356268188E+02  0.19095075702E+02  0.00000000000E+00 0. -1.
        -14    1    4    4    0    0 -0.12335347256E+02  0.99515634557E+01 -0.95544139996E+02  0.96849765589E+02  0.00000000000E+00 0.  1.
</event>
<event>
12    1  0.8421768E-002  0.1748298E+03  0.7818608E-02  0.1173371E+00
         21   -1    0    0  503  502  0.00000000000E+00  0.00000000000E+00  0.15675045494E+04  0.15675045494E+04  0.00000000000E+00 0. -1.
         21   -1    0    0  501  503 -0.00000000000E+00 -0.00000000000E+00 -0.64036742776E+02  0.64036742776E+02  0.00000000000E+00 0. -1.
          6    2    1    2  501    0 -0.16250909974E+01  0.21976530249E+02  0.68633737116E+02  0.18609525044E+03  0.17156702353E+03 0.  0.
         24    2    3    3    0    0  0.34653379732E+02 -0.31271461949E+01  0.99462091437E+02  0.13206933592E+03  0.79617624220E+02 0.  0.
         -6    2    1    2    0  502  0.16250909974E+01 -0.21976530249E+02  0.14348340695E+04  0.14454460417E+04  0.17343541667E+03 0.  0.
        -24    2    5    5    0    0 -0.49983742467E+02 -0.57745953348E+02  0.98845176150E+03  0.99464433564E+03  0.80296325987E+02 0.  0.
          5    1    3    3  501    0 -0.36278470729E+02  0.25103676444E+02 -0.30828354322E+02  0.54025914519E+02  0.47000000000E+01 0. -1.
        -13    1    4    4    0    0  0.30149807078E+02  0.36285525479E+02  0.56083515754E+02  0.73287181454E+02  0.00000000000E+00 0.  1.
         14    1    4    4    0    0  0.45035726536E+01 -0.39412671674E+02  0.43378575684E+02  0.58782154464E+02  0.00000000000E+00 0. -1.
         -5    1    5    5    0  502  0.51608833464E+02  0.35769423098E+02  0.44638230796E+03  0.45080170606E+03  0.47000000000E+01 0.  1.
         11    1    6    6    0    0 -0.12197301359E+02  0.41113085688E+01  0.55680346572E+03  0.55695222098E+03  0.00000000000E+00 0. -1.
        -12    1    6    6    0    0 -0.37786441108E+02 -0.61857261916E+02  0.43164829578E+03  0.43769211466E+03  0.00000000000E+00 0.  1.
</event>
<event>
12    1  0.8421768E-002  0.1777407E+03  0.7818608E-02  0.1170277E+00
         21   -1    0    0  501  502  0.00000000000E+00  0.00000000000E+00  0.65816459029E+02  0.65816459029E+02  0.00000000000E+00 0. -1.
         21   -1    0    0  502  503 -0.00000000000E+00 -0.00000000000E+00 -0.72323681916E+03  0.72323681916E+03  0.00000000000E+00 0. -1.
         -6    2    1    2    0  503  0.36630305045E+02 -0.14506795695E+02 -0.55821965904E+03  0.58550348615E+03  0.17220022699E+03 0.  0.
        -24    2    3    3    0    0 -0.20294286600E+02  0.46332305425E+02 -0.27592792457E+03  0.29113548735E+03  0.77878827971E+02 0.  0.
          6    2    1    2  501    0 -0.36630305045E+02  0.14506795695E+02 -0.99200701083E+02  0.20354979204E+03  0.17331910562E+03 0.  0.
         24    2    5    5    0    0 -0.30427528379E+01 -0.55546076039E+02 -0.72074614539E+02  0.12112744633E+03  0.79890445515E+02 0.  0.
          5    1    5    5  501    0 -0.33587552207E+02  0.70052871734E+02 -0.27126086544E+02  0.82422345712E+02  0.47000000000E+01 0. -1.
        -13    1    6    6    0    0 -0.34604853215E+02 -0.10768152947E+02 -0.50701232985E+02  0.62322259347E+02  0.00000000000E+00 0.  1.
         14    1    6    6    0    0  0.31562100378E+02 -0.44777923092E+02 -0.21373381554E+02  0.58805186980E+02  0.00000000000E+00 0. -1.
         -5    1    3    3    0  503  0.56924591646E+02 -0.60839101119E+02 -0.28229173448E+03  0.29436799879E+03  0.47000000000E+01 0.  1.
         11    1    4    4    0    0  0.32355187100E+01  0.49847184538E+02 -0.25371886422E+03  0.25858938966E+03  0.00000000000E+00 0. -1.
        -12    1    4    4    0    0 -0.23529805310E+02 -0.35148791131E+01 -0.22209060350E+02  0.32546097689E+02  0.00000000000E+00 0.  1.
</event>
<event>
12    1  0.8421768E-002  0.1878416E+03  0.7818608E-02  0.1160693E+00
         21   -1    0    0  503  502  0.00000000000E+00  0.00000000000E+00  0.16674324320E+03  0.16674324320E+03  0.00000000000E+00 0. -1.
         21   -1    0    0  501  503 -0.00000000000E+00 -0.00000000000E+00 -0.34045806359E+03  0.34045806359E+03  0.00000000000E+00 0. -1.
          6    2    1    2  501    0  0.69986940635E+02 -0.18326300116E+02 -0.24383871630E+03  0.30780152485E+03  0.17335061002E+03 0.  0.
         24    2    3    3    0    0  0.82534265407E+02  0.15568941644E+02 -0.81373540558E+02  0.14129823328E+03  0.79304733245E+02 0.  0.
         -6    2    1    2    0  502 -0.69986940635E+02  0.18326300116E+02  0.70123895912E+02  0.19939978194E+03  0.17207233109E+03 0.  0.
        -24    2    5    5    0    0 -0.78550497860E+02 -0.20885292668E+02  0.97154477306E+02  0.15078264657E+03  0.81792651770E+02 0.  0.
          5    1    3    3  501    0 -0.12547324771E+02 -0.33895241760E+02 -0.16246517575E+03  0.16650329157E+03  0.47000000000E+01 0. -1.
        -11    1    4    4    0    0  0.33732911308E+02  0.40250263240E+02 -0.13670009129E+02  0.54266584063E+02  0.00000000000E+00 0.  1.
         12    1    4    4    0    0  0.48801354099E+02 -0.24681321596E+02 -0.67703531429E+02  0.87031649218E+02  0.00000000000E+00 0. -1.
         -5    1    5    5    0  502  0.85635572249E+01  0.39211592784E+02 -0.27030581394E+02  0.48617135369E+02  0.47000000000E+01 0.  1.
         11    1    6    6    0    0 -0.72451485192E+02  0.18964500696E+02  0.60079177108E+02  0.96012382092E+02  0.00000000000E+00 0. -1.
        -12    1    6    6    0    0 -0.60990126684E+01 -0.39849793364E+02  0.37075300198E+02  0.54770264482E+02  0.00000000000E+00 0.  1.
</event>
<event>
12    1  0.8421768E-002  0.2144902E+03  0.7818608E-02  0.1138135E+00
         21   -1    0    0  503  502  0.00000000000E+00  0.00000000000E+00  0.73604496344E+02  0.73604496344E+02  0.00000000000E+00 0. -1.
         21   -1    0    0  501  503 -0.00000000000E+00 -0.00000000000E+00 -0.98743203390E+03  0.98743203390E+03  0.00000000000E+00 0.  1.
          6    2    1    2  501    0 -0.92762956846E+02  0.85912706683E+02 -0.77854856956E+03  0.80744938010E+03  0.17277345551E+03 0.  0.
         24    2    3    3    0    0 -0.40167681327E+02  0.12079222654E+03 -0.55734990098E+03  0.57737594640E+03  0.80745691801E+02 0.  0.
         -6    2    1    2    0  502  0.92762956846E+02 -0.85912706683E+02 -0.13527896800E+03  0.25358715015E+03  0.17326304916E+03 0.  0.
        -24    2    5    5    0    0  0.45158792880E+02 -0.67340692669E+02 -0.63569459970E+01  0.11482817246E+03  0.81061784862E+02 0.  0.
          5    1    3    3  501    0 -0.52595275518E+02 -0.34879519857E+02 -0.22119866858E+03  0.23007343370E+03  0.47000000000E+01 0. -1.
        -13    1    4    4    0    0 -0.92935062801E+00  0.10237656382E+03 -0.45215223140E+03  0.46359838748E+03  0.00000000000E+00 0.  1.
         14    1    4    4    0    0 -0.39238330699E+02  0.18415662725E+02 -0.10519766958E+03  0.11377755892E+03  0.00000000000E+00 0. -1.
         -5    1    5    5    0  502  0.47604163966E+02 -0.18572014013E+02 -0.12892202200E+03  0.13875897769E+03  0.47000000000E+01 0.  1.
         13    1    6    6    0    0  0.97923160708E+01 -0.15099864287E+02  0.35026542281E+02  0.39379614265E+02  0.00000000000E+00 0. -1.
        -14    1    6    6    0    0  0.35366476809E+02 -0.52240828382E+02 -0.41383488278E+02  0.75448558197E+02  0.00000000000E+00 0.  1.
</event>
<event>
12    1  0.8421768E-002  0.2644698E+03  0.7818608E-02  0.1104513E+00
         21   -1    0    0  501  502  0.00000000000E+00  0.00000000000E+00  0.92649531627E+03  0.92649531627E+03  0.00000000000E+00 0. -1.
         21   -1    0    0  502  503 -0.00000000000E+00 -0.00000000000E+00 -0.22167437114E+04  0.22167437114E+04  0.00000000000E+00 0.  1.
         -6    2    1    2    0  503  0.14934825307E+03  0.13399685096E+03 -0.21897762817E+04  0.22056891075E+04  0.17229108526E+03 0.  0.
        -24    2    3    3    0    0  0.71345307226E+02  0.18058689158E+02 -0.59474121787E+03  0.60453793976E+03  0.79578484948E+02 0.  0.
          6    2    1    2  501    0 -0.14934825307E+03 -0.13399685096E+03  0.89952788661E+03  0.93754992018E+03  0.17201563091E+03 0.  0.
         24    2    5    5    0    0 -0.85790087294E+01 -0.71589224765E+02  0.43637169674E+03  0.44944497431E+03  0.79886862070E+02 0.  0.
          5    1    5    5  501    0 -0.14076924434E+03 -0.62407626198E+02  0.46315618988E+03  0.48810494587E+03  0.47000000000E+01 0. -1.
        -13    1    6    6    0    0  0.28799460619E+02 -0.25134199594E+01  0.12869364502E+03  0.13190064624E+03  0.00000000000E+00 0.  1.
         14    1    6    6    0    0 -0.37378469348E+02 -0.69075804805E+02  0.30767805172E+03  0.31754432807E+03  0.00000000000E+00 0. -1.
         -5    1    3    3    0  503  0.78002945843E+02  0.11593816180E+03 -0.15950350639E+04  0.16011511677E+04  0.47000000000E+01 0.  1.
         13    1    4    4    0    0 -0.44199764319E+01  0.21938518624E+02 -0.53300236422E+02  0.57807871382E+02  0.00000000000E+00 0. -1.
        -14    1    4    4    0    0  0.75765283658E+02 -0.38798294663E+01 -0.54144098144E+03  0.54673006838E+03  0.00000000000E+00 0.  1.
</event>
<event>
12    1  0.8421768E-002  0.2748345E+03  0.7818608E-02  0.1098896E+00
         21   -1    0    0  503  502  0.00000000000E+00  0.00000000000E+00  0.11805091675E+04  0.11805091675E+04  0.00000000000E+00 0.  1.
         21   -1    0    0  501  503 -0.00000000000E+00 -0.00000000000E+00 -0.87216236500E+02  0.87216236500E+02  0.00000000000E+00 0. -1.
          6    2    1    2  501    0 -0.13256756387E+03 -0.16851709655E+03  0.21725232756E+03  0.35033208112E+03  0.17193551818E+03 0.  0.
         24    2    3    3    0    0 -0.30016484075E+02 -0.21115249044E+02  0.11321374832E+03  0.14275042348E+03  0.78825678166E+02 0.  0.
         -6    2    1    2    0  502  0.13256756387E+03  0.16851709655E+03  0.87604060344E+03  0.91739332288E+03  0.16790235010E+03 0.  0.
        -24    2    5    5    0    0  0.10989503009E+03  0.54028884685E+02  0.36506783808E+03  0.39323986121E+03  0.79793633972E+02 0.  0.
          5    1    3    3  501    0 -0.10255107980E+03 -0.14740184751E+03  0.10403857924E+03  0.20758165764E+03  0.47000000000E+01 0. -1.
        -13    1    4    4    0    0 -0.13448366137E+02 -0.38465315341E+02  0.17975535791E+02  0.44537163392E+02  0.00000000000E+00 0.  1.
         14    1    4    4    0    0 -0.16568117937E+02  0.17350066298E+02  0.95238212526E+02  0.98213260091E+02  0.00000000000E+00 0. -1.
         -5    1    5    5    0  502  0.22672533775E+02  0.11448821187E+03  0.51097276536E+03  0.52415346167E+03  0.47000000000E+01 0.  1.
         11    1    6    6    0    0  0.10546490453E+02  0.20573009618E+00  0.14934398297E+03  0.14971605136E+03  0.00000000000E+00 0. -1.
        -12    1    6    6    0    0  0.99348539641E+02  0.53823154589E+02  0.21572385511E+03  0.24352380985E+03  0.00000000000E+00 0.  1.
</event>
<event>
12    1  0.8421768E-002  0.1820203E+03  0.7818608E-02  0.1166126E+00
         21   -1    0    0  503  502  0.00000000000E+00  0.00000000000E+00  0.68924045059E+03  0.68924045059E+03  0.00000000000E+00 0. -1.
         21   -1    0    0  501  503 -0.00000000000E+00 -0.00000000000E+00 -0.47778679271E+02  0.47778679271E+02  0.00000000000E+00 0. -1.
          6    2    1    2  501    0  0.52831694390E+02  0.23576537377E+02  0.32108317491E+03  0.36908780650E+03  0.17258146670E+03 0.  0.
         24    2    3    3    0    0  0.69178402360E+02 -0.41147258587E+02  0.18364248105E+03  0.21622048182E+03  0.80919637114E+02 0.  0.
         -6    2    1    2    0  502 -0.52831694390E+02 -0.23576537377E+02  0.32037859641E+03  0.36793132336E+03  0.17141753885E+03 0.  0.
        -24    2    5    5    0    0  0.76940852149E+01  0.43067958265E+02  0.17324829564E+03  0.19537908721E+03  0.79018781316E+02 0.  0.
          5    1    3    3  501    0 -0.16346707970E+02  0.64723795964E+02  0.13744069385E+03  0.15286732467E+03  0.47000000000E+01 0. -1.
        -11    1    4    4    0    0 -0.76046543554E+00 -0.15800237050E+02  0.11142329026E+03  0.11254055007E+03  0.00000000000E+00 0.  1.
         12    1    4    4    0    0  0.69938867796E+02 -0.25347021537E+02  0.72219190799E+02  0.10367993176E+03  0.00000000000E+00 0. -1.
         -5    1    5    5    0  502 -0.60525779605E+02 -0.66644495642E+02  0.14713030077E+03  0.17255223615E+03  0.47000000000E+01 0.  1.
         13    1    6    6    0    0 -0.18261283151E+02 -0.12834023386E+02  0.84016862812E+02  0.86931121328E+02  0.00000000000E+00 0. -1.
        -14    1    6    6    0    0  0.25955368366E+02  0.55901981651E+02  0.89231432829E+02  0.10844796588E+03  0.00000000000E+00 0.  1.
</event>
<event>
12    1  0.8421768E-002  0.1939655E+03  0.7818608E-02  0.1155377E+00
         21   -1    0    0  503  502  0.00000000000E+00  0.00000000000E+00  0.12923880251E+03  0.12923880251E+03  0.00000000000E+00 0.  1.
         21   -1    0    0  501  503 -0.00000000000E+00 -0.00000000000E+00 -0.29867913599E+03  0.29867913599E+03  0.00000000000E+00 0.  1.
          6    2    1    2  501    0 -0.77837961257E+02  0.33518390809E+02 -0.12456449139E+03  0.22882886790E+03  0.17223271331E+03 0.  0.
         24    2    3    3    0    0 -0.88829211516E+02  0.78547574207E+02 -0.10393779630E+03  0.17787805348E+03  0.82323667179E+02 0.  0.
         -6    2    1    2    0  502  0.77837961257E+02 -0.33518390809E+02 -0.44875842090E+02  0.19908907059E+03  0.17447173436E+03 0.  0.
        -24    2    5    5    0    0  0.94180792529E+02 -0.78228486565E+02 -0.34749828210E+02  0.15019421449E+03  0.79756088875E+02 0.  0.
          5    1    3    3  501    0  0.10991250259E+02 -0.45029183399E+02 -0.20626695091E+02  0.50950814421E+02  0.47000000000E+01 0. -1.
        -11    1    4    4    0    0 -0.13066094749E+02  0.42236568732E+02 -0.78504379214E+02  0.90097658826E+02  0.00000000000E+00 0.  1.
         12    1    4    4    0    0 -0.75763116768E+02  0.36311005476E+02 -0.25433417088E+02  0.87780394655E+02  0.00000000000E+00 0. -1.
         -5    1    5    5    0  502 -0.16342831272E+02  0.44710095756E+02 -0.10126013880E+02  0.48894856106E+02  0.47000000000E+01 0.  1.
         11    1    6    6    0    0  0.18947709923E+02 -0.65906425721E+02 -0.26482057815E+02  0.73511713684E+02  0.00000000000E+00 0. -1.
        -12    1    6    6    0    0  0.75233082606E+02 -0.12322060844E+02 -0.82677703955E+01  0.76682500802E+02  0.00000000000E+00 0.  1.
</event>
<event>
12    1  0.8421768E-002  0.2230926E+03  0.7818608E-02  0.1131701E+00
         21   -1    0    0  501  502  0.00000000000E+00  0.00000000000E+00  0.44905780855E+03  0.44905780855E+03  0.00000000000E+00 0. -1.
         21   -1    0    0  502  503 -0.00000000000E+00 -0.00000000000E+00 -0.15118944683E+03  0.15118944683E+03  0.00000000000E+00 0. -1.
         -6    2    1    2    0  503  0.10155199535E+03 -0.99993588366E+02 -0.67935373415E+01  0.22263745145E+03  0.17090862227E+03 0.  0.
        -24    2    3    3    0    0  0.10373537143E+03 -0.34915456327E+02  0.43197960363E+02  0.14041111599E+03  0.76610060294E+02 0.  0.
          6    2    1    2  501    0 -0.10155199535E+03  0.99993588366E+02  0.30466189906E+03  0.37760980393E+03  0.17163556103E+03 0.  0.
         24    2    5    5    0    0 -0.36162163542E+02  0.99342782759E+02  0.11012428279E+03  0.17232164597E+03  0.79941862956E+02 0.  0.
          5    1    5    5  501    0 -0.65389831811E+02  0.65080560696E+00  0.19453761628E+03  0.20528815796E+03  0.47000000000E+01 0. -1.
        -13    1    6    6    0    0  0.10836209732E+02 -0.87800407679E+01  0.17591427543E+02  0.22449295763E+02  0.00000000000E+00 0.  1.
         14    1    6    6    0    0 -0.46998373274E+02  0.10812282353E+03  0.92532855245E+02  0.14987235021E+03  0.00000000000E+00 0. -1.
         -5    1    3    3    0  503 -0.21833760773E+01 -0.65078132039E+02 -0.49991497704E+02  0.82226335462E+02  0.47000000000E+01 0.  1.
         11    1    4    4    0    0 -0.10268979734E+02 -0.14454289601E+02  0.69725605811E+01  0.19052428551E+02  0.00000000000E+00 0. -1.
        -12    1    4    4    0    0  0.11400435116E+03 -0.20461166726E+02  0.36225399782E+02  0.12135868744E+03  0.00000000000E+00 0.  1.
</event>
<event>
12    1  0.8421768E-002  0.1969551E+03  0.7818608E-02  0.1152616E+00
         21   -1    0    0  503  502  0.00000000000E+00  0.00000000000E+00  0.29815294299E+03  0.29815294299E+03  0.00000000000E+00 0. -1.
         21   -1    0    0  501  503 -0.00000000000E+00 -0.00000000000E+00 -0.16072280972E+03  0.16072280972E+03  0.00000000000E+00 0.  1.
          6    2    1    2  501    0 -0.85862668654E+02  0.42626969105E+02  0.17006993789E+03  0.25923436383E+03  0.17055560751E+03 0.  0.
         24    2    3    3    0    0 -0.11780686237E+03  0.41847762314E+01  0.14598045130E+03  0.20355108923E+03  0.78909977783E+02 0.  0.
         -6    2    1    2    0  502  0.85862668654E+02 -0.42626969105E+02 -0.32639804626E+02  0.19964138888E+03  0.17205194258E+03 0.  0.
        -24    2    5    5    0    0  0.11839656074E+03 -0.60151385077E+02 -0.43236750980E+02  0.16091227113E+03  0.79921259024E+02 0.  0.
          5    1    3    3  501    0  0.31944193718E+02  0.38442192873E+02  0.24089486592E+02  0.55683274594E+02  0.47000000000E+01 0. -1.
        -11    1    4    4    0    0 -0.12396199005E+03  0.13991016731E+02  0.14591541635E+03  0.19197299876E+03  0.00000000000E+00 0.  1.
         12    1    4    4    0    0  0.61551276757E+01 -0.98062405000E+01  0.65034949125E-01  0.11578090473E+02  0.00000000000E+00 0. -1.
         -5    1    5    5    0  502 -0.32533892085E+02  0.17524415972E+02  0.10596946354E+02  0.38729117746E+02  0.47000000000E+01 0.  1.
         11    1    6    6    0    0  0.11582802968E+03 -0.23919252386E+02 -0.37919643580E+02  0.12420210330E+03  0.00000000000E+00 0. -1.
        -12    1    6    6    0    0  0.25685310557E+01 -0.36232132691E+02 -0.53171074006E+01  0.36710167832E+02  0.00000000000E+00 0.  1.
</event>
<event>
12    1  0.8421768E-002  0.2295703E+03  0.7818608E-02  0.1127175E+00
         21   -1    0    0  503  502  0.00000000000E+00  0.00000000000E+00  0.13948942597E+03  0.13948942597E+03  0.00000000000E+00 0. -1.
         21   -1    0    0  501  503 -0.00000000000E+00 -0.00000000000E+00 -0.37657153218E+03  0.37657153218E+03  0.00000000000E+00 0. -1.
          6    2    1    2  501    0  0.38218773260E+02 -0.14755596699E+03 -0.10624089229E+03  0.25296173985E+03  0.17166559530E+03 0.  0.
         24    2    3    3    0    0  0.81062665493E+02 -0.58808592853E+02 -0.39833012888E+02  0.13403406450E+03  0.79679703820E+02 0.  0.
         -6    2    1    2    0  502 -0.38218773260E+02  0.14755596699E+03 -0.13084121392E+03  0.26309921829E+03  0.16990684914E+03 0.  0.
        -24    2    5    5    0    0 -0.14360717720E+02  0.26988693570E+02 -0.10937018336E+03  0.13824422486E+03  0.78835327762E+02 0.  0.
          5    1    3    3  501    0 -0.42843892233E+02 -0.88747374133E+02 -0.66407879406E+02  0.11892767535E+03  0.47000000000E+01 0. -1.
        -13    1    4    4    0    0  0.61991350044E+02 -0.58257766529E+02 -0.61643472024E+02  0.10505623487E+03  0.00000000000E+00 0.  1.
         14    1    4    4    0    0  0.19071315449E+02 -0.55082632366E+00  0.21810459136E+02  0.28977829634E+02  0.00000000000E+00 0. -1.
         -5    1    5    5    0  502 -0.23858055540E+02  0.12056727342E+03 -0.21471030559E+02  0.12485499344E+03  0.47000000000E+01 0.  1.
         11    1    6    6    0    0 -0.30872527679E+02  0.32691747427E+02 -0.11189692534E+03  0.12059347087E+03  0.00000000000E+00 0. -1.
        -12    1    6    6    0    0  0.16511809959E+02 -0.57030538577E+01  0.25267419764E+01  0.17650753991E+02  0.00000000000E+00 0.  1.
</event>
<event>
12    1  0.8421768E-002  0.1857164E+03  0.7818608E-02  0.1163047E+00
         21   -1    0    0  501  502  0.00000000000E+00  0.00000000000E+00  0.46775546074E+03  0.46775546074E+03  0.00000000000E+00 0.  1.
         21   -1    0    0  502  503 -0.00000000000E+00 -0.00000000000E+00 -0.72923387249E+02  0.72923387249E+02  0.00000000000E+00 0.  1.
         -6    2    1    2    0  503  0.72112317681E+02 -0.19624320613E+02  0.18130845382E+03  0.25954449643E+03  0.17001555777E+03 0.  0.
        -24    2    3    3    0    0  0.89374091003E+02 -0.12491941057E+02  0.55214822063E+02  0.13198849451E+03  0.78920905816E+02 0.  0.
          6    2    1    2  501    0 -0.72112317681E+02  0.19624320613E+02  0.21352361967E+03  0.28113435155E+03  0.16690981740E+03 0.  0.
         24    2    5    5    0    0 -0.10808620173E+02  0.25418279669E+02  0.11738605076E+02  0.70110667090E+02  0.63362414563E+02 0.  0.
          5    1    5    5  501    0 -0.61303697508E+02 -0.57939590560E+01  0.20178501459E+03  0.21102368446E+03  0.47000000000E+01 0. -1.
        -13    1    6    6    0    0  0.17472784207E+02 -0.10513644617E+02  0.13319393948E+02  0.24356542575E+02  0.00000000000E+00 0.  1.
         14    1    6    6    0    0 -0.28281404380E+02  0.35931924286E+02 -0.15807888724E+01  0.45754124514E+02  0.00000000000E+00 0. -1.
         -5    1    3    3    0  503 -0.17261773321E+02 -0.71323795557E+01  0.12609363176E+03  0.12755600192E+03  0.47000000000E+01 0.  1.
         13    1    4    4    0    0  0.73355478285E+02 -0.41796002257E+02  0.28131677446E+02  0.88990579698E+02  0.00000000000E+00 0. -1.
        -14    1    4    4    0    0  0.16018612718E+02  0.29304061200E+02  0.27083144617E+02  0.42997914816E+02  0.00000000000E+00 0.  1.
</event>
<event>
12    1  0.8421768E-002  0.2711520E+03  0.7818608E-02  0.1100787E+00
         21   -1    0    0  501  502  0.00000000000E+00  0.00000000000E+00  0.20834029691E+04  0.20834029691E+04  0.00000000000E+00 0. -1.
         21   -1    0    0  502  503 -0.00000000000E+00 -0.00000000000E+00 -0.52322070811E+02  0.52322070811E+02  0.00000000000E+00 0.  1.
         -6    2    1    2    0  503  0.20816226976E+03  0.18284805291E+02  0.40505267792E+03  0.48743313846E+03  0.17279330985E+03 0.  0.
        -24    2    3    3    0    0  0.19687878435E+03  0.36432084878E+02  0.41144847526E+03  0.46463759015E+03  0.80682648979E+02 0.  0.
          6    2    1    2  501    0 -0.20816226976E+03 -0.18284805291E+02  0.16260282204E+04  0.16482919015E+04  0.17097530311E+03 0.  0.
         24    2    5    5    0    0 -0.51646496393E+02 -0.54849094157E+01  0.92188948711E+03  0.92683887434E+03  0.80328249805E+02 0.  0.
          5    1    5    5  501    0 -0.15651577337E+03 -0.12799895876E+02  0.70413873327E+03  0.72145302712E+03  0.47000000000E+01 0. -1.
        -13    1    6    6    0    0  0.16930008851E+02  0.50800781936E+01  0.72640129630E+02  0.74759754058E+02  0.00000000000E+00 0.  1.
         14    1    6    6    0    0 -0.68576505244E+02 -0.10564987609E+02  0.84924935748E+03  0.85207912028E+03  0.00000000000E+00 0. -1.
         -5    1    3    3    0  503  0.11283485404E+02 -0.18147279586E+02 -0.63957973462E+01  0.22795548314E+02  0.47000000000E+01 0.  1.
         11    1    4    4    0    0  0.49320037976E+02 -0.14249804850E+02  0.16637364461E+03  0.17411407957E+03  0.00000000000E+00 0. -1.
        -12    1    4    4    0    0  0.14755874638E+03  0.50681889728E+02  0.24507483066E+03  0.29052351058E+03  0.00000000000E+00 0.  1.
</event>
<event>
12    1  0.8421768E-002  0.1720058E+03  0.7818608E-02  0.1175912E+00
         21   -1    0    0  501  502  0.00000000000E+00  0.00000000000E+00  0.42667900731E+03  0.42667900731E+03  0.00000000000E+00 0. -1.
         21   -1    0    0  502  503 -0.00000000000E+00 -0.00000000000E+00 -0.76140389847E+02  0.76140389847E+02  0.00000000000E+00 0. -1.
         -6    2    1    2    0  503  0.45601745497E+01 -0.66310698942E+01  0.25185739755E+03  0.30498878229E+03  0.17181746809E+03 0.  0.
        -24    2    3    3    0    0  0.23844178717E+02 -0.67811778158E+02  0.16367148247E+03  0.19583843873E+03  0.79983484513E+02 0.  0.
          6    2    1    2  501    0 -0.45601745497E+01  0.66310698942E+01  0.98681219914E+02  0.19783061487E+03  0.17127230581E+03 0.  0.
         24    2    5    5    0    0 -0.55580436638E+02  0.27206504751E+02  0.20983864185E+02  0.10251333023E+03  0.78989122553E+02 0.  0.
          5    1    5    5  501    0  0.51020262089E+02 -0.20575434857E+02  0.77697355729E+02  0.95317284637E+02  0.47000000000E+01 0. -1.
        -11    1    6    6    0    0 -0.38426406485E+02 -0.20602149364E+02 -0.75569642749E+01  0.44250932000E+02  0.00000000000E+00 0.  1.
         12    1    6    6    0    0 -0.17154030153E+02  0.47808654115E+02  0.28540828459E+02  0.58262398233E+02  0.00000000000E+00 0. -1.
         -5    1    3    3    0  503 -0.19284004167E+02  0.61180708263E+02  0.88185915080E+02  0.10915034356E+03  0.47000000000E+01 0.  1.
         13    1    4    4    0    0 -0.49087910946E+01 -0.32074703492E+02  0.14097717177E+03  0.14466321507E+03  0.00000000000E+00 0. -1.
        -14    1    4    4    0    0  0.28752969812E+02 -0.35737074666E+02  0.22694310702E+02  0.51175223662E+02  0.00000000000E+00 0.  1.
</event>
<event>
12    1  0.8421768E-002  0.1895632E+03  0.7818608E-02  0.1160906E+00
         21   -1    0    0  503  502  0.00000000000E+00  0.00000000000E+00  0.62767189973E+02  0.62767189973E+02  0.00000000000E+00 0.  1.
         21   -1    0    0  501  503 -0.00000000000E+00 -0.00000000000E+00 -0.17605278834E+04  0.17605278834E+04  0.00000000000E+00 0.  1.
          6    2    1    2  501    0 -0.42743658187E+02 -0.22538205697E+02 -0.16122526259E+04  0.16233584713E+04  0.18330086131E+03 0.  0.
         24    2    3    3    0    0 -0.84220060601E+02 -0.47587213456E+02 -0.14043063507E+04  0.14097900090E+04  0.77935751292E+02 0.  0.
         -6    2    1    2    0  502  0.42743658187E+02  0.22538205697E+02 -0.85508067616E+02  0.19993660211E+03  0.17414943068E+03 0.  0.
        -24    2    5    5    0    0 -0.51271850847E+01  0.25398099339E+01 -0.11459400313E+03  0.14027392439E+03  0.80698510822E+02 0.  0.
          5    1    3    3  501    0  0.41476402414E+02  0.25049007759E+02 -0.20794627512E+03  0.21356846229E+03  0.47000000000E+01 0. -1.
        -13    1    4    4    0    0 -0.41576074840E+02 -0.65213597081E+02 -0.95185136420E+03  0.95498816891E+03  0.00000000000E+00 0.  1.
         14    1    4    4    0    0 -0.42643985761E+02  0.17626383625E+02 -0.45245498654E+03  0.45480184011E+03  0.00000000000E+00 0. -1.
         -5    1    5    5    0  502  0.47870843272E+02  0.19998395764E+02  0.29085935510E+02  0.59662677724E+02  0.47000000000E+01 0.  1.
         11    1    6    6    0    0  0.76497764836E+01  0.39486098139E+02 -0.44254299947E+02  0.59800619481E+02  0.00000000000E+00 0. -1.
        -12    1    6    6    0    0 -0.12776961568E+02 -0.36946288205E+02 -0.70339703179E+02  0.80473304905E+02  0.00000000000E+00 0.  1.
</event>
<event>
12    1  0.8421768E-002  0.3466960E+03  0.7818608E-02  0.1064192E+00
         21   -1    0    0  503  502  0.00000000000E+00  0.00000000000E+00  0.11725784748E+03  0.11725784748E+03  0.00000000000E+00 0. -1.
         21   -1    0    0  501  503 -0.00000000000E+00 -0.00000000000E+00 -0.10317464474E+04  0.10317464474E+04  0.00000000000E+00 0.  1.
          6    2    1    2  501    0 -0.27798074827E+03 -0.11334737595E+03 -0.39487335817E+03  0.52547412170E+03  0.17342767811E+03 0.  0.
         24    2    3    3    0    0 -0.21160353029E+03 -0.92140361333E+02 -0.38344085087E+03  0.45470361401E+03  0.80390237297E+02 0.  0.
         -6    2    1    2    0  502  0.27798074827E+03  0.11334737595E+03 -0.51961524175E+03  0.62353017320E+03  0.16931908746E+03 0.  0.
        -24    2    5    5    0    0  0.24450091396E+03  0.50829423806E+02 -0.33397097161E+03  0.42474567006E+03  0.80671848323E+02 0.  0.
          5    1    3    3  501    0 -0.66377217979E+02 -0.21207014619E+02 -0.11432507298E+02  0.70770507691E+02  0.47000000000E+01 0. -1.
        -13    1    4    4    0    0 -0.14412251586E+02 -0.42823534841E+01 -0.85283698655E+02  0.86598849896E+02  0.00000000000E+00 0.  1.
         14    1    4    4    0    0 -0.19719127870E+03 -0.87858007849E+02 -0.29815715222E+03  0.36810476411E+03  0.00000000000E+00 0. -1.
         -5    1    5    5    0  502  0.33479834310E+02  0.62517952146E+02 -0.18564427015E+03  0.19878450313E+03  0.47000000000E+01 0.  1.
         11    1    6    6    0    0  0.41173327345E+02  0.41650572593E+02 -0.83793443226E+02  0.10223186494E+03  0.00000000000E+00 0. -1.
        -12    1    6    6    0    0  0.20332758661E+03  0.91788512125E+01 -0.25017752838E+03  0.32251380512E+03  0.00000000000E+00 0.  1.
</event>
<event>
12    1  0.8421768E-002  0.1846227E+03  0.7818608E-02  0.1163603E+00
         21   -1    0    0  503  502  0.00000000000E+00  0.00000000000E+00  0.33732563551E+03  0.33732563551E+03  0.00000000000E+00 0.  1.
         21   -1    0    0  501  503 -0.00000000000E+00 -0.00000000000E+00 -0.24646499516E+03  0.24646499516E+03  0.00000000000E+00 0.  1.
          6    2    1    2  501    0 -0.55427490219E+02 -0.37382391523E+02 -0.17909835433E+03  0.25721926134E+03  0.17209264370E+03 0.  0.
         24    2    3    3    0    0 -0.48889275002E+02 -0.62845645245E+02 -0.54478805133E+02  0.12977026138E+03  0.86790807086E+02 0.  0.
         -6    2    1    2    0  502  0.55427490219E+02  0.37382391523E+02  0.26995899468E+03  0.32657136932E+03  0.17117637274E+03 0.  0.
        -24    2    5    5    0    0  0.22694538207E+02  0.51702247030E+02  0.27344610916E+03  0.29036702736E+03  0.79699884263E+02 0.  0.
          5    1    3    3  501    0 -0.65382152175E+01  0.25463253722E+02 -0.12461954920E+03  0.12744899996E+03  0.47000000000E+01 0. -1.
        -13    1    4    4    0    0 -0.96066783961E+01 -0.73144663309E+02 -0.49534849507E+02  0.88860178686E+02  0.00000000000E+00 0.  1.
         14    1    4    4    0    0 -0.39282596606E+02  0.10299018064E+02 -0.49439556254E+01  0.40910082699E+02  0.00000000000E+00 0. -1.
         -5    1    5    5    0  502  0.32732952012E+02 -0.14319855507E+02 -0.34871144852E+01  0.36204341958E+02  0.47000000000E+01 0.  1.
         11    1    6    6    0    0 -0.68862125833E+01 -0.83453638247E+01  0.14609780150E+03  0.14649789290E+03  0.00000000000E+00 0. -1.
        -12    1    6    6    0    0  0.29580750791E+02  0.60047610855E+02  0.12734830766E+03  0.14386913446E+03  0.00000000000E+00 0.  1.
</event>
<event>
12    1  0.8421768E-002  0.2733066E+03  0.7818608E-02  0.1099592E+00
         21   -1    0    0  503  502  0.00000000000E+00  0.00000000000E+00  0.38293942938E+03  0.38293942938E+03  0.00000000000E+00 0.  1.
         21   -1    0    0  501  503 -0.00000000000E+00 -0.00000000000E+00 -0.33857443849E+03  0.33857443849E+03  0.00000000000E+00 0.  1.
          6    2    1    2  501    0  0.17257776521E+03 -0.12386860988E+03 -0.21344100638E+03  0.34677595110E+03  0.17195923788E+03 0.  0.
         24    2    3    3    0    0  0.19624776654E+03 -0.93133983617E+02 -0.16331458894E+03  0.28321783643E+03  0.79709241207E+02 0.  0.
         -6    2    1    2    0  502 -0.17257776521E+03  0.12386860988E+03  0.25780599728E+03  0.37473791678E+03  0.16981771544E+03 0.  0.
        -24    2    5    5    0    0 -0.17309301116E+03  0.10668636223E+03  0.14881753729E+03  0.26430210047E+03  0.79785778869E+02 0.  0.
          5    1    3    3  501    0 -0.23670001329E+02 -0.30734626263E+02 -0.50126417440E+02  0.63558114665E+02  0.47000000000E+01 0. -1.
        -11    1    4    4    0    0  0.81118770634E+02 -0.26642522326E+02 -0.19923850778E+02  0.87675759335E+02  0.00000000000E+00 0.  1.
         12    1    4    4    0    0  0.11512899591E+03 -0.66491461291E+02 -0.14339073817E+03  0.19554207710E+03  0.00000000000E+00 0. -1.
         -5    1    5    5    0  502  0.51524594294E+00  0.17182247654E+02  0.10898845999E+03  0.11043581631E+03  0.47000000000E+01 0.  1.
         13    1    6    6    0    0 -0.96817663044E+01  0.29336261076E+02  0.12292247196E+01  0.30917047176E+02  0.00000000000E+00 0. -1.
        -14    1    6    6    0    0 -0.16341124485E+03  0.77350101150E+02  0.14758831257E+03  0.23338505329E+03  0.00000000000E+00 0.  1.
</event>
<event>
12    1  0.8421768E-002  0.1763622E+03  0.7818608E-02  0.1171743E+00
         21   -1    0    0  503  502  0.00000000000E+00  0.00000000000E+00  0.45547407888E+03  0.45547407888E+03  0.00000000000E+00 0. -1.
         21   -1    0    0  501  503 -0.00000000000E+00 -0.00000000000E+00 -0.13333227149E+03  0.13333227149E+03  0.00000000000E+00 0. -1.
          6    2    1    2  501    0  0.26680006911E+02  0.21000175481E+02 -0.45115459369E+02  0.18204128825E+03  0.17306298222E+03 0.  0.
         24    2    3    3    0    0  0.53334989928E+02  0.52770932859E+02  0.98939931719E+01  0.11299058939E+03  0.83902262691E+02 0.  0.
         -6    2    1    2    0  502 -0.26680006911E+02 -0.21000175481E+02  0.36725726676E+03  0.40676506212E+03  0.17154324713E+03 0.  0.
        -24    2    5    5    0    0 -0.26426850899E+02 -0.70064712665E+02  0.18191666660E+03  0.21498231794E+03  0.86696488004E+02 0.  0.
          5    1    3    3  501    0 -0.26654983017E+02 -0.31770757378E+02 -0.55009452541E+02  0.69050698858E+02  0.47000000000E+01 0. -1.
        -13    1    4    4    0    0 -0.13859424561E+02  0.42032080220E+02  0.75919131053E+01  0.44904527181E+02  0.00000000000E+00 0.  1.
         14    1    4    4    0    0  0.67194414489E+02  0.10738852639E+02  0.23020800666E+01  0.68086062209E+02  0.00000000000E+00 0. -1.
         -5    1    5    5    0  502 -0.25315601149E+00  0.49064537185E+02  0.18534060016E+03  0.19178274418E+03  0.47000000000E+01 0.  1.
         11    1    6    6    0    0 -0.34726929772E+01  0.39950239671E+00  0.11524125053E+03  0.11529425407E+03  0.00000000000E+00 0. -1.
        -12    1    6    6    0    0 -0.22954157922E+02 -0.70464215062E+02  0.66675416072E+02  0.99688063872E+02  0.00000000000E+00 0.  1.
</event>
<event>
12    1  0.8421768E-002  0.2025959E+03  0.7818608E-02  0.1148878E+00
         21   -1    0    0  503  502  0.00000000000E+00  0.00000000000E+00  0.20422823286E+03  0.20422823286E+03  0.00000000000E+00 0. -1.
         21   -1    0    0  501  503 -0.00000000000E+00 -0.00000000000E+00 -0.19880908057E+03  0.19880908057E+03  0.00000000000E+00 0.  1.
          6    2    1    2  501    0  0.20693936300E+02 -0.10291964037E+03 -0.25661304631E+02  0.20421463988E+03  0.17327557593E+03 0.  0.
         24    2    3    3    0    0 -0.34038244479E+02 -0.38847169779E+02 -0.60581763625E+02  0.11287778228E+03  0.80022115448E+02 0.  0.
         -6    2    1    2    0  502 -0.20693936300E+02  0.10291964037E+03  0.31080456924E+02  0.19882267355E+03  0.16596315658E+03 0.  0.
        -24    2    5    5    0    0 -0.67557799876E+01  0.50873961678E+02  0.81559480255E+02  0.12484127948E+03  0.79369992464E+02 0.  0.
          5    1    3    3  501    0  0.54732180778E+02 -0.64072470592E+02  0.34920458994E+02  0.91336857603E+02  0.47000000000E+01 0. -1.
        -13    1    4    4    0    0  0.25439432553E+02 -0.94553158939E+01 -0.27894568280E+02  0.38918821499E+02  0.00000000000E+00 0.  1.
         14    1    4    4    0    0 -0.59477677032E+02 -0.29391853885E+02 -0.32687195345E+02  0.73958960778E+02  0.00000000000E+00 0. -1.
         -5    1    5    5    0  502 -0.13938156312E+02  0.52045678694E+02 -0.50479023331E+02  0.73981394070E+02  0.47000000000E+01 0.  1.
         13    1    6    6    0    0 -0.37687843778E+02  0.34730139923E+02  0.72513572546E+02  0.88796252123E+02  0.00000000000E+00 0. -1.
        -14    1    6    6    0    0  0.30932063790E+02  0.16143821755E+02  0.90459077089E+01  0.36045027361E+02  0.00000000000E+00 0.  1.
</event>
<event>
12    1  0.8421768E-002  0.1925820E+03  0.7818608E-02  0.1156222E+00
         21   -1    0    0  503  502  0.00000000000E+00  0.00000000000E+00  0.11219666716E+03  0.11219666716E+03  0.00000000000E+00 0. -1.
         21   -1    0    0  501  503 -0.00000000000E+00 -0.00000000000E+00 -0.44652103845E+03  0.44652103845E+03  0.00000000000E+00 0.  1.
          6    2    1    2  501    0 -0.82855150871E+01 -0.86421118781E+02 -0.30975380931E+03  0.36457464078E+03  0.17155170296E+03 0.  0.
         24    2    3    3    0    0  0.53095849226E+02 -0.15096888763E+02 -0.17210405559E+03  0.19776827888E+03  0.80283254325E+02 0.  0.
         -6    2    1    2    0  502  0.82855150871E+01  0.86421118781E+02 -0.24570561992E+02  0.19414306483E+03  0.17190275615E+03 0.  0.
        -24    2    5    5    0    0  0.10050202445E+02  0.29027143112E+02  0.50499754080E+02  0.99513128129E+02  0.80056579377E+02 0.  0.
          5    1    3    3  501    0 -0.61381364313E+02 -0.71324230018E+02 -0.13764975371E+03  0.16680636190E+03  0.47000000000E+01 0. -1.
        -11    1    4    4    0    0 -0.13088538686E+02 -0.71987608678E+01 -0.93600616448E+02  0.94785058962E+02  0.00000000000E+00 0.  1.
         12    1    4    4    0    0  0.66184387912E+02 -0.78981278951E+01 -0.78503439146E+02  0.10298321992E+03  0.00000000000E+00 0. -1.
         -5    1    5    5    0  502 -0.17646873575E+01  0.57393975668E+02 -0.75070316072E+02  0.94629936699E+02  0.47000000000E+01 0.  1.
         11    1    6    6    0    0  0.76231348583E+01  0.55714679442E+02  0.21974379444E+02  0.60374755009E+02  0.00000000000E+00 0. -1.
        -12    1    6    6    0    0  0.24270675864E+01 -0.26687536330E+02  0.28525374636E+02  0.39138373121E+02  0.00000000000E+00 0.  1.
</event>
<event>
12    1  0.8421768E-002  0.1934291E+03  0.7818608E-02  0.1155446E+00
         21   -1    0    0  501  502  0.00000000000E+00  0.00000000000E+00  0.13902969040E+03  0.13902969040E+03  0.00000000000E+00 0.  1.
         21   -1    0    0  502  503 -0.00000000000E+00 -0.00000000000E+00 -0.56829949189E+03  0.56829949189E+03  0.00000000000E+00 0.  1.
         -6    2    1    2    0  503 -0.88285299426E+02  0.65816145475E+01 -0.47140511603E+03  0.50954646213E+03  0.17198023695E+03 0.  0.
        -24    2    3    3    0    0  0.29181861059E+01  0.37593850511E+02 -0.27782298155E+03  0.29326893823E+03  0.86018879602E+02 0.  0.
          6    2    1    2  501    0  0.88285299426E+02 -0.65816145475E+01  0.42135314533E+02  0.19778272017E+03  0.17177021838E+03 0.  0.
         24    2    5    5    0    0  0.81292426541E+02 -0.61842072078E+02  0.41331654101E+01  0.13018929020E+03  0.80618036031E+02 0.  0.
          5    1    5    5  501    0  0.69928728850E+01  0.55260457530E+02  0.38002149123E+02  0.67593429974E+02  0.47000000000E+01 0. -1.
        -11    1    6    6    0    0  0.91623877555E+02 -0.51463829925E+02 -0.14938160127E+02  0.10614428556E+03  0.00000000000E+00 0.  1.
         12    1    6    6    0    0 -0.10331451014E+02 -0.10378242152E+02  0.19071325537E+02  0.24045004637E+02  0.00000000000E+00 0. -1.
         -5    1    3    3    0  503 -0.91203485532E+02 -0.31012235963E+02 -0.19358213448E+03  0.21627752390E+03  0.47000000000E+01 0.  1.
         13    1    4    4    0    0  0.12419521014E+02  0.40503252568E+02 -0.51315099878E+02  0.66543199850E+02  0.00000000000E+00 0. -1.
        -14    1    4    4    0    0 -0.95013349078E+01 -0.29094020569E+01 -0.22650788167E+03  0.22672573838E+03  0.00000000000E+00 0.  1.
</event>
<event>
12    1  0.8421768E-002  0.3039148E+03  0.7818608E-02  0.1083549E+00
         21   -1    0    0  503  502  0.00000000000E+00  0.00000000000E+00  0.20673097012E+03  0.20673097012E+03  0.00000000000E+00 0.  1.
         21   -1    0    0  501  503 -0.00000000000E+00 -0.00000000000E+00 -0.45511493299E+03  0.45511493299E+03  0.00000000000E+00 0. -1.
          6    2    1    2  501    0  0.14873702355E+03 -0.19846142473E+03 -0.71648493637E+02  0.31027853913E+03  0.17213258239E+03 0.  0.
         24    2    3    3    0    0  0.83586773106E+02 -0.20451406546E+03 -0.66996270349E+02  0.24451439407E+03  0.80535936439E+02 0.  0.
         -6    2    1    2    0  502 -0.14873702355E+03  0.19846142473E+03 -0.17673546923E+03  0.35156736398E+03  0.17565462150E+03 0.  0.
        -24    2    5    5    0    0 -0.79765627534E+02  0.26447863352E+02 -0.46395573604E+02  0.12494808599E+03  0.79983936707E+02 0.  0.
          5    1    3    3  501    0  0.65150250449E+02  0.60526407304E+01 -0.46522232881E+01  0.65764145055E+02  0.47000000000E+01 0. -1.
        -13    1    4    4    0    0  0.25886959696E+02 -0.15002458869E+03 -0.23593290683E+02  0.15405893437E+03  0.00000000000E+00 0.  1.
         14    1    4    4    0    0  0.57699813409E+02 -0.54489476773E+02 -0.43402979666E+02  0.90455459705E+02  0.00000000000E+00 0. -1.
         -5    1    5    5    0  502 -0.68971396020E+02  0.17201356138E+03 -0.13033989563E+03  0.22661927799E+03  0.47000000000E+01 0.  1.
         13    1    6    6    0    0 -0.70399057174E+02  0.25940756642E+02 -0.68087011659E+02  0.10131530616E+03  0.00000000000E+00 0. -1.
        -14    1    6    6    0    0 -0.93665703596E+01  0.50710671063E+00  0.21691438055E+02  0.23632779829E+02  0.00000000000E+00 0.  1.
</event>
<event>
12    1  0.8421768E-002  0.1860370E+03  0.7818608E-02  0.1162367E+00
         21   -1    0    0  501  502  0.00000000000E+00  0.00000000000E+00  0.82712374114E+03  0.82712374114E+03  0.00000000000E+00 0.  1.
         21   -1    0    0  502  503 -0.00000000000E+00 -0.00000000000E+00 -0.49452907761E+02  0.49452907761E+02  0.00000000000E+00 0.  1.
         -6    2    1    2    0  503 -0.62620483383E+02  0.63521753886E+01  0.56487241348E+03  0.59471892509E+03  0.17506593409E+03 0.  0.
        -24    2    3    3    0    0 -0.30529923964E+02 -0.17002776646E+01  0.55263061107E+03  0.55912963274E+03  0.79311958212E+02 0.  0.
          6    2    1    2  501    0  0.62620483383E+02 -0.63521753886E+01  0.21279841990E+03  0.28185772381E+03  0.17377840455E+03 0.  0.
         24    2    5    5    0    0  0.30667207327E+02 -0.32740525725E+02  0.22094938111E+03  0.23936201752E+03  0.80393574304E+02 0.  0.
          5    1    5    5  501    0  0.31953276056E+02  0.26388350336E+02 -0.81509612118E+01  0.42495706287E+02  0.47000000000E+01 0. -1.
        -13    1    6    6    0    0 -0.26567385061E+00 -0.50307836708E+02  0.84412248734E+02  0.98266864981E+02  0.00000000000E+00 0.  1.
         14    1    6    6    0    0  0.30932881177E+02  0.17567310983E+02  0.13653713238E+03  0.14109515254E+03  0.00000000000E+00 0. -1.
         -5    1    3    3    0  503 -0.32090559418E+02  0.80524530533E+01  0.12241802415E+02  0.35589292355E+02  0.47000000000E+01 0.  1.
         13    1    4    4    0    0 -0.74232430367E+01  0.36543022152E+01  0.27227000209E+01  0.87104280759E+01  0.00000000000E+00 0. -1.
        -14    1    4    4    0    0 -0.23106680928E+02 -0.53545798798E+01  0.54990791105E+03  0.55041920466E+03  0.00000000000E+00 0.  1.
</event>
<event>
12    1  0.8421768E-002  0.2169459E+03  0.7818608E-02  0.1136234E+00
         21   -1    0    0  503  502  0.00000000000E+00  0.00000000000E+00  0.38008953919E+03  0.38008953919E+03  0.00000000000E+00 0. -1.
         21   -1    0    0  501  503 -0.00000000000E+00 -0.00000000000E+00 -0.20306904470E+03  0.20306904470E+03  0.00000000000E+00 0. -1.
          6    2    1    2  501    0 -0.41503838154E+02 -0.12545375441E+03  0.27080063380E+03  0.34681083645E+03  0.17170777482E+03 0.  0.
         24    2    3    3    0    0 -0.98277452514E+01 -0.98300555137E+02  0.76625427931E+02  0.14814837984E+03  0.79478943911E+02 0.  0.
         -6    2    1    2    0  502  0.41503838154E+02  0.12545375441E+03 -0.93780139317E+02  0.23634774744E+03  0.17205908902E+03 0.  0.
        -24    2    5    5    0    0  0.82650807123E+02  0.10697488832E+03 -0.33556917859E+02  0.16095896877E+03  0.80665607548E+02 0.  0.
          5    1    3    3  501    0 -0.31676092903E+02 -0.27153199275E+02  0.19417520587E+03  0.19866245661E+03  0.47000000000E+01 0. -1.
        -11    1    4    4    0    0  0.21907812543E+02 -0.80659186276E+00  0.25343309621E+02  0.33509493929E+02  0.00000000000E+00 0.  1.
         12    1    4    4    0    0 -0.31735557794E+02 -0.97493963274E+02  0.51282118311E+02  0.11463888591E+03  0.00000000000E+00 0. -1.
         -5    1    5    5    0  502 -0.41146968969E+02  0.18478866088E+02 -0.60223221458E+02  0.75388778674E+02  0.47000000000E+01 0.  1.
         11    1    6    6    0    0  0.48609375643E+02  0.10483970812E+03 -0.36853697260E+01  0.11561927932E+03  0.00000000000E+00 0. -1.
        -12    1    6    6    0    0  0.34041431480E+02  0.21351802002E+01 -0.29871548133E+02  0.45339689452E+02  0.00000000000E+00 0.  1.
</event>
<event>
12    1  0.8421768E-002  0.1775358E+03  0.7818608E-02  0.1170264E+00
         21   -1    0    0  501  502  0.00000000000E+00  0.00000000000E+00  0.39575934219E+03  0.39575934219E+03  0.00000000000E+00 0.  1.
         21   -1    0    0  502  503 -0.00000000000E+00 -0.00000000000E+00 -0.22760520820E+03  0.22760520820E+03  0.00000000000E+00 0.  1.
         -6    2    1    2    0  503 -0.13632148827E+02 -0.42308829295E+02 -0.16729237925E+03  0.24393792782E+03  0.17188106340E+03 0.  0.
        -24    2    3    3    0    0  0.33112582080E+02 -0.47618400338E+02 -0.16967649467E+03  0.19659835221E+03  0.80603003074E+02 0.  0.
          6    2    1    2  501    0  0.13632148827E+02  0.42308829295E+02  0.33544651323E+03  0.37942662258E+03  0.17165175840E+03 0.  0.
         24    2    5    5    0    0 -0.51882172835E+02 -0.43603155109E+01  0.20075914479E+03  0.22247786457E+03  0.80507104034E+02 0.  0.
          5    1    5    5  501    0  0.65514321662E+02  0.46669144805E+02  0.13468736844E+03  0.15694875800E+03  0.47000000000E+01 0. -1.
        -11    1    6    6    0    0 -0.47235306941E+02  0.20450729607E+02  0.18652917100E+03  0.19350074470E+03  0.00000000000E+00 0.  1.
         12    1    6    6    0    0 -0.46468658940E+01 -0.24811045118E+02  0.14229973787E+02  0.28977119878E+02  0.00000000000E+00 0. -1.
         -5    1    3    3    0  503 -0.46744730907E+02  0.53095710439E+01  0.23841154224E+01  0.47339575606E+02  0.47000000000E+01 0.  1.
         13    1    4    4    0    0  0.16540179114E+02 -0.12341847433E+02  0.18306365903E+01  0.20718348233E+02  0.00000000000E+00 0. -1.
        -14    1    4    4    0    0  0.16572402966E+02 -0.35276552905E+02 -0.17150713126E+03  0.17588000398E+03  0.00000000000E+00 0.  1.
</event>
<event>
12    1  0.8421768E-002  0.2082874E+03  0.7818608E-02  0.1143204E+00
         21   -1    0    0  501  502  0.00000000000E+00  0.00000000000E+00  0.26362763394E+03  0.26362763394E+03  0.00000000000E+00 0. -1.
         21   -1    0    0  502  503 -0.00000000000E+00 -0.00000000000E+00 -0.16704948364E+03  0.16704948364E+03  0.00000000000E+00 0.  1.
         -6    2    1    2    0  503  0.74475347778E+02  0.90008059837E+02  0.79582872323E+02  0.22169749119E+03  0.17078734078E+03 0.  0.
        -24    2    3    3    0    0 -0.11059391221E+02  0.81127116300E+02  0.76274140676E+02  0.13551106280E+03  0.76430258873E+02 0.  0.
          6    2    1    2  501    0 -0.74475347778E+02 -0.90008059837E+02  0.16995277973E+02  0.20897962640E+03  0.17244018242E+03 0.  0.
         24    2    5    5    0    0 -0.10441785934E+03 -0.86303559448E+02 -0.21758177855E+02  0.15964203768E+03  0.81613529320E+02 0.  0.
          5    1    5    5  501    0  0.29942511562E+02 -0.37045003890E+01  0.38753455828E+02  0.49337588717E+02  0.47000000000E+01 0. -1.
        -13    1    6    6    0    0 -0.15206493617E+02 -0.46393075250E+02  0.20772407105E+02  0.53057023816E+02  0.00000000000E+00 0.  1.
         14    1    6    6    0    0 -0.89211365724E+02 -0.39910484198E+02 -0.42530584960E+02  0.10658501386E+03  0.00000000000E+00 0. -1.
         -5    1    3    3    0  503  0.85534738999E+02  0.88809435376E+01  0.33087316470E+01  0.86186428391E+02  0.47000000000E+01 0.  1.
         13    1    4    4    0    0  0.23398697867E+02  0.53771025603E+02  0.69600101369E+02  0.91010968387E+02  0.00000000000E+00 0. -1.
        -14    1    4    4    0    0 -0.34458089088E+02  0.27356090697E+02  0.66740393069E+01  0.44500094410E+02  0.00000000000E+00 0.  1.
</event>
<event>
12    1  0.8421768E-002  0.1912978E+03  0.7818608E-02  0.1157539E+00
         21   -1    0    0  503  502  0.00000000000E+00  0.00000000000E+00  0.16576291760E+04  0.16576291760E+04  0.00000000000E+00 0.  1.
         21   -1    0    0  501  503 -0.00000000000E+00 -0.00000000000E+00 -0.46977676395E+02  0.46977676395E+02  0.00000000000E+00 0.  1.
          6    2    1    2  501    0 -0.79127007279E+02  0.20534757642E+02  0.18431860761E+03  0.26564673751E+03  0.17295109275E+03 0.  0.
         24    2    3    3    0    0 -0.57853127083E+02  0.80071120502E+02  0.13478822384E+03  0.18519485501E+03  0.79817920191E+02 0.  0.
         -6    2    1    2    0  502  0.79127007279E+02 -0.20534757642E+02  0.14263328920E+04  0.14389601149E+04  0.17174962561E+03 0.  0.
        -24    2    5    5    0    0  0.57466558449E+02 -0.28687991409E+02  0.41278202984E+03  0.42513414834E+03  0.78896348058E+02 0.  0.
          5    1    3    3  501    0 -0.21273880196E+02 -0.59536362860E+02  0.49530383764E+02  0.80451882495E+02  0.47000000000E+01 0. -1.
        -13    1    4    4    0    0 -0.58245962926E+02  0.44664233736E+02  0.39097884127E+02  0.83163276244E+02  0.00000000000E+00 0.  1.
         14    1    4    4    0    0  0.39283584347E+00  0.35406886766E+02  0.95690339717E+02  0.10203157877E+03  0.00000000000E+00 0. -1.
         -5    1    5    5    0  502  0.21660448830E+02  0.81532337669E+01  0.10135508622E+04  0.10138259666E+04  0.47000000000E+01 0.  1.
         11    1    6    6    0    0 -0.10284528364E+02 -0.21846295725E+02  0.44685771225E+02  0.50792226871E+02  0.00000000000E+00 0. -1.
        -12    1    6    6    0    0  0.67751086814E+02 -0.68416956844E+01  0.36809625862E+03  0.37434192147E+03  0.00000000000E+00 0.  1.
</event>
<event>
12    1  0.8421768E-002  0.1974423E+03  0.7818608E-02  0.1152585E+00
         21   -1    0    0  501  502  0.00000000000E+00  0.00000000000E+00  0.12102333255E+03  0.12102333255E+03  0.00000000000E+00 0.  1.
         21   -1    0    0  502  503 -0.00000000000E+00 -0.00000000000E+00 -0.38590756704E+03  0.38590756704E+03  0.00000000000E+00 0. -1.
         -6    2    1    2    0  503  0.28576814306E+02 -0.85748150822E+02 -0.24033989205E+03  0.31104137250E+03  0.17553943149E+03 0.  0.
        -24    2    3    3    0    0  0.71098451368E+02 -0.10647215570E+03 -0.18235538279E+03  0.23606226000E+03  0.77978171546E+02 0.  0.
          6    2    1    2  501    0 -0.28576814306E+02  0.85748150822E+02 -0.24544342441E+02  0.19588952710E+03  0.17204912785E+03 0.  0.
         24    2    5    5    0    0  0.18889660420E+00  0.11784323330E+03  0.53913586079E+01  0.14320369750E+03  0.81186014267E+02 0.  0.
          5    1    5    5  501    0 -0.28765710910E+02 -0.32095082477E+02 -0.29935701049E+02  0.52685829600E+02  0.47000000000E+01 0. -1.
        -11    1    6    6    0    0 -0.11926410883E+02 -0.65789074758E+01 -0.10485180731E+02  0.17188959104E+02  0.00000000000E+00 0.  1.
         12    1    6    6    0    0  0.12115307488E+02  0.12442214077E+03  0.15876539339E+02  0.12601473839E+03  0.00000000000E+00 0. -1.
         -5    1    3    3    0  503 -0.42521637062E+02  0.20724004880E+02 -0.57984509256E+02  0.74979112494E+02  0.47000000000E+01 0.  1.
         13    1    4    4    0    0  0.45142781515E+02 -0.13142208445E+02 -0.93292965377E+02  0.10447088472E+03  0.00000000000E+00 0. -1.
        -14    1    4    4    0    0  0.25955669853E+02 -0.93329947257E+02 -0.89062417414E+02  0.13159137528E+03  0.00000000000E+00 0.  1.
</event>
<event>
12    1  0.8421768E-002  0.2315127E+03  0.7818608E-02  0.1126380E+00
         21   -1    0    0  501  502  0.00000000000E+00  0.00000000000E+00  0.18827801444E+04  0.18827801444E+04  0.00000000000E+00 0. -1.
         21   -1    0    0  502  503 -0.00000000000E+00 -0.00000000000E+00 -0.30901559210E+02  0.30901559210E+02  0.00000000000E+00 0. -1.
         -6    2    1    2    0  503 -0.10988051272E+03  0.99203518454E+02  0.62004419189E+03  0.66028068190E+03  0.17204857987E+03 0.  0.
        -24    2    3    3    0    0 -0.21743821449E+02  0.10787187250E+03  0.33854317793E+03  0.36513982134E+03  0.81280201492E+02 0.  0.
          6    2    1    2  501    0  0.10988051272E+03 -0.99203518454E+02  0.12318343932E+04  0.12534010217E+04  0.17799742576E+03 0.  0.
         24    2    5    5    0    0  0.13975078779E+03 -0.48064711481E+02  0.79246475995E+03  0.81003303052E+03  0.79451970328E+02 0.  0.
          5    1    5    5  501    0 -0.29870275068E+02 -0.51138806973E+02  0.43936963329E+03  0.44336799115E+03  0.47000000000E+01 0. -1.
        -11    1    6    6    0    0  0.34096592045E+02  0.22329166263E+02  0.18241949510E+03  0.18691720479E+03  0.00000000000E+00 0.  1.
         12    1    6    6    0    0  0.10565419574E+03 -0.70393877744E+02  0.61004526485E+03  0.62311582573E+03  0.00000000000E+00 0. -1.
         -5    1    3    3    0  503 -0.88136691268E+02 -0.86683540474E+01  0.28150101396E+03  0.29514086056E+03  0.47000000000E+01 0.  1.
         13    1    4    4    0    0 -0.37174874866E+02  0.84220156790E+02  0.31560454524E+03  0.32875710655E+03  0.00000000000E+00 0. -1.
        -14    1    4    4    0    0  0.15431053417E+02  0.23651715711E+02  0.22938632694E+02  0.36382714790E+02  0.00000000000E+00 0.  1.
</event>
<event>
12    1  0.8421768E-002  0.1773057E+03  0.7818608E-02  0.1170809E+00
         21   -1    0    0  501  502  0.00000000000E+00  0.00000000000E+00  0.19759700751E+03  0.19759700751E+03  0.00000000000E+00 0.  1.
         21   -1    0    0  502  503 -0.00000000000E+00 -0.00000000000E+00 -0.33068301502E+03  0.33068301502E+03  0.00000000000E+00 0.  1.
         -6    2    1    2    0  503 -0.49489008751E+01  0.42313449866E+02 -0.25769186169E+03  0.31279769475E+03  0.17211154116E+03 0.  0.
        -24    2    3    3    0    0 -0.50710734796E+02  0.55578376545E+02 -0.23591825100E+03  0.26020222112E+03  0.79920211211E+02 0.  0.
          6    2    1    2  501    0  0.49489008751E+01 -0.42313449866E+02  0.12460585419E+03  0.21548232778E+03  0.17056111816E+03 0.  0.
         24    2    5    5    0    0  0.45273569937E+02  0.20118674842E+01  0.12549535439E+03  0.15536832023E+03  0.79602055323E+02 0.  0.
          5    1    5    5  501    0 -0.40324669061E+02 -0.44325317351E+02 -0.88950019934E+00  0.60114007550E+02  0.47000000000E+01 0. -1.
        -13    1    6    6    0    0  0.58243509138E+02 -0.79526045270E+01  0.47215296792E+02  0.75397841657E+02  0.00000000000E+00 0.  1.
         14    1    6    6    0    0 -0.12969939201E+02  0.99644720112E+01  0.78280057596E+02  0.79970478570E+02  0.00000000000E+00 0. -1.
         -5    1    3    3    0  503  0.45761833921E+02 -0.13264926679E+02 -0.21773610692E+02  0.52595473629E+02  0.47000000000E+01 0.  1.
         11    1    4    4    0    0  0.14655282237E+02 -0.95172242464E+01 -0.40114307824E+02  0.43755143092E+02  0.00000000000E+00 0. -1.
        -12    1    4    4    0    0 -0.65366017034E+02  0.65095600791E+02 -0.19580394318E+03  0.21644707803E+03  0.00000000000E+00 0.  1.
</event>
<event>
12    1  0.8421768E-002  0.1956151E+03  0.7818608E-02  0.1153528E+00
         21   -1    0    0  503  502  0.00000000000E+00  0.00000000000E+00  0.72128024849E+03  0.72128024849E+03  0.00000000000E+00 0.  1.
         21   -1    0    0  501  503 -0.00000000000E+00 -0.00000000000E+00 -0.15722505710E+03  0.15722505710E+03  0.00000000000E+00 0.  1.
          6    2    1    2  501    0  0.60375671306E+01  0.92240288330E+02 -0.75554296424E+02  0.20969913243E+03  0.17239649482E+03 0.  0.
         24    2    3    3    0    0  0.23449970242E+02  0.89036651554E+02  0.90554473282E+01  0.12312919649E+03  0.81248824476E+02 0.  0.
         -6    2    1    2    0  502 -0.60375671306E+01 -0.92240288330E+02  0.63960948782E+03  0.66880617315E+03  0.17221114171E+03 0.  0.
        -24    2    5    5    0    0 -0.39191233852E+02 -0.83169570560E+01  0.30526307895E+03  0.32246544168E+03  0.95881641233E+02 0.  0.
          5    1    3    3  501    0 -0.17412403112E+02  0.32036367760E+01 -0.84609743752E+02  0.86569935939E+02  0.47000000000E+01 0. -1.
        -13    1    4    4    0    0  0.79814928564E+00  0.64670499392E+02 -0.30446932265E+02  0.71483747931E+02  0.00000000000E+00 0.  1.
         14    1    4    4    0    0  0.22651820957E+02  0.24366152163E+02  0.39502379593E+02  0.51645448564E+02  0.00000000000E+00 0. -1.
         -5    1    5    5    0  502  0.33153666722E+02 -0.83923331274E+02  0.33434640887E+03  0.34634073147E+03  0.47000000000E+01 0.  1.
         11    1    6    6    0    0  0.59998932723E+01 -0.38536256805E+02  0.62346817339E+02  0.73540243677E+02  0.00000000000E+00 0. -1.
        -12    1    6    6    0    0 -0.45191127125E+02  0.30219299749E+02  0.24291626161E+03  0.24892519800E+03  0.00000000000E+00 0.  1.
</event>
<event>
12    1  0.8421768E-002  0.1729978E+03  0.7818608E-02  0.1175276E+00
         21   -1    0    0  501  502  0.00000000000E+00  0.00000000000E+00  0.44071794827E+03  0.44071794827E+03  0.00000000000E+00 0. -1.
         21   -1    0    0  502  503 -0.00000000000E+00 -0.00000000000E+00 -0.79199733366E+02  0.79199733366E+02  0.00000000000E+00 0. -1.
         -6    2    1    2    0  503  0.80550995073E+01 -0.12126072364E+02  0.78317192016E+02  0.18805766745E+03  0.17035309643E+03 0.  0.
        -24    2    3    3    0    0  0.34681307124E+01 -0.73763231988E+02  0.49697419265E+02  0.11978350600E+03  0.80157423269E+02 0.  0.
          6    2    1    2  501    0 -0.80550995073E+01  0.12126072364E+02  0.28320102289E+03  0.33186001419E+03  0.17238423185E+03 0.  0.
         24    2    5    5    0    0  0.39396038306E+02  0.25086055373E+02  0.78820141495E+02  0.12159064809E+03  0.79939433252E+02 0.  0.
          5    1    5    5  501    0 -0.47451137813E+02 -0.12959983008E+02  0.20438088140E+03  0.21026936610E+03  0.47000000000E+01 0. -1.
        -13    1    6    6    0    0  0.16482929144E+01  0.31617233590E+02  0.76981768865E+02  0.83237966500E+02  0.00000000000E+00 0.  1.
         14    1    6    6    0    0  0.37747745392E+02 -0.65311782169E+01  0.18383726299E+01  0.38352681588E+02  0.00000000000E+00 0. -1.
         -5    1    3    3    0  503  0.45869687949E+01  0.61637159624E+02  0.28619772751E+02  0.68274161449E+02  0.47000000000E+01 0.  1.
         13    1    4    4    0    0  0.25380556351E+02  0.53706683488E+01  0.54500310820E+01  0.26508858104E+02  0.00000000000E+00 0. -1.
        -14    1    4    4    0    0 -0.21912425639E+02 -0.79133900337E+02  0.44247388183E+02  0.93274647900E+02  0.00000000000E+00 0.  1.
</event>
<event>
12    1  0.8421768E-002  0.2243833E+03  0.7818608E-02  0.1130673E+00
         21   -1    0    0  503  502  0.00000000000E+00  0.00000000000E+00  0.25912038062E+03  0.25912038062E+03  0.00000000000E+00 0.  1.
         21   -1    0    0  501  503 -0.00000000000E+00 -0.00000000000E+00 -0.21696086767E+03  0.21696086767E+03  0.00000000000E+00 0.  1.
          6    2    1    2  501    0  0.14341878690E+03  0.42942697990E+01 -0.55979893013E+02  0.23117467549E+03  0.17239661533E+03 0.  0.
         24    2    3    3    0    0  0.51582085508E+02  0.65545148585E+02 -0.14351721054E+02  0.11310416869E+03  0.75031346986E+02 0.  0.
         -6    2    1    2    0  502 -0.14341878690E+03 -0.42942697990E+01  0.98139405962E+02  0.24490657279E+03  0.17251231030E+03 0.  0.
        -24    2    5    5    0    0 -0.44121872834E+02  0.54665787518E+02  0.31315911662E+02  0.11140138603E+03  0.80588426577E+02 0.  0.
          5    1    3    3  501    0  0.91836701394E+02 -0.61250878786E+02 -0.41628171960E+02  0.11807050680E+03  0.47000000000E+01 0. -1.
        -11    1    4    4    0    0  0.54662691394E+02  0.78614809692E+02 -0.21141342090E+02  0.98057403997E+02  0.00000000000E+00 0.  1.
         12    1    4    4    0    0 -0.30806058858E+01 -0.13069661106E+02  0.67896210363E+01  0.15046764698E+02  0.00000000000E+00 0. -1.
         -5    1    5    5    0  502 -0.99296914068E+02 -0.58960057317E+02  0.66823494300E+02  0.13350518676E+03  0.47000000000E+01 0.  1.
         11    1    6    6    0    0  0.11807097605E+02 -0.33103052107E+01 -0.14291212553E+02  0.18830943436E+02  0.00000000000E+00 0. -1.
        -12    1    6    6    0    0 -0.55928970439E+02  0.57976092729E+02  0.45607124215E+02  0.92570442591E+02  0.00000000000E+00 0.  1.
</event>
<event>
12    1  0.8421768E-002  0.2144231E+03  0.7818608E-02  0.1138655E+00
         21   -1    0    0  501  502  0.00000000000E+00  0.00000000000E+00  0.11568183891E+04  0.11568183891E+04  0.00000000000E+00 0. -1.
         21   -1    0    0  502  503 -0.00000000000E+00 -0.00000000000E+00 -0.49279794867E+02  0.49279794867E+02  0.00000000000E+00 0. -1.
         -6    2    1    2    0  503  0.98779382060E+02 -0.79217137610E+02  0.28429277105E+03  0.35608939262E+03  0.17304494980E+03 0.  0.
        -24    2    3    3    0    0  0.12917747005E+03 -0.94708115180E+02  0.22389048619E+03  0.28655853503E+03  0.79576368022E+02 0.  0.
          6    2    1    2  501    0 -0.98779382060E+02  0.79217137610E+02  0.82324582314E+03  0.85000879131E+03  0.16955394061E+03 0.  0.
         24    2    5    5    0    0 -0.76537538475E+02 -0.12238752222E+00  0.28586374053E+03  0.30632593103E+03  0.79116926733E+02 0.  0.
          5    1    5    5  501    0 -0.22241843585E+02  0.79339525133E+02  0.53738208261E+03  0.54368286028E+03  0.47000000000E+01 0. -1.
        -13    1    6    6    0    0  0.43517288483E+00 -0.17113525409E+02  0.13527564774E+03  0.13635454888E+03  0.00000000000E+00 0.  1.
         14    1    6    6    0    0 -0.76972711360E+02  0.16991137887E+02  0.15058809279E+03  0.16997138215E+03  0.00000000000E+00 0. -1.
         -5    1    3    3    0  503 -0.30398087986E+02  0.15490977570E+02  0.60402284865E+02  0.69530857583E+02  0.47000000000E+01 0.  1.
         13    1    4    4    0    0  0.61520965614E+02 -0.90362333218E+02  0.15708077406E+03  0.19137541653E+03  0.00000000000E+00 0. -1.
        -14    1    4    4    0    0  0.67656504432E+02 -0.43457819622E+01  0.66809712129E+02  0.95183118501E+02  0.00000000000E+00 0.  1.
</event>
<event>
12    1  0.8421768E-002  0.2109904E+03  0.7818608E-02  0.1140945E+00
         21   -1    0    0  503  502  0.00000000000E+00  0.00000000000E+00  0.92393225558E+02  0.92393225558E+02  0.00000000000E+00 0.  1.
         21   -1    0    0  501  503 -0.00000000000E+00 -0.00000000000E+00 -0.55120798825E+03  0.55120798825E+03  0.00000000000E+00 0. -1.
          6    2    1    2  501    0 -0.11448247865E+03  0.38494159565E+02 -0.34549030992E+03  0.40482155210E+03  0.17299970104E+03 0.  0.
         24    2    3    3    0    0 -0.14472486735E+03  0.19885545405E+02 -0.31451213715E+03  0.35746524541E+03  0.86734048199E+02 0.  0.
         -6    2    1    2    0  502  0.11448247865E+03 -0.38494159565E+02 -0.11332445277E+03  0.23877966171E+03  0.17200365407E+03 0.  0.
        -24    2    5    5    0    0  0.79079135131E+02 -0.47103486856E+02 -0.14591005829E+03  0.18967335931E+03  0.78828865495E+02 0.  0.
          5    1    3    3  501    0  0.30242388701E+02  0.18608614160E+02 -0.30978172775E+02  0.47356306695E+02  0.47000000000E+01 0. -1.
        -11    1    4    4    0    0 -0.18865286455E+02 -0.79528201286E+01 -0.34617555272E+01  0.20763673383E+02  0.00000000000E+00 0.  1.
         12    1    4    4    0    0 -0.12585958089E+03  0.27838365533E+02 -0.31105038162E+03  0.33670157203E+03  0.00000000000E+00 0. -1.
         -5    1    5    5    0  502  0.35403343514E+02  0.86093272918E+01  0.32585605516E+02  0.49106302398E+02  0.47000000000E+01 0.  1.
         13    1    6    6    0    0  0.43820180969E+01  0.13502216567E+02 -0.56810594680E+02  0.58557284796E+02  0.00000000000E+00 0. -1.
        -14    1    6    6    0    0  0.74697117034E+02 -0.60605703423E+02 -0.89099463608E+02  0.13111607451E+03  0.00000000000E+00 0.  1.
</event>
<event>
12    1  0.8421768E-002  0.2311935E+03  0.7818608E-02  0.1125811E+00
         21   -1    0    0  503  502  0.00000000000E+00  0.00000000000E+00  0.26548016590E+03  0.26548016590E+03  0.00000000000E+00 0. -1.
         21   -1    0    0  501  503 -0.00000000000E+00 -0.00000000000E+00 -0.41370059692E+03  0.41370059692E+03  0.00000000000E+00 0.  1.
          6    2    1    2  501    0  0.48017205744E+02  0.14619920074E+03 -0.31744412858E+03  0.39271010264E+03  0.17254156485E+03 0.  0.
         24    2    3    3    0    0  0.86667642859E+02  0.14884539056E+03 -0.28172570149E+03  0.33980684524E+03  0.80206549489E+02 0.  0.
         -6    2    1    2    0  502 -0.48017205744E+02 -0.14619920074E+03  0.16922369756E+03  0.28647066018E+03  0.17247875516E+03 0.  0.
        -24    2    5    5    0    0  0.80814487261E+01 -0.88248251228E+02  0.16754200499E+03  0.20566045245E+03  0.79830035769E+02 0.  0.
          5    1    3    3  501    0 -0.38650437115E+02 -0.26461898261E+01 -0.35718427089E+02  0.52903257399E+02  0.47000000000E+01 0. -1.
        -13    1    4    4    0    0  0.89154569200E+02  0.10758179121E+03 -0.25442745076E+03  0.29026833570E+03  0.00000000000E+00 0.  1.
         14    1    4    4    0    0 -0.24869263412E+01  0.41263599358E+02 -0.27298250725E+02  0.49538509538E+02  0.00000000000E+00 0. -1.
         -5    1    5    5    0  502 -0.56098654470E+02 -0.57950949510E+02  0.16816925792E+01  0.80810207724E+02  0.47000000000E+01 0.  1.
         11    1    6    6    0    0 -0.93061808738E+01  0.95118902081E+01  0.50253715896E+02  0.51985738613E+02  0.00000000000E+00 0. -1.
        -12    1    6    6    0    0  0.17387629600E+02 -0.97760141436E+02  0.11728828909E+03  0.15367471384E+03  0.00000000000E+00 0.  1.
</event>
<event>
12    1  0.8421768E-002  0.1952767E+03  0.7818608E-02  0.1154135E+00
         21   -1    0    0  503  502  0.00000000000E+00  0.00000000000E+00  0.33086296088E+03  0.33086296088E+03  0.00000000000E+00 0.  1.
         21   -1    0    0  501  503 -0.00000000000E+00 -0.00000000000E+00 -0.20262493203E+03  0.20262493203E+03  0.00000000000E+00 0.  1.
          6    2    1    2  501    0 -0.81040139227E+02 -0.39024682494E+02 -0.11183179593E+03  0.22503190460E+03  0.17332794783E+03 0.  0.
         24    2    3    3    0    0 -0.90294169255E+02 -0.22498633098E+02 -0.14115623294E+03  0.18980748145E+03  0.86270344975E+02 0.  0.
         -6    2    1    2    0  502  0.81040139227E+02  0.39024682494E+02  0.24006982478E+03  0.30845598831E+03  0.17152593374E+03 0.  0.
        -24    2    5    5    0    0  0.81226095006E+02 -0.13544561878E+02  0.80267897935E+02  0.14016366568E+03  0.80136034785E+02 0.  0.
          5    1    3    3  501    0  0.92540300278E+01 -0.16526049396E+02  0.29324437013E+02  0.35224423153E+02  0.47000000000E+01 0. -1.
        -13    1    4    4    0    0 -0.39602557599E+02  0.37696485320E+01 -0.25037834284E+01  0.39860277845E+02  0.00000000000E+00 0.  1.
         14    1    4    4    0    0 -0.50691611657E+02 -0.26268281630E+02 -0.13865244951E+03  0.14994720360E+03  0.00000000000E+00 0. -1.
         -5    1    5    5    0  502 -0.18595577871E+00  0.52569244372E+02  0.15980192685E+03  0.16829232263E+03  0.47000000000E+01 0.  1.
         13    1    6    6    0    0  0.27470895130E+02 -0.42578377511E+02  0.20393405811E+02  0.54621051906E+02  0.00000000000E+00 0. -1.
        -14    1    6    6    0    0  0.53755199876E+02  0.29033815633E+02  0.59874492124E+02  0.85542613772E+02  0.00000000000E+00 0.  1.
</event>
<event>
12    1  0.8421768E-002  0.2060129E+03  0.7818608E-02  0.1145338E+00
         21   -1    0    0  503  502  0.00000000000E+00  0.00000000000E+00  0.32890383708E+03  0.32890383708E+03  0.00000000000E+00 0.  1.
         21   -1    0    0  501  503 -0.00000000000E+00 -0.00000000000E+00 -0.89016538136E+03  0.89016538136E+03  0.00000000000E+00 0.  1.
          6    2    1    2  501    0 -0.85037121424E+01 -0.11244552426E+03 -0.84462951906E+03  0.86872837035E+03  0.16903741577E+03 0.  0.
         24    2    3    3    0    0  0.23505368792E+02 -0.13680580283E+03 -0.61768792068E+03  0.63820161808E+03  0.80589130279E+02 0.  0.
         -6    2    1    2    0  502  0.85037121424E+01  0.11244552426E+03  0.28336797478E+03  0.35034084810E+03  0.17240937233E+03 0.  0.
        -24    2    5    5    0    0  0.20734265784E+02  0.48757197697E+02  0.26593078229E+03  0.28302119966E+03  0.81084180852E+02 0.  0.
          5    1    3    3  501    0 -0.32009080935E+02  0.24360278567E+02 -0.22694159838E+03  0.23052675227E+03  0.47000000000E+01 0. -1.
        -13    1    4    4    0    0  0.29551579049E+02 -0.11700260268E+03 -0.59646934644E+03  0.60855450545E+03  0.00000000000E+00 0.  1.
         14    1    4    4    0    0 -0.60462102566E+01 -0.19803200153E+02 -0.21218574236E+02  0.29647112632E+02  0.00000000000E+00 0. -1.
         -5    1    5    5    0  502 -0.12230553642E+02  0.63688326565E+02  0.17437192489E+02  0.67319648432E+02  0.47000000000E+01 0.  1.
         11    1    6    6    0    0 -0.26589704258E+01 -0.13166953718E+02  0.58547982037E+01  0.14653240459E+02  0.00000000000E+00 0. -1.
        -12    1    6    6    0    0  0.23393236210E+02  0.61924151415E+02  0.26007598409E+03  0.26836795920E+03  0.00000000000E+00 0.  1.
</event>
<event>
12    1  0.8421768E-002  0.1847232E+03  0.7818608E-02  0.1163510E+00
         21   -1    0    0  503  502  0.00000000000E+00  0.00000000000E+00  0.12769193449E+03  0.12769193449E+03  0.00000000000E+00 0. -1.
         21   -1    0    0  501  503 -0.00000000000E+00 -0.00000000000E+00 -0.31850180470E+03  0.31850180470E+03  0.00000000000E+00 0. -1.
          6    2    1    2  501    0 -0.31266830851E+02 -0.58965662342E+02 -0.18617933688E+03  0.26226975353E+03  0.17224434415E+03 0.  0.
         24    2    3    3    0    0 -0.31541337748E+02 -0.41683411609E+02 -0.39896198964E+02  0.11489405003E+03  0.94215567983E+02 0.  0.
         -6    2    1    2    0  502  0.31266830851E+02  0.58965662342E+02 -0.46305333224E+01  0.18392398566E+03  0.17132433165E+03 0.  0.
        -24    2    5    5    0    0  0.55034477698E+02  0.56481622291E+02 -0.57544488373E+02  0.12567410900E+03  0.79143200205E+02 0.  0.
          5    1    3    3  501    0  0.27450689777E+00 -0.17282250733E+02 -0.14628313791E+03  0.14737570350E+03  0.47000000000E+01 0. -1.
        -11    1    4    4    0    0 -0.55299156309E+02  0.47734092232E+01 -0.22491651725E+02  0.59888701116E+02  0.00000000000E+00 0.  1.
         12    1    4    4    0    0  0.23757818560E+02 -0.46456820832E+02 -0.17404547239E+02  0.55005348914E+02  0.00000000000E+00 0. -1.
         -5    1    5    5    0  502 -0.23767646847E+02  0.24840400509E+01  0.52913955051E+02  0.58249876658E+02  0.47000000000E+01 0.  1.
         11    1    6    6    0    0 -0.88652127598E+01  0.20164984866E+02  0.11484913186E+02  0.24841937179E+02  0.00000000000E+00 0. -1.
        -12    1    6    6    0    0  0.63899690458E+02  0.36316637425E+02 -0.69029401559E+02  0.10083217182E+03  0.00000000000E+00 0.  1.
</event>
<event>
12    1  0.8421768E-002  0.1964794E+03  0.7818608E-02  0.1153359E+00
         21   -1    0    0  501  502  0.00000000000E+00  0.00000000000E+00  0.38406009528E+03  0.38406009528E+03  0.00000000000E+00 0. -1.
         21   -1    0    0  502  503 -0.00000000000E+00 -0.00000000000E+00 -0.99769317412E+02  0.99769317412E+02  0.00000000000E+00 0.  1.
         -6    2    1    2    0  503 -0.15650805609E+02 -0.92838503683E+02  0.16336287244E+03  0.25552214369E+03  0.17245347878E+03 0.  0.
        -24    2    3    3    0    0 -0.20716023731E+02 -0.43732462086E+02  0.95207514809E+01  0.93885056556E+02  0.79887904319E+02 0.  0.
          6    2    1    2  501    0  0.15650805609E+02  0.92838503683E+02  0.12092790543E+03  0.22830726900E+03  0.16922386145E+03 0.  0.
         24    2    5    5    0    0  0.23972486736E+02  0.94093997860E+01  0.14939916578E+01  0.82306530948E+02  0.78159555404E+02 0.  0.
          5    1    5    5  501    0 -0.83216811271E+01  0.83429103897E+02  0.11943391377E+03  0.14600073805E+03  0.47000000000E+01 0. -1.
        -11    1    6    6    0    0  0.11277632928E+02  0.35772470789E+02 -0.23127677394E+02  0.44065225887E+02  0.00000000000E+00 0.  1.
         12    1    6    6    0    0  0.12694853808E+02 -0.26363071003E+02  0.24621669052E+02  0.38241305061E+02  0.00000000000E+00 0. -1.
         -5    1    3    3    0  503  0.50652181224E+01 -0.49106041597E+02  0.15384212096E+03  0.16163708714E+03  0.47000000000E+01 0.  1.
         13    1    4    4    0    0  0.28042102263E+01 -0.39549196514E+02  0.39220593514E+02  0.55769682584E+02  0.00000000000E+00 0. -1.
        -14    1    4    4    0    0 -0.23520233958E+02 -0.41832655722E+01 -0.29699842033E+02  0.38115373973E+02  0.00000000000E+00 0.  1.
</event>
<event>
12    1  0.8421768E-002  0.2462995E+03  0.7818608E-02  0.1115666E+00
         21   -1    0    0  501  502  0.00000000000E+00  0.00000000000E+00  0.14640156855E+04  0.14640156855E+04  0.00000000000E+00 0. -1.
         21   -1    0    0  502  503 -0.00000000000E+00 -0.00000000000E+00 -0.41698805986E+02  0.41698805986E+02  0.00000000000E+00 0.  1.
         -6    2    1    2    0  503  0.59230366303E+02  0.16635918624E+03  0.77091931729E+03  0.80930783381E+03  0.17169438244E+03 0.  0.
        -24    2    3    3    0    0  0.21255509050E+01  0.14408160832E+02  0.31696794940E+03  0.32718335977E+03  0.79800732431E+02 0.  0.
          6    2    1    2  501    0 -0.59230366303E+02 -0.16635918624E+03  0.65139756226E+03  0.69640665771E+03  0.17169692380E+03 0.  0.
         24    2    5    5    0    0  0.65888362702E+01 -0.13755382838E+03  0.32142304005E+03  0.35866831020E+03  0.79785447312E+02 0.  0.
          5    1    5    5  501    0 -0.65819202574E+02 -0.28805357865E+02  0.32997452221E+03  0.33773834750E+03  0.47000000000E+01 0. -1.
        -13    1    6    6    0    0 -0.31462269558E+02 -0.88939767310E+02  0.15863963811E+03  0.18457164299E+03  0.00000000000E+00 0.  1.
         14    1    6    6    0    0  0.38051105829E+02 -0.48614061067E+02  0.16278340194E+03  0.17409666721E+03  0.00000000000E+00 0. -1.
         -5    1    3    3    0  503  0.57104815398E+02  0.15195102541E+03  0.45395136788E+03  0.48212447404E+03  0.47000000000E+01 0.  1.
         13    1    4    4    0    0  0.38288926682E+02  0.70070574799E+01  0.10411462789E+03  0.11115303191E+03  0.00000000000E+00 0. -1.
        -14    1    4    4    0    0 -0.36163375777E+02  0.74011033518E+01  0.21285332151E+03  0.21603032786E+03  0.00000000000E+00 0.  1.
</event>
<event>
12    1  0.8421768E-002  0.1788526E+03  0.7818608E-02  0.1168933E+00
         21   -1    0    0  503  502  0.00000000000E+00  0.00000000000E+00  0.25726647222E+03  0.25726647222E+03  0.00000000000E+00 0. -1.
         21   -1    0    0  501  503 -0.00000000000E+00 -0.00000000000E+00 -0.18188251654E+03  0.18188251654E+03  0.00000000000E+00 0. -1.
          6    2    1    2  501    0 -0.18702322435E+02  0.45038740567E+02 -0.85854333198E+02  0.19839157570E+03  0.17207552343E+03 0.  0.
         24    2    3    3    0    0 -0.76787176942E+02  0.11834943252E+02 -0.49490307960E+02  0.12209757324E+03  0.80138569900E+02 0.  0.
         -6    2    1    2    0  502  0.18702322435E+02 -0.45038740567E+02  0.16123828888E+03  0.24075741307E+03  0.17201186334E+03 0.  0.
        -24    2    5    5    0    0  0.10208799288E+01  0.39689441977E+02  0.97774001522E+02  0.13332695139E+03  0.81486358325E+02 0.  0.
          5    1    3    3  501    0  0.58084854506E+02  0.33203797315E+02 -0.36364025238E+02  0.76294002456E+02  0.47000000000E+01 0. -1.
        -13    1    4    4    0    0 -0.82472763778E+02 -0.12164237694E+02 -0.50402332175E+02  0.97417249666E+02  0.00000000000E+00 0.  1.
         14    1    4    4    0    0  0.56855868363E+01  0.23999180946E+02  0.91202421544E+00  0.24680323578E+02  0.00000000000E+00 0. -1.
         -5    1    5    5    0  502  0.17681442506E+02 -0.84728182545E+02  0.63464287357E+02  0.10743046168E+03  0.47000000000E+01 0.  1.
         11    1    6    6    0    0 -0.12290024815E+01 -0.25041283967E+02  0.35623969864E+02  0.43561951043E+02  0.00000000000E+00 0. -1.
        -12    1    6    6    0    0  0.22498824103E+01  0.64730725945E+02  0.62150031658E+02  0.89765000347E+02  0.00000000000E+00 0.  1.
</event>
<event>
12    1  0.8421768E-002  0.1943632E+03  0.7818608E-02  0.1154683E+00
         21   -1    0    0  503  502  0.00000000000E+00  0.00000000000E+00  0.26321302365E+03  0.26321302365E+03  0.00000000000E+00 0. -1.
         21   -1    0    0  501  503 -0.00000000000E+00 -0.00000000000E+00 -0.37272141311E+03  0.37272141311E+03  0.00000000000E+00 0. -1.
          6    2    1    2  501    0  0.47660666703E+02  0.75506336820E+02 -0.30430252674E+03  0.36107764943E+03  0.17263920497E+03 0.  0.
         24    2    3    3    0    0 -0.21221069149E+02 -0.93691275477E+01 -0.10810785635E+03  0.13643798981E+03  0.79936863418E+02 0.  0.
         -6    2    1    2    0  502 -0.47660666703E+02 -0.75506336820E+02  0.19479413728E+03  0.27485678732E+03  0.17213004260E+03 0.  0.
        -24    2    5    5    0    0  0.31091558724E+02 -0.69344657531E+02  0.13362331495E+03  0.17483759513E+03  0.83292423555E+02 0.  0.
          5    1    3    3  501    0  0.68881735851E+02  0.84875464367E+02 -0.19619467039E+03  0.22463965962E+03  0.47000000000E+01 0. -1.
        -13    1    4    4    0    0 -0.61681362121E+01 -0.22219311057E+02 -0.11358511358E+03  0.11590220755E+03  0.00000000000E+00 0.  1.
         14    1    4    4    0    0 -0.15052932937E+02  0.12850183509E+02  0.54772572339E+01  0.20535782260E+02  0.00000000000E+00 0. -1.
         -5    1    5    5    0  502 -0.78752225427E+02 -0.61616792887E+01  0.61170822330E+02  0.10001919219E+03  0.47000000000E+01 0.  1.
         11    1    6    6    0    0 -0.17268510760E+02 -0.50077381837E+02  0.99113664050E+02  0.11238088822E+03  0.00000000000E+00 0. -1.
        -12    1    6    6    0    0  0.48360069484E+02 -0.19267275694E+02  0.34509650897E+02  0.62456706911E+02  0.00000000000E+00 0.  1.
</event>
<event>
12    1  0.8421768E-002  0.1730161E+03  0.7818608E-02  0.1174983E+00
         21   -1    0    0  501  502  0.00000000000E+00  0.00000000000E+00  0.18316605239E+03  0.18316605239E+03  0.00000000000E+00 0.  1.
         21   -1    0    0  502  503 -0.00000000000E+00 -0.00000000000E+00 -0.21250807445E+03  0.21250807445E+03  0.00000000000E+00 0.  1.
         -6    2    1    2    0  503 -0.84666425314E+01 -0.19265325633E+02 -0.11058434169E+03  0.20453309663E+03  0.17076900826E+03 0.  0.
        -24    2    3    3    0    0  0.51614616129E+02  0.94233226234E+01 -0.28980646764E+02  0.99109905601E+02  0.78930525742E+02 0.  0.
          6    2    1    2  501    0  0.84666425314E+01  0.19265325633E+02  0.81242319624E+02  0.19114103021E+03  0.17173159909E+03 0.  0.
         24    2    5    5    0    0 -0.56520977885E+02  0.14505320942E+02  0.77380487583E+02  0.12569599833E+03  0.80041981858E+02 0.  0.
          5    1    5    5  501    0  0.64987620417E+02  0.47600046911E+01  0.38618320414E+01  0.65445031888E+02  0.47000000000E+01 0. -1.
        -13    1    6    6    0    0 -0.35854065872E+02  0.47855568598E+02  0.45404854388E+02  0.75081757354E+02  0.00000000000E+00 0.  1.
         14    1    6    6    0    0 -0.20666912013E+02 -0.33350247656E+02  0.31975633195E+02  0.50614240971E+02  0.00000000000E+00 0. -1.
         -5    1    3    3    0  503 -0.60081258660E+02 -0.28688648257E+02 -0.81603694923E+02  0.10542319103E+03  0.47000000000E+01 0.  1.
         11    1    4    4    0    0  0.22912352134E+02  0.13222644875E+02  0.25924279627E+02  0.37038932112E+02  0.00000000000E+00 0. -1.
        -12    1    4    4    0    0  0.28702263995E+02 -0.37993222511E+01 -0.54904926390E+02  0.62070973489E+02  0.00000000000E+00 0.  1.
</event>
<event>
12    1  0.8421768E-002  0.2089071E+03  0.7818608E-02  0.1142695E+00
         21   -1    0    0  501  502  0.00000000000E+00  0.00000000000E+00  0.20869138599E+03  0.20869138599E+03  0.00000000000E+00 0.  1.
         21   -1    0    0  502  503 -0.00000000000E+00 -0.00000000000E+00 -0.21263500808E+03  0.21263500808E+03  0.00000000000E+00 0.  1.
         -6    2    1    2    0  503 -0.22644495377E+02 -0.11729297209E+03  0.29712869228E+02  0.21100955202E+03  0.17138191846E+03 0.  0.
        -24    2    3    3    0    0 -0.16244265260E+02 -0.38260301425E+02  0.77294277517E+02  0.11841794121E+03  0.79502683257E+02 0.  0.
          6    2    1    2  501    0  0.22644495377E+02  0.11729297209E+03 -0.33656491323E+02  0.21031684205E+03  0.16979399332E+03 0.  0.
         24    2    5    5    0    0  0.71393528898E+02  0.37773493464E+02 -0.22442944818E+02  0.11625489770E+03  0.80545904237E+02 0.  0.
          5    1    5    5  501    0 -0.48749033521E+02  0.79519478624E+02 -0.11213546505E+02  0.94061944351E+02  0.47000000000E+01 0. -1.
        -13    1    6    6    0    0  0.30757885588E+02 -0.10012369907E+02 -0.39688097312E+02  0.51200001418E+02  0.00000000000E+00 0.  1.
         14    1    6    6    0    0  0.40635643310E+02  0.47785863370E+02  0.17245152493E+02  0.65054896278E+02  0.00000000000E+00 0. -1.
         -5    1    3    3    0  503 -0.64002301169E+01 -0.79032670663E+02 -0.47581408288E+02  0.92591610810E+02  0.47000000000E+01 0.  1.
         11    1    4    4    0    0  0.10201415687E+02  0.11414108217E+02  0.56315939480E+02  0.58359538963E+02  0.00000000000E+00 0. -1.
        -12    1    4    4    0    0 -0.26445680947E+02 -0.49674409641E+02  0.20978338037E+02  0.60058402249E+02  0.00000000000E+00 0.  1.
</event>
<event>
12    1  0.8421768E-002  0.2149964E+03  0.7818608E-02  0.1137859E+00
         21   -1    0    0  501  502  0.00000000000E+00  0.00000000000E+00  0.22369531770E+03  0.22369531770E+03  0.00000000000E+00 0.  1.
         21   -1    0    0  502  503 -0.00000000000E+00 -0.00000000000E+00 -0.21177788137E+03  0.21177788137E+03  0.00000000000E+00 0.  1.
         -6    2    1    2    0  503  0.18966250542E+02  0.12814993849E+03 -0.30940775268E+02  0.21721141550E+03  0.17158479552E+03 0.  0.
        -24    2    3    3    0    0  0.76200395466E+02  0.66989195976E+02 -0.56183966736E+01  0.12957753719E+03  0.80403477011E+02 0.  0.
          6    2    1    2  501    0 -0.18966250542E+02 -0.12814993849E+03  0.42858211598E+02  0.21826178358E+03  0.17035038737E+03 0.  0.
         24    2    5    5    0    0 -0.45179541699E+02 -0.15148644191E+03  0.40649055218E+02  0.18278362978E+03  0.82268928255E+02 0.  0.
          5    1    5    5  501    0  0.26213291157E+02  0.23336503417E+02  0.22091563799E+01  0.35478153799E+02  0.47000000000E+01 0. -1.
        -11    1    6    6    0    0  0.14908051882E+02 -0.16154208931E+02 -0.12708527689E+02  0.25391241661E+02  0.00000000000E+00 0.  1.
         12    1    6    6    0    0 -0.60087593581E+02 -0.13533223298E+03  0.53357582906E+02  0.15739238812E+03  0.00000000000E+00 0. -1.
         -5    1    3    3    0  503 -0.57234144924E+02  0.61160742513E+02 -0.25322378594E+02  0.87633878310E+02  0.47000000000E+01 0.  1.
         13    1    4    4    0    0  0.22504142178E+02  0.26536351324E+02  0.36354793864E+02  0.50321818267E+02  0.00000000000E+00 0. -1.
        -14    1    4    4    0    0  0.53696253288E+02  0.40452844652E+02 -0.41973190538E+02  0.79255718920E+02  0.00000000000E+00 0.  1.
</event>
<event>
12    1  0.8421768E-002  0.3543828E+03  0.7818608E-02  0.1060872E+00
         21   -1    0    0  501  502  0.00000000000E+00  0.00000000000E+00  0.27052194411E+03  0.27052194411E+03  0.00000000000E+00 0.  1.
         21   -1    0    0  502  503 -0.00000000000E+00 -0.00000000000E+00 -0.46372428563E+03  0.46372428563E+03  0.00000000000E+00 0. -1.
         -6    2    1    2    0  503 -0.27967264823E+03  0.13392931507E+03 -0.99053346309E+02  0.36796570941E+03  0.17156149417E+03 0.  0.
        -24    2    3    3    0    0 -0.82962810496E+02  0.66403389707E+02 -0.95993468545E+02  0.15991291873E+03  0.71169919787E+02 0.  0.
          6    2    1    2  501    0  0.27967264823E+03 -0.13392931507E+03 -0.94148995206E+02  0.36628052033E+03  0.17071477579E+03 0.  0.
         24    2    5    5    0    0  0.55935980374E+02 -0.80946787646E+01 -0.23402674882E+02  0.99973208987E+02  0.79073381101E+02 0.  0.
          5    1    5    5  501    0  0.22373666786E+03 -0.12583463630E+03 -0.70746320324E+02  0.26630731135E+03  0.47000000000E+01 0. -1.
        -13    1    6    6    0    0 -0.68460047372E+01  0.15307908392E+01  0.21220135294E+02  0.22349613942E+02  0.00000000000E+00 0.  1.
         14    1    6    6    0    0  0.62781985111E+02 -0.96254696038E+01 -0.44622810176E+02  0.77623595045E+02  0.00000000000E+00 0. -1.
         -5    1    3    3    0  503 -0.19670983774E+03  0.67525925361E+02 -0.30598777639E+01  0.20805279068E+03  0.47000000000E+01 0.  1.
         13    1    4    4    0    0  0.65399732383E+01  0.28493093188E+02 -0.32992024348E+02  0.44080622499E+02  0.00000000000E+00 0. -1.
        -14    1    4    4    0    0 -0.89502783735E+02  0.37910296519E+02 -0.63001444197E+02  0.11583229623E+03  0.00000000000E+00 0.  1.
</event>
<event>
12    1  0.8421768E-002  0.1900587E+03  0.7818608E-02  0.1158947E+00
         21   -1    0    0  503  502  0.00000000000E+00  0.00000000000E+00  0.15845761451E+03  0.15845761451E+03  0.00000000000E+00 0. -1.
         21   -1    0    0  501  503 -0.00000000000E+00 -0.00000000000E+00 -0.44053705618E+03  0.44053705618E+03  0.00000000000E+00 0. -1.
          6    2    1    2  501    0 -0.76281097680E+02 -0.29676471772E+02 -0.35091843893E+03  0.39908152761E+03  0.17153080208E+03 0.  0.
         24    2    3    3    0    0  0.26945702487E+00  0.69073468072E+01 -0.70546670002E+02  0.10611603132E+03  0.78968319013E+02 0.  0.
         -6    2    1    2    0  502  0.76281097680E+02  0.29676471772E+02  0.68838997265E+02  0.19991314308E+03  0.16889925515E+03 0.  0.
        -24    2    5    5    0    0  0.65839318150E+02  0.67343924374E+00  0.10925763417E+03  0.14886451073E+03  0.76734233529E+02 0.  0.
          5    1    3    3  501    0 -0.76550554705E+02 -0.36583818580E+02 -0.28037176892E+03  0.29296549629E+03  0.47000000000E+01 0. -1.
        -13    1    4    4    0    0 -0.12265844959E+02 -0.29771968249E+02 -0.56225365752E+02  0.64792845283E+02  0.00000000000E+00 0.  1.
         14    1    4    4    0    0  0.12535301984E+02  0.36679315056E+02 -0.14321304250E+02  0.41323186037E+02  0.00000000000E+00 0. -1.
         -5    1    5    5    0  502  0.10441779530E+02  0.29003032529E+02 -0.40418636905E+02  0.51048632350E+02  0.47000000000E+01 0.  1.
         13    1    6    6    0    0  0.19558899265E+02  0.33176214093E+02  0.20520939616E+02  0.43638522944E+02  0.00000000000E+00 0. -1.
        -14    1    6    6    0    0  0.46280418885E+02 -0.32502774849E+02  0.88736694553E+02  0.10522598778E+03  0.00000000000E+00 0.  1.
</event>
<event>
12    1  0.8421768E-002  0.3041870E+03  0.7818608E-02  0.1083228E+00
         21   -1    0    0  501  502  0.00000000000E+00  0.00000000000E+00  0.75389552592E+03  0.75389552592E+03  0.00000000000E+00 0.  1.
         21   -1    0    0  502  503 -0.00000000000E+00 -0.00000000000E+00 -0.68445479764E+03  0.68445479764E+03  0.00000000000E+00 0. -1.
         -6    2    1    2    0  503  0.23399241110E+03  0.92674916666E+02 -0.61690343825E+03  0.68782233550E+03  0.17084678649E+03 0.  0.
        -24    2    3    3    0    0  0.19243951260E+03  0.56145927981E+02 -0.58650272151E+03  0.62451906571E+03  0.76506796108E+02 0.  0.
          6    2    1    2  501    0 -0.23399241110E+03 -0.92674916666E+02  0.68634416654E+03  0.75052798806E+03  0.16994957280E+03 0.  0.
         24    2    5    5    0    0 -0.24582844719E+03 -0.76422333423E+02  0.54794041908E+03  0.61059255466E+03  0.79451661058E+02 0.  0.
          5    1    5    5  501    0  0.11836036096E+02 -0.16252583242E+02  0.13840374745E+03  0.13993543340E+03  0.47000000000E+01 0. -1.
        -11    1    6    6    0    0 -0.13330511732E+03 -0.28893615220E+02  0.37358449105E+03  0.39770650894E+03  0.00000000000E+00 0.  1.
         12    1    6    6    0    0 -0.11252332987E+03 -0.47528718203E+02  0.17435592804E+03  0.21288604572E+03  0.00000000000E+00 0. -1.
         -5    1    3    3    0  503  0.41552898501E+02  0.36528988685E+02 -0.30400716739E+02  0.63303269792E+02  0.47000000000E+01 0.  1.
         13    1    4    4    0    0  0.83762483209E+02  0.38139330747E+02 -0.16579010459E+03  0.18962362965E+03  0.00000000000E+00 0. -1.
        -14    1    4    4    0    0  0.10867702939E+03  0.18006597234E+02 -0.42071261693E+03  0.43489543605E+03  0.00000000000E+00 0.  1.
</event>
<event>
12    1  0.8421768E-002  0.2855734E+03  0.7818608E-02  0.1092782E+00
         21   -1    0    0  503  502  0.00000000000E+00  0.00000000000E+00  0.36251990969E+03  0.36251990969E+03  0.00000000000E+00 0.  1.
         21   -1    0    0  501  503 -0.00000000000E+00 -0.00000000000E+00 -0.22577122978E+03  0.22577122978E+03  0.00000000000E+00 0.  1.
          6    2    1    2  501    0 -0.14270164652E+03 -0.17659428294E+03  0.45137797501E+02  0.28838324901E+03  0.17198307143E+03 0.  0.
         24    2    3    3    0    0 -0.14901233298E+03 -0.79100048281E+02  0.35030689537E+02  0.19005118818E+03  0.80192343153E+02 0.  0.
         -6    2    1    2    0  502  0.14270164652E+03  0.17659428294E+03  0.91610882406E+02  0.29990789046E+03  0.17321341835E+03 0.  0.
        -24    2    5    5    0    0  0.14321318908E+03  0.19600243719E+03  0.10434482249E+03  0.27621862375E+03  0.80510329887E+02 0.  0.
          5    1    3    3  501    0  0.63106864624E+01 -0.97494234660E+02  0.10107107964E+02  0.98332060830E+02  0.47000000000E+01 0. -1.
        -11    1    4    4    0    0 -0.73517192303E+02 -0.74492286895E+02 -0.44025029483E+01  0.10475333123E+03  0.00000000000E+00 0.  1.
         12    1    4    4    0    0 -0.75495140682E+02 -0.46077613860E+01  0.39433192485E+02  0.85297856956E+02  0.00000000000E+00 0. -1.
         -5    1    5    5    0  502 -0.51154255948E+00 -0.19408154245E+02 -0.12733940086E+02  0.23689266706E+02  0.47000000000E+01 0.  1.
         11    1    6    6    0    0  0.43438018807E+01  0.46618980842E+00 -0.97105175653E+01  0.10648009161E+02  0.00000000000E+00 0. -1.
        -12    1    6    6    0    0  0.13886938720E+03  0.19553624738E+03  0.11405534006E+03  0.26557061459E+03  0.00000000000E+00 0.  1.
</event>
<event>
12    1  0.8421768E-002  0.2888027E+03  0.7818608E-02  0.1091002E+00
         21   -1    0    0  503  502  0.00000000000E+00  0.00000000000E+00  0.60998019140E+02  0.60998019140E+02  0.00000000000E+00 0. -1.
         21   -1    0    0  501  503 -0.00000000000E+00 -0.00000000000E+00 -0.14990433663E+04  0.14990433663E+04  0.00000000000E+00 0.  1.
          6    2    1    2  501    0 -0.22648554854E+03  0.49628789329E+02 -0.48681369044E+03  0.56593442718E+03  0.17185891376E+03 0.  0.
         24    2    3    3    0    0 -0.23163392356E+03  0.77514899883E+02 -0.41306178678E+03  0.48677904694E+03  0.81675985413E+02 0.  0.
         -6    2    1    2    0  502  0.22648554854E+03 -0.49628789329E+02 -0.95123165674E+03  0.99410695828E+03  0.17218669894E+03 0.  0.
        -24    2    5    5    0    0  0.72920201070E+02 -0.29361636492E+02 -0.59931766550E+03  0.60958307001E+03  0.78932842531E+02 0.  0.
          5    1    3    3  501    0  0.51483750237E+01 -0.27886110554E+02 -0.73751903664E+02  0.79155380242E+02  0.47000000000E+01 0. -1.
        -13    1    4    4    0    0 -0.12009559856E+02 -0.79458564837E+01 -0.64074501871E+02  0.65672733712E+02  0.00000000000E+00 0.  1.
         14    1    4    4    0    0 -0.21962436371E+03  0.85460756367E+02 -0.34898728491E+03  0.42110631323E+03  0.00000000000E+00 0. -1.
         -5    1    5    5    0  502  0.15356534747E+03 -0.20267152836E+02 -0.35191399124E+03  0.38452388828E+03  0.47000000000E+01 0.  1.
         13    1    6    6    0    0  0.32211854559E+02  0.18192204497E+02 -0.37098998760E+03  0.37282989524E+03  0.00000000000E+00 0. -1.
        -14    1    6    6    0    0  0.40708346511E+02 -0.47553840989E+02 -0.22832767790E+03  0.23675317477E+03  0.00000000000E+00 0.  1.
</event>
<event>
12    1  0.8421768E-002  0.1848138E+03  0.7818608E-02  0.1163357E+00
         21   -1    0    0  501  502  0.00000000000E+00  0.00000000000E+00  0.69655877677E+03  0.69655877677E+03  0.00000000000E+00 0. -1.
         21   -1    0    0  502  503 -0.00000000000E+00 -0.00000000000E+00 -0.51757760929E+02  0.51757760929E+02  0.00000000000E+00 0. -1.
         -6    2    1    2    0  503  0.28410754543E+02  0.61545411008E+02  0.23471949788E+03  0.29874632769E+03  0.17193346688E+03 0.  0.
        -24    2    3    3    0    0  0.46721331180E+02  0.79868193607E+02  0.23686763683E+03  0.27233220117E+03  0.97451214865E+02 0.  0.
          6    2    1    2  501    0 -0.28410754543E+02 -0.61545411008E+02  0.41008151796E+03  0.44957021001E+03  0.17132283491E+03 0.  0.
         24    2    5    5    0    0 -0.66041484062E+02 -0.27542720273E+02  0.14894985264E+03  0.18351741184E+03  0.79827957437E+02 0.  0.
          5    1    5    5  501    0  0.37630729519E+02 -0.34002690736E+02  0.26113166532E+03  0.26605279817E+03  0.47000000000E+01 0. -1.
        -13    1    6    6    0    0  0.13634841035E+02 -0.23420997249E+02  0.31817214119E+02  0.41794582382E+02  0.00000000000E+00 0.  1.
         14    1    6    6    0    0 -0.79676325098E+02 -0.41217230239E+01  0.11713263852E+03  0.14172282946E+03  0.00000000000E+00 0. -1.
         -5    1    3    3    0  503 -0.18310576637E+02 -0.18322782599E+02 -0.21481389506E+01  0.26414126521E+02  0.47000000000E+01 0.  1.
         13    1    4    4    0    0 -0.15892918714E+02  0.53802568120E+02  0.16137139141E+03  0.17084503846E+03  0.00000000000E+00 0. -1.
        -14    1    4    4    0    0  0.62614249894E+02  0.26065625487E+02  0.75496245424E+02  0.10148716271E+03  0.00000000000E+00 0.  1.
</event>
<event>
12    1  0.8421768E-002  0.1765648E+03  0.7818608E-02  0.1171203E+00
         21   -1    0    0  501  502  0.00000000000E+00  0.00000000000E+00  0.26902871595E+03  0.26902871595E+03  0.00000000000E+00 0. -1.
         21   -1    0    0  502  503 -0.00000000000E+00 -0.00000000000E+00 -0.11792390715E+03  0.11792390715E+03  0.00000000000E+00 0. -1.
         -6    2    1    2    0  503  0.33067146930E+02  0.24107704947E+02  0.10154381123E+03  0.20356389650E+03  0.17161729725E+03 0.  0.
        -24    2    3    3    0    0  0.61662830402E+02 -0.14912437088E+02  0.94210416917E+02  0.15440951450E+03  0.10460406340E+03 0.  0.
          6    2    1    2  501    0 -0.33067146930E+02 -0.24107704947E+02  0.49560997577E+02  0.18338872660E+03  0.17175713935E+03 0.  0.
         24    2    5    5    0    0 -0.56703568844E+02 -0.43231394687E+02  0.86258799911E+02  0.13550120582E+03  0.76392067722E+02 0.  0.
          5    1    5    5  501    0  0.23636421914E+02  0.19123689740E+02 -0.36697802334E+02  0.47887520778E+02  0.47000000000E+01 0. -1.
        -13    1    6    6    0    0 -0.30787463431E+02  0.19348757733E+02  0.24568550269E+02  0.43884575794E+02  0.00000000000E+00 0.  1.
         14    1    6    6    0    0 -0.25916105413E+02 -0.62580152420E+02  0.61690249642E+02  0.91616630027E+02  0.00000000000E+00 0. -1.
         -5    1    3    3    0  503 -0.28595683472E+02  0.39020142035E+02  0.73333943136E+01  0.49154382000E+02  0.47000000000E+01 0.  1.
         13    1    4    4    0    0 -0.16680306911E+02  0.15701088659E+02  0.58878962906E+02  0.63178232776E+02  0.00000000000E+00 0. -1.
        -14    1    4    4    0    0  0.78343137313E+02 -0.30613525747E+02  0.35331454011E+02  0.91231281725E+02  0.00000000000E+00 0.  1.
</event>
<event>
12    1  0.8421768E-002  0.1813637E+03  0.7818608E-02  0.1166936E+00
         21   -1    0    0  503  502  0.00000000000E+00  0.00000000000E+00  0.31343596401E+03  0.31343596401E+03  0.00000000000E+00 0. -1.
         21   -1    0    0  501  503 -0.00000000000E+00 -0.00000000000E+00 -0.10411545662E+03  0.10411545662E+03  0.00000000000E+00 0. -1.
          6    2    1    2  501    0  0.44254005630E+02 -0.25842344908E+02  0.94047886642E+02  0.20265476677E+03  0.17203983756E+03 0.  0.
         24    2    3    3    0    0 -0.26855508897E+02 -0.57394932215E+02  0.53093677263E+02  0.11461235603E+03  0.79382976691E+02 0.  0.
         -6    2    1    2    0  502 -0.44254005630E+02  0.25842344908E+02  0.11527262075E+03  0.21489665386E+03  0.17397284541E+03 0.  0.
        -24    2    5    5    0    0 -0.54230968569E+02  0.52436066341E+02  0.14024189430E+03  0.17678733177E+03  0.76781721475E+02 0.  0.
          5    1    3    3  501    0  0.71109514528E+02  0.31552587307E+02  0.40954209379E+02  0.88042410734E+02  0.47000000000E+01 0. -1.
        -13    1    4    4    0    0 -0.61318674526E+01  0.32108161480E+00 -0.18998563708E+02  0.19966179274E+02  0.00000000000E+00 0.  1.
         14    1    4    4    0    0 -0.20723641445E+02 -0.57716013830E+02  0.72092240970E+02  0.94646176760E+02  0.00000000000E+00 0. -1.
         -5    1    5    5    0  502  0.99769629391E+01 -0.26593721433E+02 -0.24969273544E+02  0.38109322094E+02  0.47000000000E+01 0.  1.
         13    1    6    6    0    0  0.10160273315E+02  0.12415551327E+02 -0.14284102065E+01  0.16106440461E+02  0.00000000000E+00 0. -1.
        -14    1    6    6    0    0 -0.64391241885E+02  0.40020515014E+02  0.14167030450E+03  0.16068089131E+03  0.00000000000E+00 0.  1.
</event>
<event>
12    1  0.8421768E-002  0.1761702E+03  0.7818608E-02  0.1171597E+00
         21   -1    0    0  503  502  0.00000000000E+00  0.00000000000E+00  0.68596439263E+02  0.68596439263E+02  0.00000000000E+00 0.  1.
         21   -1    0    0  501  503 -0.00000000000E+00 -0.00000000000E+00 -0.11223573034E+04  0.11223573034E+04  0.00000000000E+00 0.  1.
          6    2    1    2  501    0 -0.43898577387E+01 -0.43392069198E+02 -0.66786418833E+02  0.18840482240E+03  0.17068628780E+03 0.  0.
         24    2    3    3    0    0 -0.38808154353E+02 -0.67312573665E+02 -0.71981956996E+01  0.11540032931E+03  0.85019801020E+02 0.  0.
         -6    2    1    2    0  502  0.43898577387E+01  0.43392069198E+02 -0.98697444532E+03  0.10025489203E+04  0.17053926033E+03 0.  0.
        -24    2    5    5    0    0 -0.12970044926E+02 -0.41718033214E+02 -0.51281444730E+03  0.52047538908E+03  0.77507141112E+02 0.  0.
          5    1    3    3  501    0  0.34418296614E+02  0.23920504467E+02 -0.59588223133E+02  0.73004493095E+02  0.47000000000E+01 0. -1.
        -13    1    4    4    0    0 -0.25544581292E+01 -0.77289355303E+02 -0.13243993152E+01  0.77342897108E+02  0.00000000000E+00 0.  1.
         14    1    4    4    0    0 -0.36253696224E+02  0.99767816378E+01 -0.58737963844E+01  0.38057432201E+02  0.00000000000E+00 0. -1.
         -5    1    5    5    0  502  0.17359902665E+02  0.85110102412E+02 -0.47415999802E+03  0.48207353119E+03  0.47000000000E+01 0.  1.
         13    1    6    6    0    0  0.26581826869E+02  0.55457558325E+01 -0.14167817971E+03  0.14425690810E+03  0.00000000000E+00 0. -1.
        -14    1    6    6    0    0 -0.39551871795E+02 -0.47263789046E+02 -0.37113626759E+03  0.37621848099E+03  0.00000000000E+00 0.  1.
</event>
<event>
12    1  0.8421768E-002  0.2655110E+03  0.7818608E-02  0.1104001E+00
         21   -1    0    0  501  502  0.00000000000E+00  0.00000000000E+00  0.59526037707E+03  0.59526037707E+03  0.00000000000E+00 0. -1.
         21   -1    0    0  502  503 -0.00000000000E+00 -0.00000000000E+00 -0.11820133971E+03  0.11820133971E+03  0.00000000000E+00 0.  1.
         -6    2    1    2    0  503 -0.81066137898E+02  0.18437463521E+03  0.25165085821E+03  0.36581999522E+03  0.17300401626E+03 0.  0.
        -24    2    3    3    0    0 -0.81748104396E+02  0.20130654195E+03  0.25859312318E+03  0.34691392246E+03  0.79194632628E+02 0.  0.
          6    2    1    2  501    0  0.81066137898E+02 -0.18437463521E+03  0.22540817915E+03  0.34764172156E+03  0.17169797472E+03 0.  0.
         24    2    5    5    0    0 -0.16259803800E+02 -0.32920333769E+02  0.84335697736E+02  0.11887485472E+03  0.75303330458E+02 0.  0.
          5    1    5    5  501    0  0.97325941697E+02 -0.15145430144E+03  0.14107248141E+03  0.22876686684E+03  0.47000000000E+01 0. -1.
        -11    1    6    6    0    0  0.14375658915E+02 -0.35573356806E+02  0.11882203468E+02  0.40166030958E+02  0.00000000000E+00 0.  1.
         12    1    6    6    0    0 -0.30635462714E+02  0.26530230372E+01  0.72453494268E+02  0.78708823766E+02  0.00000000000E+00 0. -1.
         -5    1    3    3    0  503  0.68196649836E+00 -0.16931906741E+02 -0.69422649701E+01  0.18906072758E+02  0.47000000000E+01 0.  1.
         13    1    4    4    0    0  0.15214390766E+02  0.41545098018E+02  0.54133886219E+02  0.69913879115E+02  0.00000000000E+00 0. -1.
        -14    1    4    4    0    0 -0.96962495162E+02  0.15976144393E+03  0.20445923696E+03  0.27700004335E+03  0.00000000000E+00 0.  1.
</event>
<event>
12    1  0.8421768E-002  0.2109787E+03  0.7818608E-02  0.1141707E+00
         21   -1    0    0  503  502  0.00000000000E+00  0.00000000000E+00  0.12325094701E+03  0.12325094701E+03  0.00000000000E+00 0. -1.
         21   -1    0    0  501  503 -0.00000000000E+00 -0.00000000000E+00 -0.69018772613E+03  0.69018772613E+03  0.00000000000E+00 0. -1.
          6    2    1    2  501    0  0.11318066307E+02 -0.12208327360E+03 -0.56919278254E+03  0.60703578422E+03  0.17169622978E+03 0.  0.
         24    2    3    3    0    0 -0.49398193982E+02 -0.25139159648E+02 -0.23330771703E+03  0.25217596299E+03  0.78026063399E+02 0.  0.
         -6    2    1    2    0  502 -0.11318066307E+02  0.12208327360E+03  0.22560034184E+01  0.20640288891E+03  0.16602601809E+03 0.  0.
        -24    2    5    5    0    0 -0.60827954444E+02  0.94713274941E+02  0.32984457283E+02  0.14185311179E+03  0.79772717204E+02 0.  0.
          5    1    3    3  501    0  0.60716260289E+02 -0.96944113954E+02 -0.33588506551E+03  0.35485982123E+03  0.47000000000E+01 0. -1.
        -11    1    4    4    0    0 -0.26540001259E+02 -0.23404850261E+01 -0.21160339425E+03  0.21327411000E+03  0.00000000000E+00 0.  1.
         12    1    4    4    0    0 -0.22858192722E+02 -0.22798674621E+02 -0.21704322774E+02  0.38901852991E+02  0.00000000000E+00 0. -1.
         -5    1    5    5    0  502  0.49509888137E+02  0.27369998661E+02 -0.30728453865E+02  0.64549777125E+02  0.47000000000E+01 0.  1.
         11    1    6    6    0    0  0.15561159775E+02 -0.73510174120E+00  0.57339571532E+01  0.16600250984E+02  0.00000000000E+00 0. -1.
        -12    1    6    6    0    0 -0.76389114219E+02  0.95448376682E+02  0.27250500130E+02  0.12525286080E+03  0.00000000000E+00 0.  1.
</event>
<event>
12    1  0.8421768E-002  0.3307831E+03  0.7818608E-02  0.1071037E+00
         21   -1    0    0  501  502  0.00000000000E+00  0.00000000000E+00  0.42647895063E+03  0.42647895063E+03  0.00000000000E+00 0. -1.
         21   -1    0    0  502  503 -0.00000000000E+00 -0.00000000000E+00 -0.26203289049E+03  0.26203289049E+03  0.00000000000E+00 0. -1.
         -6    2    1    2    0  503 -0.10713598613E+03  0.26181806038E+03  0.13900371622E+03  0.35675170864E+03  0.16710156263E+03 0.  0.
        -24    2    3    3    0    0 -0.89404690519E+02  0.74558093478E+02  0.57133288144E+02  0.15155533674E+03  0.78439145142E+02 0.  0.
          6    2    1    2  501    0  0.10713598613E+03 -0.26181806038E+03  0.25442343917E+02  0.33176013248E+03  0.17143703325E+03 0.  0.
         24    2    5    5    0    0  0.50923458322E+02 -0.25492773834E+03  0.12095617387E+02  0.27338590932E+03  0.83738886255E+02 0.  0.
          5    1    5    5  501    0  0.56212527806E+02 -0.68903220434E+01  0.13346726530E+02  0.58374223158E+02  0.47000000000E+01 0. -1.
        -13    1    6    6    0    0 -0.16949764515E+02 -0.69655562700E+02 -0.17686271515E+02  0.73837633578E+02  0.00000000000E+00 0.  1.
         14    1    6    6    0    0  0.67873222837E+02 -0.18527217564E+03  0.29781888902E+02  0.19954827574E+03  0.00000000000E+00 0. -1.
         -5    1    3    3    0  503 -0.17731295609E+02  0.18725996690E+03  0.81870428075E+02  0.20519637190E+03  0.47000000000E+01 0.  1.
         11    1    4    4    0    0 -0.15449185597E+01  0.22695881072E+02 -0.14425935026E+02  0.26936915049E+02  0.00000000000E+00 0. -1.
        -12    1    4    4    0    0 -0.87859771959E+02  0.51862212406E+02  0.71559223170E+02  0.12461842169E+03  0.00000000000E+00 0.  1.
</event>
<event>
12    1  0.8421768E-002  0.3464128E+03  0.7818608E-02  0.1064260E+00
         21   -1    0    0  503  502  0.00000000000E+00  0.00000000000E+00  0.15209872205E+04  0.15209872205E+04  0.00000000000E+00 0. -1.
         21   -1    0    0  501  503 -0.00000000000E+00 -0.00000000000E+00 -0.88537321819E+02  0.88537321819E+02  0.00000000000E+00 0.  1.
          6    2    1    2  501    0 -0.23870400807E+03  0.18274991271E+03  0.44726805671E+03  0.56573012125E+03  0.17211833565E+03 0.  0.
         24    2    3    3    0    0 -0.18806055564E+03  0.16943335529E+03  0.26544916139E+03  0.37646234620E+03  0.84771494936E+02 0.  0.
         -6    2    1    2    0  502  0.23870400807E+03 -0.18274991271E+03  0.98518184195E+03  0.10437944211E+04  0.16895679223E+03 0.  0.
        -24    2    5    5    0    0  0.91160659620E+02 -0.19936878968E+02  0.30923277946E+03  0.33301572925E+03  0.81035911993E+02 0.  0.
          5    1    3    3  501    0 -0.50643452433E+02  0.13316557429E+02  0.18181889532E+03  0.18926777505E+03  0.47000000000E+01 0. -1.
        -11    1    4    4    0    0 -0.12353820875E+03  0.81338398692E+02  0.10116483024E+03  0.17919806639E+03  0.00000000000E+00 0.  1.
         12    1    4    4    0    0 -0.64522346893E+02  0.88094956593E+02  0.16428433115E+03  0.19726427981E+03  0.00000000000E+00 0. -1.
         -5    1    5    5    0  502  0.14754334845E+03 -0.16281303375E+03  0.67594906250E+03  0.71077869180E+03  0.47000000000E+01 0.  1.
         13    1    6    6    0    0  0.80311095157E+02 -0.38818866642E+02  0.29177276634E+03  0.30510346374E+03  0.00000000000E+00 0. -1.
        -14    1    6    6    0    0  0.10849564463E+02  0.18881987674E+02  0.17460013119E+02  0.27912265506E+02  0.00000000000E+00 0.  1.
</event>
<event>
12    1  0.8421768E-002  0.1835600E+03  0.7818608E-02  0.1165183E+00
         21   -1    0    0  501  502  0.00000000000E+00  0.00000000000E+00  0.13260514354E+03  0.13260514354E+03  0.00000000000E+00 0.  1.
         21   -1    0    0  502  503 -0.00000000000E+00 -0.00000000000E+00 -0.25574994563E+03  0.25574994563E+03  0.00000000000E+00 0.  1.
         -6    2    1    2    0  503 -0.33189394655E+01 -0.53185796556E+02 -0.30846906238E+02  0.18289666134E+03  0.17222053533E+03 0.  0.
        -24    2    3    3    0    0 -0.20094267745E+02 -0.98714226225E+02 -0.75342254567E+01  0.12886129669E+03  0.80001194846E+02 0.  0.
          6    2    1    2  501    0  0.33189394655E+01  0.53185796556E+02 -0.92297895851E+02  0.20545842782E+03  0.17565454640E+03 0.  0.
         24    2    5    5    0    0 -0.17062139099E+02 -0.10803758042E+02  0.11284757888E+02  0.81920953280E+02  0.78586634024E+02 0.  0.
          5    1    5    5  501    0  0.20381078564E+02  0.63989554598E+02 -0.10358265374E+03  0.12353747454E+03  0.47000000000E+01 0. -1.
        -11    1    6    6    0    0 -0.13431001714E+02 -0.42695094054E+02 -0.64974128354E+01  0.45226974660E+02  0.00000000000E+00 0.  1.
         12    1    6    6    0    0 -0.36311373850E+01  0.31891336012E+02  0.17782170723E+02  0.36693978620E+02  0.00000000000E+00 0. -1.
         -5    1    3    3    0  503  0.16775328280E+02  0.45528429670E+02 -0.23312680781E+02  0.54035364645E+02  0.47000000000E+01 0.  1.
         11    1    4    4    0    0 -0.39905751179E+02 -0.43280668962E+02 -0.29726599462E+02  0.65949647448E+02  0.00000000000E+00 0. -1.
        -12    1    4    4    0    0  0.19811483434E+02 -0.55433557264E+02  0.22192374005E+02  0.62911649245E+02  0.00000000000E+00 0.  1.
</event>
<event>
12    1  0.8421768E-002  0.1880585E+03  0.7818608E-02  0.1160288E+00
         21   -1    0    0  503  502  0.00000000000E+00  0.00000000000E+00  0.71767201636E+03  0.71767201636E+03  0.00000000000E+00 0. -1.
         21   -1    0    0  501  503 -0.00000000000E+00 -0.00000000000E+00 -0.60723332550E+02  0.60723332550E+02  0.00000000000E+00 0.  1.
          6    2    1    2  501    0  0.10514012378E+02 -0.74097012361E+02  0.15876978925E+03  0.24590289514E+03  0.17221926769E+03 0.  0.
         24    2    3    3    0    0 -0.31399552739E+02  0.12373085022E+02  0.43532160199E+02  0.95784189341E+02  0.78361577390E+02 0.  0.
         -6    2    1    2    0  502 -0.10514012378E+02  0.74097012361E+02  0.49817889456E+03  0.53249245377E+03  0.17252562313E+03 0.  0.
        -24    2    5    5    0    0 -0.44160353251E+02  0.78167913432E+02  0.18954489502E+03  0.22196760104E+03  0.72677294896E+02 0.  0.
          5    1    3    3  501    0  0.41913565116E+02 -0.86470097384E+02  0.11523762905E+03  0.15011870580E+03  0.47000000000E+01 0. -1.
        -13    1    4    4    0    0 -0.31636847565E+02 -0.28967626056E+02  0.14550238242E+02  0.45295948120E+02  0.00000000000E+00 0.  1.
         14    1    4    4    0    0  0.23729482665E+00  0.41340711078E+02  0.28981921958E+02  0.50488241222E+02  0.00000000000E+00 0. -1.
         -5    1    5    5    0  502  0.33646340873E+02 -0.40709010706E+01  0.30863399954E+03  0.31052485273E+03  0.47000000000E+01 0.  1.
         13    1    6    6    0    0 -0.19922230576E+02  0.76172875433E+02  0.17882283038E+03  0.19538886071E+03  0.00000000000E+00 0. -1.
        -14    1    6    6    0    0 -0.24238122675E+02  0.19950379984E+01  0.10722064635E+02  0.26578740329E+02  0.00000000000E+00 0.  1.
</event>
<event>
12    1  0.8421768E-002  0.1793782E+03  0.7818608E-02  0.1168670E+00
         21   -1    0    0  501  502  0.00000000000E+00  0.00000000000E+00  0.59501118566E+03  0.59501118566E+03  0.00000000000E+00 0.  1.
         21   -1    0    0  502  503 -0.00000000000E+00 -0.00000000000E+00 -0.27165408471E+03  0.27165408471E+03  0.00000000000E+00 0.  1.
         -6    2    1    2    0  503 -0.86528933648E+01  0.48595852125E+02 -0.22651854898E+03  0.28827114003E+03  0.17132766191E+03 0.  0.
        -24    2    3    3    0    0 -0.27667848528E+02  0.33037295870E+02 -0.29952310890E+02  0.90119649627E+02  0.73262797930E+02 0.  0.
          6    2    1    2  501    0  0.86528933648E+01 -0.48595852125E+02  0.54987564993E+03  0.57839413034E+03  0.17245321166E+03 0.  0.
         24    2    5    5    0    0  0.69164874922E+02 -0.10548126178E+02  0.33177109804E+03  0.34882711416E+03  0.81934432250E+02 0.  0.
          5    1    5    5  501    0 -0.60511981557E+02 -0.38047725947E+02  0.21810455189E+03  0.22956701618E+03  0.47000000000E+01 0. -1.
        -11    1    6    6    0    0  0.86400695553E+02 -0.15172058507E+02  0.29783531586E+03  0.31048534092E+03  0.00000000000E+00 0.  1.
         12    1    6    6    0    0 -0.17235820631E+02  0.46239323294E+01  0.33935782183E+02  0.38341773243E+02  0.00000000000E+00 0. -1.
         -5    1    3    3    0  503  0.19014955163E+02  0.15558556254E+02 -0.19656623809E+03  0.19815149040E+03  0.47000000000E+01 0.  1.
         13    1    4    4    0    0 -0.16113650331E+02 -0.16234098983E+02 -0.32158640801E+02  0.39463576561E+02  0.00000000000E+00 0. -1.
        -14    1    4    4    0    0 -0.11554198196E+02  0.49271394854E+02  0.22063299109E+01  0.50656073066E+02  0.00000000000E+00 0.  1.
</event>
<event>
12    1  0.8421768E-002  0.2498953E+03  0.7818608E-02  0.1114215E+00
         21   -1    0    0  501  502  0.00000000000E+00  0.00000000000E+00  0.47766022994E+03  0.47766022994E+03  0.00000000000E+00 0. -1.
         21   -1    0    0  502  503 -0.00000000000E+00 -0.00000000000E+00 -0.44091515040E+03  0.44091515040E+03  0.00000000000E+00 0.  1.
         -6    2    1    2    0  503 -0.11916045476E+03 -0.12488932757E+03 -0.36860405576E+03  0.44238675705E+03  0.17332205507E+03 0.  0.
        -24    2    3    3    0    0 -0.83047854832E+02 -0.71914465856E+01 -0.22292900673E+03  0.25159833767E+03  0.81582586253E+02 0.  0.
          6    2    1    2  501    0  0.11916045476E+03  0.12488932757E+03  0.40534913530E+03  0.47618862329E+03  0.18069622393E+03 0.  0.
         24    2    5    5    0    0  0.24369686382E+02  0.71485231174E+02  0.31856642405E+03  0.33693843029E+03  0.79617330893E+02 0.  0.
          5    1    5    5  501    0  0.94790768374E+02  0.53404096395E+02  0.86782711250E+02  0.13925019301E+03  0.47000000000E+01 0. -1.
        -11    1    6    6    0    0  0.86703582651E+01 -0.17327047787E+02  0.63947702630E+02  0.66818488228E+02  0.00000000000E+00 0.  1.
         12    1    6    6    0    0  0.15699328117E+02  0.88812278961E+02  0.25461872142E+03  0.27011994206E+03  0.00000000000E+00 0. -1.
         -5    1    3    3    0  503 -0.36112599924E+02 -0.11769788098E+03 -0.14567504903E+03  0.19078841939E+03  0.47000000000E+01 0.  1.
         11    1    4    4    0    0 -0.99714246950E+02 -0.56314441776E+01 -0.18905099632E+03  0.21381048482E+03  0.00000000000E+00 0. -1.
        -12    1    4    4    0    0  0.16666392118E+02 -0.15600024080E+01 -0.33878010402E+02  0.37787852844E+02  0.00000000000E+00 0.  1.
</event>
<event>
12    1  0.8421768E-002  0.1902672E+03  0.7818608E-02  0.1160032E+00
         21   -1    0    0  503  502  0.00000000000E+00  0.00000000000E+00  0.17716756231E+03  0.17716756231E+03  0.00000000000E+00 0. -1.
         21   -1    0    0  501  503 -0.00000000000E+00 -0.00000000000E+00 -0.35419132387E+03  0.35419132387E+03  0.00000000000E+00 0. -1.
          6    2    1    2  501    0 -0.59815702612E+02 -0.10415949582E+02 -0.26502564674E+03  0.32172602727E+03  0.17199602585E+03 0.  0.
         24    2    3    3    0    0  0.30294975613E+02  0.26721322155E+02 -0.92137492725E+02  0.12320269091E+03  0.71118006695E+02 0.  0.
         -6    2    1    2    0  502  0.59815702612E+02  0.10415949582E+02  0.88001885171E+02  0.20963285892E+03  0.18031969792E+03 0.  0.
        -24    2    5    5    0    0  0.72080887193E+02 -0.57288092017E+02  0.55218467196E+02  0.13327112442E+03  0.78959063436E+02 0.  0.
          5    1    3    3  501    0 -0.90110678225E+02 -0.37137271737E+02 -0.17288815401E+03  0.19852333636E+03  0.47000000000E+01 0. -1.
        -13    1    4    4    0    0  0.17498601867E+02  0.38186426016E+02 -0.96697326289E+02  0.10542664327E+03  0.00000000000E+00 0.  1.
         14    1    4    4    0    0  0.12796373746E+02 -0.11465103860E+02  0.45598335646E+01  0.17776047640E+02  0.00000000000E+00 0. -1.
         -5    1    5    5    0  502 -0.12265184580E+02  0.67704041599E+02  0.32783417975E+02  0.76361734499E+02  0.47000000000E+01 0.  1.
         13    1    6    6    0    0  0.22472584203E+02 -0.17336011606E+02  0.63003514268E+02  0.69101354178E+02  0.00000000000E+00 0. -1.
        -14    1    6    6    0    0  0.49608302990E+02 -0.39952080411E+02 -0.77850470720E+01  0.64169770239E+02  0.00000000000E+00 0.  1.
</event>
<event>
12    1  0.8421768E-002  0.4635190E+03  0.7818608E-02  0.1023781E+00
         21   -1    0    0  501  502  0.00000000000E+00  0.00000000000E+00  0.66765381777E+03  0.66765381777E+03  0.00000000000E+00 0.  1.
         21   -1    0    0  502  503 -0.00000000000E+00 -0.00000000000E+00 -0.59079483622E+03  0.59079483622E+03  0.00000000000E+00 0. -1.
         -6    2    1    2    0  503  0.35821710290E+03 -0.23865163909E+03 -0.38627748756E+03  0.60320424299E+03  0.17137958955E+03 0.  0.
        -24    2    3    3    0    0  0.24022164790E+03 -0.11891456839E+03 -0.16392295715E+03  0.32441485887E+03  0.80790779684E+02 0.  0.
          6    2    1    2  501    0 -0.35821710290E+03  0.23865163909E+03  0.46313646912E+03  0.65524441100E+03  0.17197602005E+03 0.  0.
         24    2    5    5    0    0 -0.22118230531E+03  0.89763276568E+02  0.18698547790E+03  0.31285904304E+03  0.77059417742E+02 0.  0.
          5    1    5    5  501    0 -0.13703479759E+03  0.14888836252E+03  0.27615099122E+03  0.34238536796E+03  0.47000000000E+01 0. -1.
        -13    1    6    6    0    0 -0.10443206345E+03  0.44256997856E+02  0.13723193865E+03  0.17803747561E+03  0.00000000000E+00 0.  1.
         14    1    6    6    0    0 -0.11675024186E+03  0.45506278712E+02  0.49753539254E+02  0.13482156743E+03  0.00000000000E+00 0. -1.
         -5    1    3    3    0  503  0.11799545499E+03 -0.11973707070E+03 -0.22235453041E+03  0.27878938411E+03  0.47000000000E+01 0.  1.
         13    1    4    4    0    0  0.85959099104E+01  0.49795831340E+01 -0.25775854765E+02  0.27623913630E+02  0.00000000000E+00 0. -1.
        -14    1    4    4    0    0  0.23162573799E+03 -0.12389415153E+03 -0.13814710238E+03  0.29679094524E+03  0.00000000000E+00 0.  1.
</event>
<event>
12    1  0.8421768E-002  0.2418396E+03  0.7818608E-02  0.1118608E+00
         21   -1    0    0  503  502  0.00000000000E+00  0.00000000000E+00  0.17472981106E+03  0.17472981106E+03  0.00000000000E+00 0.  1.
         21   -1    0    0  501  503 -0.00000000000E+00 -0.00000000000E+00 -0.55700331320E+03  0.55700331320E+03  0.00000000000E+00 0.  1.
          6    2    1    2  501    0 -0.12706180738E+03 -0.11290517690E+03 -0.42235978300E+03  0.48659372483E+03  0.17173638193E+03 0.  0.
         24    2    3    3    0    0 -0.10892906004E+03 -0.12442188117E+03 -0.23712464799E+03  0.30005800105E+03  0.80376368869E+02 0.  0.
         -6    2    1    2    0  502  0.12706180738E+03  0.11290517690E+03  0.40086280859E+02  0.24513939944E+03  0.17202945497E+03 0.  0.
        -24    2    5    5    0    0  0.13695871470E+02  0.94596724483E+02  0.36610130620E+02  0.13015588551E+03  0.80399848818E+02 0.  0.
          5    1    3    3  501    0 -0.18132747338E+02  0.11516704271E+02 -0.18523513501E+03  0.18653572378E+03  0.47000000000E+01 0. -1.
        -11    1    4    4    0    0  0.79210946125E+00 -0.52218006097E+02 -0.59959686593E+02  0.79514222719E+02  0.00000000000E+00 0.  1.
         12    1    4    4    0    0 -0.10972116951E+03 -0.72203875075E+02 -0.17716496140E+03  0.22054377833E+03  0.00000000000E+00 0. -1.
         -5    1    5    5    0  502  0.11336593591E+03  0.18308452418E+02  0.34761502385E+01  0.11498351393E+03  0.47000000000E+01 0.  1.
         13    1    6    6    0    0  0.50854961112E+01  0.20245878902E+02 -0.25457127928E+02  0.32921470890E+02  0.00000000000E+00 0. -1.
        -14    1    6    6    0    0  0.86103753588E+01  0.74350845581E+02  0.62067258548E+02  0.97234414618E+02  0.00000000000E+00 0.  1.
</event>
<event>
12    1  0.8421768E-002  0.2040300E+03  0.7818608E-02  0.1146554E+00
         21   -1    0    0  503  502  0.00000000000E+00  0.00000000000E+00  0.51022335293E+03  0.51022335293E+03  0.00000000000E+00 0.  1.
         21   -1    0    0  501  503 -0.00000000000E+00 -0.00000000000E+00 -0.81256572810E+02  0.81256572810E+02  0.00000000000E+00 0.  1.
          6    2    1    2  501    0  0.21580921879E+02  0.10817797124E+03  0.21388573757E+03  0.29559321067E+03  0.17163923738E+03 0.  0.
         24    2    3    3    0    0 -0.27665821448E+02  0.11741794747E+03  0.19299799395E+03  0.24110461808E+03  0.79566570398E+02 0.  0.
         -6    2    1    2    0  502 -0.21580921879E+02 -0.10817797124E+03  0.21508104255E+03  0.29588671507E+03  0.17064842114E+03 0.  0.
        -24    2    5    5    0    0 -0.56742092101E+02 -0.12892972187E+02  0.11912164350E+03  0.15608029461E+03  0.82372317358E+02 0.  0.
          5    1    3    3  501    0  0.49246743328E+02 -0.92399762298E+01  0.20887743617E+02  0.54488592591E+02  0.47000000000E+01 0. -1.
        -13    1    4    4    0    0 -0.18035318698E+02  0.10584491267E+03  0.99445355216E+02  0.14634820441E+03  0.00000000000E+00 0.  1.
         14    1    4    4    0    0 -0.96305027504E+01  0.11573034801E+02  0.93552638739E+02  0.94756413676E+02  0.00000000000E+00 0. -1.
         -5    1    5    5    0  502  0.35161170221E+02 -0.95284999056E+02  0.95959399052E+02  0.13980642046E+03  0.47000000000E+01 0.  1.
         11    1    6    6    0    0 -0.23236786609E+02  0.35233150593E+02  0.50654305282E+02  0.65933161583E+02  0.00000000000E+00 0. -1.
        -12    1    6    6    0    0 -0.33505305491E+02 -0.48126122781E+02  0.68467338218E+02  0.90147133025E+02  0.00000000000E+00 0.  1.
</event>
<event>
12    1  0.8421768E-002  0.2323473E+03  0.7818608E-02  0.1125143E+00
         21   -1    0    0  503  502  0.00000000000E+00  0.00000000000E+00  0.47352128059E+02  0.47352128059E+02  0.00000000000E+00 0.  1.
         21   -1    0    0  501  503 -0.00000000000E+00 -0.00000000000E+00 -0.11377130982E+04  0.11377130982E+04  0.00000000000E+00 0.  1.
          6    2    1    2  501    0 -0.11600347638E+03  0.10395769936E+03 -0.52329896641E+03  0.57256185958E+03  0.17239856442E+03 0.  0.
         24    2    3    3    0    0 -0.18680925516E+02  0.45123226378E+02 -0.11203998140E+03  0.14584272845E+03  0.79574251327E+02 0.  0.
         -6    2    1    2    0  502  0.11600347638E+03 -0.10395769936E+03 -0.56706200370E+03  0.61250336665E+03  0.17128061282E+03 0.  0.
        -24    2    5    5    0    0  0.73477585206E+01 -0.31457825732E+02 -0.12246404571E+03  0.14909023461E+03  0.78656666653E+02 0.  0.
          5    1    3    3  501    0 -0.97322550861E+02  0.58834472978E+02 -0.41125898502E+03  0.42671913113E+03  0.47000000000E+01 0. -1.
        -13    1    4    4    0    0 -0.11171148767E+02 -0.19333273552E+02 -0.90062187249E+01  0.24076586277E+02  0.00000000000E+00 0.  1.
         14    1    4    4    0    0 -0.75097767487E+01  0.64456499930E+02 -0.10303376267E+03  0.12176614218E+03  0.00000000000E+00 0. -1.
         -5    1    5    5    0  502  0.10865571786E+03 -0.72499873624E+02 -0.44459795799E+03  0.46341313204E+03  0.47000000000E+01 0.  1.
         11    1    6    6    0    0 -0.10155000530E+02  0.16344917707E+02 -0.81522967248E+02  0.83763205284E+02  0.00000000000E+00 0. -1.
        -12    1    6    6    0    0  0.17502759050E+02 -0.47802743439E+02 -0.40941078463E+02  0.65327029325E+02  0.00000000000E+00 0.  1.
</event>
<event>
12    1  0.8421768E-002  0.1823395E+03  0.7818608E-02  0.1165685E+00
         21   -1    0    0  501  502  0.00000000000E+00  0.00000000000E+00  0.48565485371E+03  0.48565485371E+03  0.00000000000E+00 0. -1.
         21   -1    0    0  502  503 -0.00000000000E+00 -0.00000000000E+00 -0.77573524707E+02  0.77573524707E+02  0.00000000000E+00 0. -1.
         -6    2    1    2    0  503  0.32636703183E+02 -0.49422636503E+02  0.10619929223E+03  0.21055221634E+03  0.17189006586E+03 0.  0.
        -24    2    3    3    0    0  0.15731801523E+02 -0.97451594186E+02  0.83171618579E+02  0.15447262798E+03  0.84852647988E+02 0.  0.
          6    2    1    2  501    0 -0.32636703183E+02  0.49422636503E+02  0.30188203677E+03  0.35267616208E+03  0.17245277550E+03 0.  0.
         24    2    5    5    0    0  0.44458909059E+02  0.12712056230E+02  0.12406869345E+03  0.15536656982E+03  0.81286772336E+02 0.  0.
          5    1    5    5  501    0 -0.77095612242E+02  0.36710580273E+02  0.17781334332E+03  0.19730959225E+03  0.47000000000E+01 0. -1.
        -11    1    6    6    0    0  0.26663683420E+02  0.38088549274E+02  0.11344404384E+03  0.12260196035E+03  0.00000000000E+00 0.  1.
         12    1    6    6    0    0  0.17795225639E+02 -0.25376493044E+02  0.10624649611E+02  0.32764609476E+02  0.00000000000E+00 0. -1.
         -5    1    3    3    0  503  0.16904901660E+02  0.48028957682E+02  0.23027673648E+02  0.56079588353E+02  0.47000000000E+01 0.  1.
         11    1    4    4    0    0  0.40330472677E+02 -0.28174160163E+02  0.89471227718E+01  0.50003813186E+02  0.00000000000E+00 0. -1.
        -12    1    4    4    0    0 -0.24598671154E+02 -0.69277434022E+02  0.74224495807E+02  0.10446881480E+03  0.00000000000E+00 0.  1.
</event>
<event>
12    1  0.8421768E-002  0.2038283E+03  0.7818608E-02  0.1146619E+00
         21   -1    0    0  503  502  0.00000000000E+00  0.00000000000E+00  0.65327194509E+03  0.65327194509E+03  0.00000000000E+00 0.  1.
         21   -1    0    0  501  503 -0.00000000000E+00 -0.00000000000E+00 -0.20137614055E+03  0.20137614055E+03  0.00000000000E+00 0. -1.
          6    2    1    2  501    0  0.65576314083E+02  0.87167440399E+02 -0.12771264665E+03  0.24024436662E+03  0.17178015003E+03 0.  0.
         24    2    3    3    0    0 -0.90881558995E+01  0.93797445718E+02 -0.54687137946E+02  0.13548962940E+03  0.80536955608E+02 0.  0.
         -6    2    1    2    0  502 -0.65576314083E+02 -0.87167440399E+02  0.57960845118E+03  0.61440371902E+03  0.17218466143E+03 0.  0.
        -24    2    5    5    0    0 -0.32574367544E+02 -0.19950403731E+02  0.12187907635E+03  0.15056589276E+03  0.79727478191E+02 0.  0.
          5    1    3    3  501    0  0.74664469982E+02 -0.66300053198E+01 -0.73025508702E+02  0.10475473722E+03  0.47000000000E+01 0. -1.
        -11    1    4    4    0    0  0.25681657036E+02  0.42930426167E+02  0.42752017646E+01  0.50208030723E+02  0.00000000000E+00 0.  1.
         12    1    4    4    0    0 -0.34769812935E+02  0.50867019552E+02 -0.58962339710E+02  0.85281598682E+02  0.00000000000E+00 0. -1.
         -5    1    5    5    0  502 -0.33001946539E+02 -0.67217036668E+02  0.45772937483E+03  0.46383782627E+03  0.47000000000E+01 0.  1.
         11    1    6    6    0    0  0.21613165093E+02 -0.24924093652E+02  0.35380756255E+02  0.48374965249E+02  0.00000000000E+00 0. -1.
        -12    1    6    6    0    0 -0.54187532637E+02  0.49736899214E+01  0.86498320099E+02  0.10219092751E+03  0.00000000000E+00 0.  1.
</event>
<event>
12    1  0.8421768E-002  0.1851162E+03  0.7818608E-02  0.1163106E+00
         21   -1    0    0  501  502  0.00000000000E+00  0.00000000000E+00  0.12891553469E+04  0.12891553469E+04  0.00000000000E+00 0.  1.
         21   -1    0    0  502  503 -0.00000000000E+00 -0.00000000000E+00 -0.26813840759E+02  0.26813840759E+02  0.00000000000E+00 0. -1.
         -6    2    1    2    0  503 -0.11543732662E+02 -0.66744495878E+02  0.55902852808E+03  0.58888105653E+03  0.17227860588E+03 0.  0.
        -24    2    3    3    0    0 -0.51746172072E+02 -0.65001177179E+02  0.22588386808E+03  0.25328199548E+03  0.78901381587E+02 0.  0.
          6    2    1    2  501    0  0.11543732662E+02  0.66744495878E+02  0.70331297808E+03  0.72708813114E+03  0.17152235953E+03 0.  0.
         24    2    5    5    0    0 -0.10667111301E+02  0.14016628571E+02  0.62332067745E+03  0.62862794761E+03  0.79587539510E+02 0.  0.
          5    1    5    5  501    0  0.22210843963E+02  0.52727867307E+02  0.79992300626E+02  0.98460183525E+02  0.47000000000E+01 0. -1.
        -11    1    6    6    0    0  0.29930539276E+02 -0.11117894948E+02  0.31761419287E+03  0.31921500635E+03  0.00000000000E+00 0.  1.
         12    1    6    6    0    0 -0.40597650577E+02  0.25134523519E+02  0.30570648458E+03  0.30941294126E+03  0.00000000000E+00 0. -1.
         -5    1    3    3    0  503  0.40202439410E+02 -0.17433186984E+01  0.33314466000E+03  0.33559906105E+03  0.47000000000E+01 0.  1.
         11    1    4    4    0    0  0.18903585712E+02 -0.29777931837E+02  0.60708469288E+02  0.70211032043E+02  0.00000000000E+00 0. -1.
        -12    1    4    4    0    0 -0.70649757784E+02 -0.35223245343E+02  0.16517539879E+03  0.18307096343E+03  0.00000000000E+00 0.  1.
</event>
<event>
12    1  0.8421768E-002  0.1876881E+03  0.7818608E-02  0.1160779E+00
         21   -1    0    0  501  502  0.00000000000E+00  0.00000000000E+00  0.34022676537E+03  0.34022676537E+03  0.00000000000E+00 0. -1.
         21   -1    0    0  502  503 -0.00000000000E+00 -0.00000000000E+00 -0.17173767428E+03  0.17173767428E+03  0.00000000000E+00 0. -1.
         -6    2    1    2    0  503  0.52817532149E+02 -0.49954631452E+02 -0.77802889339E+02  0.20230891385E+03  0.17201874935E+03 0.  0.
        -24    2    3    3    0    0 -0.30429845019E+02 -0.61579564921E+02 -0.44235279571E+02  0.11167702482E+03  0.76137898783E+02 0.  0.
          6    2    1    2  501    0 -0.52817532149E+02  0.49954631452E+02  0.24629198043E+03  0.30965552580E+03  0.17303655143E+03 0.  0.
         24    2    5    5    0    0 -0.26212838405E+02  0.60729747169E+02  0.57381907206E+02  0.11851939993E+03  0.79868327869E+02 0.  0.
          5    1    5    5  501    0 -0.26604693745E+02 -0.10775115717E+02  0.18891007322E+03  0.19113612587E+03  0.47000000000E+01 0. -1.
        -13    1    6    6    0    0 -0.40091405050E+02  0.40606034232E+01  0.59324085604E+01  0.40730857226E+02  0.00000000000E+00 0.  1.
         14    1    6    6    0    0  0.13878566645E+02  0.56669143746E+02  0.51449498645E+02  0.77788542703E+02  0.00000000000E+00 0. -1.
         -5    1    3    3    0  503  0.83247377168E+02  0.11624933469E+02 -0.33567609768E+02  0.90631889030E+02  0.47000000000E+01 0.  1.
         11    1    4    4    0    0 -0.20321062909E+02 -0.13445232462E+02 -0.56029360098E+02  0.61098355679E+02  0.00000000000E+00 0. -1.
        -12    1    4    4    0    0 -0.10108782111E+02 -0.48134332459E+02  0.11794080527E+02  0.50578669145E+02  0.00000000000E+00 0.  1.
</event>
<event>
12    1  0.8421768E-002  0.1754132E+03  0.7818608E-02  0.1172386E+00
         21   -1    0    0  501  502  0.00000000000E+00  0.00000000000E+00  0.89639223301E+02  0.89639223301E+02  0.00000000000E+00 0.  1.
         21   -1    0    0  502  503 -0.00000000000E+00 -0.00000000000E+00 -0.92280679703E+03  0.92280679703E+03  0.00000000000E+00 0.  1.
         -6    2    1    2    0  503 -0.50351754165E+01 -0.34003809166E+02 -0.81781970600E+03  0.83636262245E+03  0.17173162983E+03 0.  0.
        -24    2    3    3    0    0 -0.48337060267E+02 -0.55498423534E+02 -0.70445666101E+03  0.71303240860E+03  0.82094348569E+02 0.  0.
          6    2    1    2  501    0  0.50351754165E+01  0.34003809166E+02 -0.15347867728E+02  0.17608339788E+03  0.17201219124E+03 0.  0.
         24    2    5    5    0    0  0.42004337336E+02  0.62253432457E+02  0.27614581785E+02  0.11258046710E+03  0.79195594816E+02 0.  0.
          5    1    5    5  501    0 -0.36969161919E+02 -0.28249623290E+02 -0.42962449513E+02  0.63502930776E+02  0.47000000000E+01 0. -1.
        -13    1    6    6    0    0  0.40068128048E+02  0.80359665813E+01  0.39726122755E+02  0.56992951085E+02  0.00000000000E+00 0.  1.
         14    1    6    6    0    0  0.19362092878E+01  0.54217465875E+02 -0.12111540971E+02  0.55587516018E+02  0.00000000000E+00 0. -1.
         -5    1    3    3    0  503  0.43301884851E+02  0.21494614368E+02 -0.11336304499E+03  0.12333021385E+03  0.47000000000E+01 0.  1.
         13    1    4    4    0    0 -0.13015723374E+02 -0.24640428977E+02 -0.52911034736E+02  0.59800814309E+02  0.00000000000E+00 0. -1.
        -14    1    4    4    0    0 -0.35321336893E+02 -0.30857994557E+02 -0.65154562627E+03  0.65323159429E+03  0.00000000000E+00 0.  1.
</event>
<event>
12    1  0.8421768E-002  0.1869286E+03  0.7818608E-02  0.1161367E+00
         21   -1    0    0  501  502  0.00000000000E+00  0.00000000000E+00  0.68690204358E+03  0.68690204358E+03  0.00000000000E+00 0. -1.
         21   -1    0    0  502  503 -0.00000000000E+00 -0.00000000000E+00 -0.59969021121E+02  0.59969021121E+02  0.00000000000E+00 0.  1.
         -6    2    1    2    0  503  0.41523403954E+00 -0.73362065499E+02  0.16667415934E+03  0.25010099159E+03  0.17142947683E+03 0.  0.
        -24    2    3    3    0    0 -0.23736684364E+01  0.17380218405E+02  0.12749912876E+03  0.15111254233E+03  0.79191327314E+02 0.  0.
          6    2    1    2  501    0 -0.41523403954E+00  0.73362065499E+02  0.46025886312E+03  0.49677007311E+03  0.17193056561E+03 0.  0.
         24    2    5    5    0    0 -0.18933148475E+02  0.40825440412E+02  0.44805954956E+03  0.45711583780E+03  0.78564295447E+02 0.  0.
          5    1    5    5  501    0  0.18517914436E+02  0.32536625086E+02  0.12199313556E+02  0.39654235313E+02  0.47000000000E+01 0. -1.
        -11    1    6    6    0    0 -0.18267533358E+02 -0.49029517883E+01  0.23808832819E+02  0.30407272673E+02  0.00000000000E+00 0.  1.
         12    1    6    6    0    0 -0.66561511724E+00  0.45728392201E+02  0.42425071674E+03  0.42670856513E+03  0.00000000000E+00 0. -1.
         -5    1    3    3    0  503  0.27889024760E+01 -0.90742283904E+02  0.39175030583E+02  0.98988449257E+02  0.47000000000E+01 0.  1.
         13    1    4    4    0    0  0.16142432291E+02 -0.18708946515E+01  0.12294774003E+03  0.12401703570E+03  0.00000000000E+00 0. -1.
        -14    1    4    4    0    0 -0.18516100727E+02  0.19251113056E+02  0.45513887334E+01  0.27095506628E+02  0.00000000000E+00 0.  1.
</event>
<event>
12    1  0.8421768E-002  0.1861594E+03  0.7818608E-02  0.1162232E+00
         21   -1    0    0  501  502  0.00000000000E+00  0.00000000000E+00  0.12737249586E+03  0.12737249586E+03  0.00000000000E+00 0.  1.
         21   -1    0    0  502  503 -0.00000000000E+00 -0.00000000000E+00 -0.32867479454E+03  0.32867479454E+03  0.00000000000E+00 0. -1.
         -6    2    1    2    0  503  0.61173988414E+02 -0.35823224078E+02 -0.19687724701E+03  0.27095384069E+03  0.17213301006E+03 0.  0.
        -24    2    3    3    0    0  0.78880291999E+02  0.24531637926E+02 -0.87336057753E+02  0.14455136960E+03  0.80272098164E+02 0.  0.
          6    2    1    2  501    0 -0.61173988414E+02  0.35823224078E+02 -0.44250516678E+01  0.18509344971E+03  0.17092233266E+03 0.  0.
         24    2    5    5    0    0 -0.90427037092E+02  0.25593732650E+01  0.36070327862E+02  0.12489220063E+03  0.78188194738E+02 0.  0.
          5    1    5    5  501    0  0.29253048677E+02  0.33263850813E+02 -0.40495379530E+02  0.60201249082E+02  0.47000000000E+01 0. -1.
        -11    1    6    6    0    0 -0.97273259982E+01  0.24536941835E+02  0.31544852416E+02  0.41131011410E+02  0.00000000000E+00 0.  1.
         12    1    6    6    0    0 -0.80699711093E+02 -0.21977568570E+02  0.45254754461E+01  0.83761189216E+02  0.00000000000E+00 0. -1.
         -5    1    3    3    0  503 -0.17706303585E+02 -0.60354862004E+02 -0.10954118926E+03  0.12640247109E+03  0.47000000000E+01 0.  1.
         11    1    4    4    0    0  0.19268269219E+02  0.17663271548E+02 -0.79922889660E+02  0.84088796234E+02  0.00000000000E+00 0. -1.
        -12    1    4    4    0    0  0.59612022780E+02  0.68683663781E+01 -0.74131680932E+01  0.60462573364E+02  0.00000000000E+00 0.  1.
</event>
<event>
12    1  0.8421768E-002  0.1799527E+03  0.7818608E-02  0.1167955E+00
         21   -1    0    0  501  502  0.00000000000E+00  0.00000000000E+00  0.25934842695E+03  0.25934842695E+03  0.00000000000E+00 0.  1.
         21   -1    0    0  502  503 -0.00000000000E+00 -0.00000000000E+00 -0.45477368171E+03  0.45477368171E+03  0.00000000000E+00 0.  1.
         -6    2    1    2    0  503  0.45121080487E+02  0.24203118375E+01 -0.40200349291E+03  0.44044269521E+03  0.17418722583E+03 0.  0.
        -24    2    3    3    0    0  0.27847960684E+02  0.61882686812E+02 -0.30616493811E+03  0.32624438834E+03  0.89963635750E+02 0.  0.
          6    2    1    2  501    0 -0.45121080487E+02 -0.24203118375E+01  0.20657823815E+03  0.27367941346E+03  0.17373567009E+03 0.  0.
         24    2    5    5    0    0  0.29682057810E+02  0.18900277717E+01  0.17415551951E+03  0.19190282017E+03  0.74912953819E+02 0.  0.
          5    1    5    5  501    0 -0.74803138298E+02 -0.43103396092E+01  0.32422718634E+02  0.81776593291E+02  0.47000000000E+01 0. -1.
        -13    1    6    6    0    0  0.29266190649E+02 -0.33280794671E+02  0.11258481255E+03  0.12099364126E+03  0.00000000000E+00 0.  1.
         14    1    6    6    0    0  0.41586716090E+00  0.35170822443E+02  0.61570706964E+02  0.70909178904E+02  0.00000000000E+00 0. -1.
         -5    1    3    3    0  503  0.17273119803E+02 -0.59462374974E+02 -0.95838554797E+02  0.11419830686E+03  0.47000000000E+01 0.  1.
         11    1    4    4    0    0 -0.85910088301E+00 -0.14076331032E+02 -0.14591563898E+03  0.14659554853E+03  0.00000000000E+00 0. -1.
        -12    1    4    4    0    0  0.28707061567E+02  0.75959017844E+02 -0.16024929913E+03  0.17964883982E+03  0.00000000000E+00 0.  1.
</event>
<event>
12    1  0.8421768E-002  0.3135790E+03  0.7818608E-02  0.1078745E+00
         21   -1    0    0  503  502  0.00000000000E+00  0.00000000000E+00  0.21222451968E+03  0.21222451968E+03  0.00000000000E+00 0. -1.
         21   -1    0    0  501  503 -0.00000000000E+00 -0.00000000000E+00 -0.55300248360E+03  0.55300248360E+03  0.00000000000E+00 0. -1.
          6    2    1    2  501    0  0.11214236732E+03  0.23661333786E+03 -0.32573718257E+03  0.45214655642E+03  0.17253989154E+03 0.  0.
         24    2    3    3    0    0  0.12503426179E+03  0.23406976489E+03 -0.24413603834E+03  0.36936064309E+03  0.80016610698E+02 0.  0.
         -6    2    1    2    0  502 -0.11214236732E+03 -0.23661333786E+03 -0.15040781348E+02  0.31308044686E+03  0.17097180733E+03 0.  0.
        -24    2    5    5    0    0 -0.82122966966E+02 -0.22843042801E+03  0.29958913481E+02  0.25816972891E+03  0.82640367144E+02 0.  0.
          5    1    3    3  501    0 -0.12891894469E+02  0.25435729648E+01 -0.81601144227E+02  0.82785913328E+02  0.47000000000E+01 0. -1.
        -13    1    4    4    0    0  0.13610275580E+02  0.90163662799E+02 -0.53158578271E+02  0.10554885189E+03  0.00000000000E+00 0.  1.
         14    1    4    4    0    0  0.11142398621E+03  0.14390610210E+03 -0.19097746007E+03  0.26381179120E+03  0.00000000000E+00 0. -1.
         -5    1    5    5    0  502 -0.30019400353E+02 -0.81829098474E+01 -0.44999694830E+02  0.54910717951E+02  0.47000000000E+01 0.  1.
         13    1    6    6    0    0 -0.63712552980E+02 -0.62664964579E+02  0.47597412250E+01  0.89492135574E+02  0.00000000000E+00 0. -1.
        -14    1    6    6    0    0 -0.18410413986E+02 -0.16576546343E+03  0.25199172256E+02  0.16867759333E+03  0.00000000000E+00 0.  1.
</event>
<event>
12    1  0.8421768E-002  0.2280955E+03  0.7818608E-02  0.1128074E+00
         21   -1    0    0  501  502  0.00000000000E+00  0.00000000000E+00  0.63966134823E+03  0.63966134823E+03  0.00000000000E+00 0. -1.
         21   -1    0    0  502  503 -0.00000000000E+00 -0.00000000000E+00 -0.10349398466E+03  0.10349398466E+03  0.00000000000E+00 0.  1.
         -6    2    1    2    0  503  0.60675515152E+02  0.13701110977E+03  0.95258231604E+02  0.24673974779E+03  0.17132661822E+03 0.  0.
        -24    2    3    3    0    0  0.23727896128E+02  0.11629724114E+02  0.70965345365E+02  0.11370647096E+03  0.84822271594E+02 0.  0.
          6    2    1    2  501    0 -0.60675515152E+02 -0.13701110977E+03  0.44090913197E+03  0.49641558510E+03  0.17197095143E+03 0.  0.
         24    2    5    5    0    0 -0.35626344142E+01 -0.35767612587E+02  0.29521916015E+03  0.30997582336E+03  0.87399336811E+02 0.  0.
          5    1    5    5  501    0 -0.57112880738E+02 -0.10124349718E+03  0.14568997182E+03  0.18643976174E+03  0.47000000000E+01 0. -1.
        -13    1    6    6    0    0 -0.15678423423E+02  0.19727169008E+02  0.32172533524E+02  0.40866197174E+02  0.00000000000E+00 0.  1.
         14    1    6    6    0    0  0.12115789009E+02 -0.55494781595E+02  0.26304662663E+03  0.26910962619E+03  0.00000000000E+00 0. -1.
         -5    1    3    3    0  503  0.36947619024E+02  0.12538138566E+03  0.24292886240E+02  0.13303327683E+03  0.47000000000E+01 0.  1.
         13    1    4    4    0    0  0.74539051308E+01  0.48108641441E+02  0.35021659857E+02  0.59970982501E+02  0.00000000000E+00 0. -1.
        -14    1    4    4    0    0  0.16273990997E+02 -0.36478917327E+02  0.35943685507E+02  0.53735488461E+02  0.00000000000E+00 0.  1.
</event>
<event>
12    1  0.8421768E-002  0.1919441E+03  0.7818608E-02  0.1156760E+00
         21   -1    0    0  503  502  0.00000000000E+00  0.00000000000E+00  0.16505084957E+04  0.16505084957E+04  0.00000000000E+00 0.  1.
         21   -1    0    0  501  503 -0.00000000000E+00 -0.00000000000E+00 -0.41890431807E+02  0.41890431807E+02  0.00000000000E+00 0. -1.
          6    2    1    2  501    0 -0.82605783404E+02 -0.19539590337E+01  0.22584438599E+03  0.29639199762E+03  0.17324836555E+03 0.  0.
         24    2    3    3    0    0 -0.78600224160E+02 -0.36445401677E+02  0.23253002488E+03  0.26071999336E+03  0.79990248957E+02 0.  0.
         -6    2    1    2    0  502  0.82605783404E+02  0.19539590337E+01  0.13827736779E+04  0.13960069299E+04  0.17304557365E+03 0.  0.
        -24    2    5    5    0    0  0.72951177085E+02  0.64378129280E+02  0.10325621942E+04  0.10401134602E+04  0.78644182204E+02 0.  0.
          5    1    3    3  501    0 -0.40055592439E+01  0.34491442644E+02 -0.66856388933E+01  0.35672004260E+02  0.47000000000E+01 0. -1.
        -13    1    4    4    0    0 -0.11397662473E+02  0.24141697330E+02  0.41510349568E+02  0.49354203277E+02  0.00000000000E+00 0.  1.
         14    1    4    4    0    0 -0.67202561688E+02 -0.60587099007E+02  0.19101967531E+03  0.21136579009E+03  0.00000000000E+00 0. -1.
         -5    1    5    5    0  502  0.96546063195E+01 -0.62424170246E+02  0.35021148367E+03  0.35589346966E+03  0.47000000000E+01 0.  1.
         11    1    6    6    0    0  0.82914336450E+02  0.39632714227E+02  0.91289689732E+03  0.91751091784E+03  0.00000000000E+00 0. -1.
        -12    1    6    6    0    0 -0.99631593655E+01  0.24745415053E+02  0.11966529690E+03  0.12260254236E+03  0.00000000000E+00 0.  1.
</event>
<event>
12    1  0.8421768E-002  0.2167796E+03  0.7818608E-02  0.1136384E+00
         21   -1    0    0  501  502  0.00000000000E+00  0.00000000000E+00  0.29398287704E+03  0.29398287704E+03  0.00000000000E+00 0.  1.
         21   -1    0    0  502  503 -0.00000000000E+00 -0.00000000000E+00 -0.65991100206E+03  0.65991100206E+03  0.00000000000E+00 0.  1.
         -6    2    1    2    0  503 -0.60662402595E+02  0.11658728184E+03 -0.59822884090E+03  0.63615656122E+03  0.17188630814E+03 0.  0.
        -24    2    3    3    0    0 -0.23587337309E+02 -0.80150644600E+01 -0.19523709326E+03  0.21268903728E+03  0.80613275915E+02 0.  0.
          6    2    1    2  501    0  0.60662402595E+02 -0.11658728184E+03  0.23230071588E+03  0.31773731788E+03  0.17239738745E+03 0.  0.
         24    2    5    5    0    0  0.35824837403E+02 -0.10828642770E+03  0.24962293998E+03  0.28598895931E+03  0.80428249275E+02 0.  0.
          5    1    5    5  501    0  0.24837565193E+02 -0.83008541470E+01 -0.17322224101E+02  0.31748358573E+02  0.47000000000E+01 0. -1.
        -13    1    6    6    0    0  0.31897967639E-01  0.97944642743E+01  0.52709734403E+02  0.53612019629E+02  0.00000000000E+00 0.  1.
         14    1    6    6    0    0  0.35792939435E+02 -0.11808089197E+03  0.19691320558E+03  0.23237693968E+03  0.00000000000E+00 0. -1.
         -5    1    3    3    0  503 -0.37075065286E+02  0.12460234630E+03 -0.40299174763E+03  0.42346752394E+03  0.47000000000E+01 0.  1.
         11    1    4    4    0    0 -0.48939033681E+02 -0.87865139114E+01 -0.76252577977E+02  0.91031244595E+02  0.00000000000E+00 0. -1.
        -12    1    4    4    0    0  0.25351696372E+02  0.77144945147E+00 -0.11898451529E+03  0.12165779269E+03  0.00000000000E+00 0.  1.
</event>
<event>
12    1  0.8421768E-002  0.1842745E+03  0.7818608E-02  0.1164074E+00
         21   -1    0    0  501  502  0.00000000000E+00  0.00000000000E+00  0.14685902976E+03  0.14685902976E+03  0.00000000000E+00 0. -1.
         21   -1    0    0  502  503 -0.00000000000E+00 -0.00000000000E+00 -0.23525036991E+03  0.23525036991E+03  0.00000000000E+00 0. -1.
         -6    2    1    2    0  503  0.57521936955E+02 -0.30609197380E+02 -0.14217438484E+02  0.18482216081E+03  0.17236994916E+03 0.  0.
        -24    2    3    3    0    0 -0.19253610467E+02 -0.31193869764E+02 -0.52229124942E+02  0.99021200259E+02  0.75720258727E+02 0.  0.
          6    2    1    2  501    0 -0.57521936955E+02  0.30609197380E+02 -0.74173901667E+02  0.19728723885E+03  0.17080629593E+03 0.  0.
         24    2    5    5    0    0 -0.61565365301E+02  0.63553342145E+02 -0.47568888995E+01  0.12019977133E+03  0.81215980781E+02 0.  0.
          5    1    5    5  501    0  0.40434283466E+01 -0.32944144765E+02 -0.69417012767E+02  0.77087467520E+02  0.47000000000E+01 0. -1.
        -13    1    6    6    0    0  0.19979167045E+02  0.16542313434E+02 -0.23331180988E+01  0.26043400116E+02  0.00000000000E+00 0.  1.
         14    1    6    6    0    0 -0.81544532346E+02  0.47011028711E+02 -0.24237708007E+01  0.94156371218E+02  0.00000000000E+00 0. -1.
         -5    1    3    3    0  503  0.76775547422E+02  0.58467238415E+00  0.38011686458E+02  0.85800960549E+02  0.47000000000E+01 0.  1.
         13    1    4    4    0    0  0.19964192139E+01 -0.49765636388E+02 -0.50217600672E+02  0.70727729159E+02  0.00000000000E+00 0. -1.
        -14    1    4    4    0    0 -0.21250029681E+02  0.18571766624E+02 -0.20115242697E+01  0.28293471100E+02  0.00000000000E+00 0.  1.
</event>
<event>
12    1  0.8421768E-002  0.2270143E+03  0.7818608E-02  0.1128937E+00
         21   -1    0    0  503  502  0.00000000000E+00  0.00000000000E+00  0.96922508672E+02  0.96922508672E+02  0.00000000000E+00 0. -1.
         21   -1    0    0  501  503 -0.00000000000E+00 -0.00000000000E+00 -0.10110013927E+04  0.10110013927E+04  0.00000000000E+00 0. -1.
          6    2    1    2  501    0 -0.13378589415E+03 -0.60289469158E+02 -0.83885460901E+03  0.86877087178E+03  0.17190778643E+03 0.  0.
         24    2    3    3    0    0 -0.10374103643E+03 -0.73683208578E+02 -0.37453350595E+03  0.40326226554E+03  0.78445457929E+02 0.  0.
         -6    2    1    2    0  502  0.13378589415E+03  0.60289469158E+02 -0.75224274971E+02  0.23915302954E+03  0.17321083809E+03 0.  0.
        -24    2    5    5    0    0  0.33037816407E+02  0.67252227191E+02  0.50425762901E+01  0.11006580098E+03  0.80465480760E+02 0.  0.
          5    1    3    3  501    0 -0.30044857720E+02  0.13393739419E+02 -0.46432110306E+03  0.46550860624E+03  0.47000000000E+01 0. -1.
        -11    1    4    4    0    0 -0.16735144739E+01 -0.10846197594E+02 -0.10587208829E+01  0.11025495129E+02  0.00000000000E+00 0.  1.
         12    1    4    4    0    0 -0.10206752195E+03 -0.62837010984E+02 -0.37347478506E+03  0.39223677041E+03  0.00000000000E+00 0. -1.
         -5    1    5    5    0  502  0.10074807774E+03 -0.69627580331E+01 -0.80266851261E+02  0.12908722857E+03  0.47000000000E+01 0.  1.
         11    1    6    6    0    0  0.32139171927E+02 -0.79839991176E+01 -0.70514496427E+01  0.33858434047E+02  0.00000000000E+00 0. -1.
        -12    1    6    6    0    0  0.89864448035E+00  0.75236226309E+02  0.12094025933E+02  0.76207366930E+02  0.00000000000E+00 0.  1.
</event>
<event>
12    1  0.8421768E-002  0.2135488E+03  0.7818608E-02  0.1138859E+00
         21   -1    0    0  501  502  0.00000000000E+00  0.00000000000E+00  0.57376786429E+03  0.57376786429E+03  0.00000000000E+00 0. -1.
         21   -1    0    0  502  503 -0.00000000000E+00 -0.00000000000E+00 -0.80765862935E+02  0.80765862935E+02  0.00000000000E+00 0. -1.
         -6    2    1    2    0  503 -0.12227569115E+03 -0.23222083319E+02  0.29018782621E+03  0.36029443893E+03  0.17352953191E+03 0.  0.
        -24    2    3    3    0    0 -0.12623248768E+03 -0.30259306383E+02  0.30617222589E+03  0.34178039614E+03  0.78880547100E+02 0.  0.
          6    2    1    2  501    0  0.12227569115E+03  0.23222083319E+02  0.20281417514E+03  0.29423928829E+03  0.17306807717E+03 0.  0.
         24    2    5    5    0    0  0.11092504486E+03  0.58506615698E+02  0.20948208291E+03  0.25628686557E+03  0.77928330830E+02 0.  0.
          5    1    5    5  501    0  0.11350646290E+02 -0.35284532380E+02 -0.66679077653E+01  0.37952422722E+02  0.47000000000E+01 0. -1.
        -13    1    6    6    0    0  0.53258782641E+02  0.98336225743E+01  0.30755026581E+02  0.62282178200E+02  0.00000000000E+00 0.  1.
         14    1    6    6    0    0  0.57666262221E+02  0.48672993124E+02  0.17872705633E+03  0.19400468737E+03  0.00000000000E+00 0. -1.
         -5    1    3    3    0  503  0.39567965266E+01  0.70372230640E+01 -0.15984399683E+02  0.18514042790E+02  0.47000000000E+01 0.  1.
         11    1    4    4    0    0 -0.60381799549E+02  0.60938793993E+01  0.64015700609E+02  0.88210583307E+02  0.00000000000E+00 0. -1.
        -12    1    4    4    0    0 -0.65850688129E+02 -0.36353185782E+02  0.24215652528E+03  0.25356981283E+03  0.00000000000E+00 0.  1.
</event>
<event>
12    1  0.8421768E-002  0.2038096E+03  0.7818608E-02  0.1146824E+00
         21   -1    0    0  501  502  0.00000000000E+00  0.00000000000E+00  0.31016708720E+03  0.31016708720E+03  0.00000000000E+00 0. -1.
         21   -1    0    0  502  503 -0.00000000000E+00 -0.00000000000E+00 -0.14299749640E+03  0.14299749640E+03  0.00000000000E+00 0. -1.
         -6    2    1    2    0  503  0.81110631767E+02  0.64379491511E+02  0.24206519997E+02  0.20524203266E+03  0.17554111440E+03 0.  0.
        -24    2    3    3    0    0  0.23096054184E+02  0.77129550749E+02  0.67252014734E+02  0.13173516332E+03  0.79680138375E+02 0.  0.
          6    2    1    2  501    0 -0.81110631767E+02 -0.64379491511E+02  0.14296307080E+03  0.24792255095E+03  0.17407899972E+03 0.  0.
         24    2    5    5    0    0 -0.10137323634E+02 -0.38832516502E+01  0.12961022502E+03  0.15359655244E+03  0.81702175712E+02 0.  0.
          5    1    5    5  501    0 -0.70973308133E+02 -0.60496239861E+02  0.13352845780E+02  0.94325998511E+02  0.47000000000E+01 0. -1.
        -11    1    6    6    0    0  0.38700945348E+01 -0.22159624900E+02  0.55369548566E+00  0.22501848504E+02  0.00000000000E+00 0.  1.
         12    1    6    6    0    0 -0.14007418169E+02  0.18276373250E+02  0.12905652954E+03  0.13109470393E+03  0.00000000000E+00 0. -1.
         -5    1    3    3    0  503  0.58014577583E+02 -0.12750059238E+02 -0.43045494737E+02  0.73506869337E+02  0.47000000000E+01 0.  1.
         13    1    4    4    0    0  0.36910153254E+02  0.24285995838E+01  0.17457438400E+02  0.40902563058E+02  0.00000000000E+00 0. -1.
        -14    1    4    4    0    0 -0.13814099070E+02  0.74700951165E+02  0.49794576334E+02  0.90832600262E+02  0.00000000000E+00 0.  1.
</event>
<event>
12    1  0.8421768E-002  0.2201029E+03  0.7818608E-02  0.1134571E+00
         21   -1    0    0  503  502  0.00000000000E+00  0.00000000000E+00  0.52160821324E+03  0.52160821324E+03  0.00000000000E+00 0.  1.
         21   -1    0    0  501  503 -0.00000000000E+00 -0.00000000000E+00 -0.97410964296E+02  0.97410964296E+02  0.00000000000E+00 0.  1.
          6    2    1    2  501    0 -0.13607916808E+03 -0.41948741282E+01  0.13560938430E+03  0.25852505624E+03  0.17294554819E+03 0.  0.
         24    2    3    3    0    0 -0.13352171168E+03 -0.27946441693E+02  0.15982962797E+03  0.22418284099E+03  0.78124164795E+02 0.  0.
         -6    2    1    2    0  502  0.13607916808E+03  0.41948741282E+01  0.28858786464E+03  0.36049412130E+03  0.16774361066E+03 0.  0.
        -24    2    5    5    0    0  0.24416063514E+02 -0.33542114743E+02  0.17901060195E+03  0.19949102894E+03  0.77657307436E+02 0.  0.
          5    1    3    3  501    0 -0.25574564013E+01  0.23751567565E+02 -0.24220243666E+02  0.34342215250E+02  0.47000000000E+01 0. -1.
        -13    1    4    4    0    0 -0.41573473629E+02  0.24723566455E+01  0.10484484774E+03  0.11281360004E+03  0.00000000000E+00 0.  1.
         14    1    4    4    0    0 -0.91948238047E+02 -0.30418798339E+02  0.54984780232E+02  0.11136924095E+03  0.00000000000E+00 0. -1.
         -5    1    5    5    0  502  0.11166310456E+03  0.37736988871E+02  0.10957726269E+03  0.16100309236E+03  0.47000000000E+01 0.  1.
         11    1    6    6    0    0 -0.14748882734E+02  0.16277203377E+02  0.70374249664E+02  0.73722533241E+02  0.00000000000E+00 0. -1.
        -12    1    6    6    0    0  0.39164946248E+02 -0.49819318119E+02  0.10863635229E+03  0.12576849570E+03  0.00000000000E+00 0.  1.
</event>
<event>
12    1  0.8421768E-002  0.1805290E+03  0.7818608E-02  0.1168115E+00
         21   -1    0    0  501  502  0.00000000000E+00  0.00000000000E+00  0.89508205549E+02  0.89508205549E+02  0.00000000000E+00 0. -1.
         21   -1    0    0  502  503 -0.00000000000E+00 -0.00000000000E+00 -0.38252501696E+03  0.38252501696E+03  0.00000000000E+00 0. -1.
         -6    2    1    2    0  503 -0.45616459575E+02  0.31714225803E+02 -0.20837923329E+03  0.27570389648E+03  0.17176751778E+03 0.  0.
        -24    2    3    3    0    0 -0.90728396933E+02 -0.20912811699E+01 -0.15649206020E+03  0.19894278702E+03  0.82779539353E+02 0.  0.
          6    2    1    2  501    0  0.45616459575E+02 -0.31714225803E+02 -0.84637578126E+02  0.19632932603E+03  0.16821126932E+03 0.  0.
         24    2    5    5    0    0  0.35085237618E+02  0.10067673723E+02  0.12231074697E+02  0.90205531983E+02  0.81578838305E+02 0.  0.
          5    1    5    5  501    0  0.10531221957E+02 -0.41781899526E+02 -0.96868652823E+02  0.10612379405E+03  0.47000000000E+01 0. -1.
        -11    1    6    6    0    0 -0.21222767253E+02 -0.36248153710E+01 -0.14936944747E+02  0.26204149571E+02  0.00000000000E+00 0.  1.
         12    1    6    6    0    0  0.56308004871E+02  0.13692489094E+02  0.27168019444E+02  0.64001382412E+02  0.00000000000E+00 0. -1.
         -5    1    3    3    0  503  0.45111937358E+02  0.33805506973E+02 -0.51887173087E+02  0.76761109456E+02  0.47000000000E+01 0.  1.
         11    1    4    4    0    0 -0.55667029018E+02  0.18136471938E+01 -0.15378585835E+03  0.16356099066E+03  0.00000000000E+00 0. -1.
        -12    1    4    4    0    0 -0.35061367916E+02 -0.39049283638E+01 -0.27062018498E+01  0.35381796366E+02  0.00000000000E+00 0.  1.
</event>
<event>
12    1  0.8421768E-002  0.1886141E+03  0.7818608E-02  0.1163451E+00
         21   -1    0    0  503  502  0.00000000000E+00  0.00000000000E+00  0.12180986163E+03  0.12180986163E+03  0.00000000000E+00 0. -1.
         21   -1    0    0  501  503 -0.00000000000E+00 -0.00000000000E+00 -0.27561822646E+03  0.27561822646E+03  0.00000000000E+00 0. -1.
          6    2    1    2  501    0  0.76248553760E+01 -0.24425590759E+02 -0.47818069257E+02  0.19458120455E+03  0.18687035482E+03 0.  0.
         24    2    3    3    0    0 -0.50013404738E+02 -0.41512943060E+02  0.23020504775E+02  0.10155249818E+03  0.74554014989E+02 0.  0.
         -6    2    1    2    0  502 -0.76248553760E+01  0.24425590759E+02 -0.10599029558E+03  0.20284688354E+03  0.17105019001E+03 0.  0.
        -24    2    5    5    0    0  0.21621641535E+02 -0.50025433343E+02 -0.48910729859E+02  0.10446762052E+03  0.74506274079E+02 0.  0.
          5    1    3    3  501    0  0.57638260114E+02  0.17087352301E+02 -0.70838574032E+02  0.93028706368E+02  0.47000000000E+01 0. -1.
        -11    1    4    4    0    0  0.59675723837E+01 -0.42490771820E+02  0.92178837707E+01  0.43886751887E+02  0.00000000000E+00 0.  1.
         12    1    4    4    0    0 -0.55980977122E+02  0.97782875983E+00  0.13802621005E+02  0.57665746290E+02  0.00000000000E+00 0. -1.
         -5    1    5    5    0  502 -0.29246496911E+02  0.74451024102E+02 -0.57079565718E+02  0.98379263028E+02  0.47000000000E+01 0.  1.
         13    1    6    6    0    0  0.32496618506E+01 -0.63207236245E+02 -0.17318974873E+02  0.65617542674E+02  0.00000000000E+00 0. -1.
        -14    1    6    6    0    0  0.18371979684E+02  0.13181802902E+02 -0.31591754986E+02  0.38850077842E+02  0.00000000000E+00 0.  1.
</event>
<event>
12    1  0.8421768E-002  0.1756635E+03  0.7818608E-02  0.1175515E+00
         21   -1    0    0  503  502  0.00000000000E+00  0.00000000000E+00  0.11367346175E+03  0.11367346175E+03  0.00000000000E+00 0.  1.
         21   -1    0    0  501  503 -0.00000000000E+00 -0.00000000000E+00 -0.36890957644E+03  0.36890957644E+03  0.00000000000E+00 0.  1.
          6    2    1    2  501    0 -0.28030730674E+02 -0.23270707561E+00 -0.26713921065E+03  0.31972021803E+03  0.17341246766E+03 0.  0.
         24    2    3    3    0    0 -0.39307190691E+02 -0.63673968533E+02 -0.15013436099E+03  0.18606328013E+03  0.80497132583E+02 0.  0.
         -6    2    1    2    0  502  0.28030730674E+02  0.23270707561E+00  0.11903095953E+02  0.16286282016E+03  0.15999011995E+03 0.  0.
        -24    2    5    5    0    0  0.63476398001E+02 -0.23211874395E+02  0.38720842926E+02  0.11239178604E+03  0.81022007356E+02 0.  0.
          5    1    3    3  501    0  0.11276460018E+02  0.63441261458E+02 -0.11700484966E+03  0.13365693791E+03  0.47000000000E+01 0. -1.
        -11    1    4    4    0    0 -0.22106868331E+02 -0.40340361786E+02 -0.15018837146E+03  0.15707515824E+03  0.00000000000E+00 0.  1.
         12    1    4    4    0    0 -0.17200322360E+02 -0.23333606748E+02  0.54010471821E-01  0.28988121883E+02  0.00000000000E+00 0. -1.
         -5    1    5    5    0  502 -0.35445667328E+02  0.23444581471E+02 -0.26817746972E+02  0.50471034122E+02  0.47000000000E+01 0.  1.
         11    1    6    6    0    0  0.29233600665E+02 -0.31224150794E+02 -0.17388214414E+02  0.46172513481E+02  0.00000000000E+00 0. -1.
        -12    1    6    6    0    0  0.34242797337E+02  0.80122763995E+01  0.56109057339E+02  0.66219272558E+02  0.00000000000E+00 0.  1.
</event>
<event>
12    1  0.8421768E-002  0.2050049E+03  0.7818608E-02  0.1146713E+00
         21   -1    0    0  503  502  0.00000000000E+00  0.00000000000E+00  0.81396203506E+03  0.81396203506E+03  0.00000000000E+00 0. -1.
         21   -1    0    0  501  503 -0.00000000000E+00 -0.00000000000E+00 -0.67743859646E+02  0.67743859646E+02  0.00000000000E+00 0. -1.
          6    2    1    2  501    0  0.57841368326E+02 -0.96583100478E+02  0.14549475893E+03  0.24696530247E+03  0.16477019317E+03 0.  0.
         24    2    3    3    0    0 -0.35056116289E+00 -0.32507667739E+02  0.12955007742E+03  0.15882742975E+03  0.85942181310E+02 0.  0.
         -6    2    1    2    0  502 -0.57841368326E+02  0.96583100478E+02  0.60072341648E+03  0.63474059223E+03  0.17132739751E+03 0.  0.
        -24    2    5    5    0    0  0.24817306055E+02  0.37858983504E+02  0.17724795357E+03  0.19927011556E+03  0.79009750040E+02 0.  0.
          5    1    3    3  501    0  0.58191929489E+02 -0.64075432738E+02  0.15944681519E+02  0.88137872716E+02  0.47000000000E+01 0. -1.
        -13    1    4    4    0    0  0.38017231875E+02  0.13249044195E+01  0.74684705869E+02  0.83814501024E+02  0.00000000000E+00 0.  1.
         14    1    4    4    0    0 -0.38367793038E+02 -0.33832572159E+02  0.54865371546E+02  0.75012928728E+02  0.00000000000E+00 0. -1.
         -5    1    5    5    0  502 -0.82658674380E+02  0.58724116973E+02  0.42347546291E+03  0.43547047667E+03  0.47000000000E+01 0.  1.
         13    1    6    6    0    0 -0.73307426591E+01  0.44334532636E+02  0.15014733072E+03  0.15672750714E+03  0.00000000000E+00 0. -1.
        -14    1    6    6    0    0  0.32148048714E+02 -0.64755491318E+01  0.27100622841E+02  0.42542608418E+02  0.00000000000E+00 0.  1.
</event>
<event>
12    1  0.8421768E-002  0.1897306E+03  0.7818608E-02  0.1158813E+00
         21   -1    0    0  501  502  0.00000000000E+00  0.00000000000E+00  0.12802052301E+04  0.12802052301E+04  0.00000000000E+00 0. -1.
         21   -1    0    0  502  503 -0.00000000000E+00 -0.00000000000E+00 -0.28052312651E+02  0.28052312651E+02  0.00000000000E+00 0. -1.
         -6    2    1    2    0  503  0.23489004107E+02  0.76193170207E+02  0.61684094762E+03  0.64521985000E+03  0.17163556646E+03 0.  0.
        -24    2    3    3    0    0 -0.13176578346E+02  0.36143752774E+01  0.47213035734E+03  0.47916175369E+03  0.80636381082E+02 0.  0.
          6    2    1    2  501    0 -0.23489004107E+02 -0.76193170207E+02  0.63531196979E+03  0.66303769271E+03  0.17216431250E+03 0.  0.
         24    2    5    5    0    0 -0.39215652962E+02 -0.97697929156E+02  0.31638299535E+03  0.34296338434E+03  0.80267866882E+02 0.  0.
          5    1    5    5  501    0  0.15726648855E+02  0.21504758949E+02  0.31892897444E+03  0.32007430837E+03  0.47000000000E+01 0. -1.
        -13    1    6    6    0    0 -0.88010363203E+01 -0.40850710018E+02  0.23719921139E+03  0.24085203889E+03  0.00000000000E+00 0.  1.
         14    1    6    6    0    0 -0.30414616642E+02 -0.56847219138E+02  0.79183783955E+02  0.10211134545E+03  0.00000000000E+00 0. -1.
         -5    1    3    3    0  503  0.36665582453E+02  0.72578794930E+02  0.14471059028E+03  0.16605809630E+03  0.47000000000E+01 0.  1.
         13    1    4    4    0    0  0.69600368042E+01 -0.79767482892E+01  0.43648042255E+03  0.43660878358E+03  0.00000000000E+00 0. -1.
        -14    1    4    4    0    0 -0.20136615150E+02  0.11591123567E+02  0.35649934788E+02  0.42552970115E+02  0.00000000000E+00 0.  1.
</event>
<event>
12    1  0.8421768E-002  0.2624182E+03  0.7818608E-02  0.1105820E+00
         21   -1    0    0  501  502  0.00000000000E+00  0.00000000000E+00  0.26889642986E+03  0.26889642986E+03  0.00000000000E+00 0.  1.
         21   -1    0    0  502  503 -0.00000000000E+00 -0.00000000000E+00 -0.38460765473E+03  0.38460765473E+03  0.00000000000E+00 0. -1.
         -6    2    1    2    0  503 -0.15245065948E+03 -0.12689226786E+03 -0.24725708974E+03  0.35996081523E+03  0.17056631805E+03 0.  0.
        -24    2    3    3    0    0 -0.86411602223E+02 -0.89558688622E+02 -0.24212641440E+03  0.28378098160E+03  0.80116922449E+02 0.  0.
          6    2    1    2  501    0  0.15245065948E+03  0.12689226786E+03  0.13154586487E+03  0.29354326936E+03  0.17181526475E+03 0.  0.
         24    2    5    5    0    0  0.15066021227E+03  0.14324876204E+03  0.14974704844E+03  0.26856100191E+03  0.80511650350E+02 0.  0.
          5    1    5    5  501    0  0.17904472064E+01 -0.16356494187E+02 -0.18201183569E+02  0.24982267443E+02  0.47000000000E+01 0. -1.
        -13    1    6    6    0    0  0.21780024902E+01  0.41948026704E+02  0.39734347965E+02  0.57820403383E+02  0.00000000000E+00 0.  1.
         14    1    6    6    0    0  0.14848220978E+03  0.10130073534E+03  0.11001270048E+03  0.21074059853E+03  0.00000000000E+00 0. -1.
         -5    1    3    3    0  503 -0.66039057257E+02 -0.37333579236E+02 -0.51306753443E+01  0.76179833627E+02  0.47000000000E+01 0.  1.
         11    1    4    4    0    0 -0.89980908424E+02 -0.62484516210E+02 -0.22818638340E+03  0.25312033544E+03  0.00000000000E+00 0. -1.
        -12    1    4    4    0    0  0.35693062016E+01 -0.27074172412E+02 -0.13940031002E+02  0.30660646159E+02  0.00000000000E+00 0.  1.
</event>
<event>
12    1  0.8421768E-002  0.1741368E+03  0.7818608E-02  0.1173622E+00
         21   -1    0    0  501  502  0.00000000000E+00  0.00000000000E+00  0.42711716260E+02  0.42711716260E+02  0.00000000000E+00 0. -1.
         21   -1    0    0  502  503 -0.00000000000E+00 -0.00000000000E+00 -0.90909319304E+03  0.90909319304E+03  0.00000000000E+00 0. -1.
         -6    2    1    2    0  503 -0.12146097072E+02 -0.24440426369E+02 -0.65619188690E+03  0.67890457949E+03  0.17198480604E+03 0.  0.
        -24    2    3    3    0    0 -0.24836805000E+02  0.38247863026E+02 -0.52864062515E+03  0.53613802154E+03  0.76832946551E+02 0.  0.
          6    2    1    2  501    0  0.12146097072E+02  0.24440426369E+02 -0.21018958988E+03  0.27290032981E+03  0.17190132111E+03 0.  0.
         24    2    5    5    0    0 -0.36244172946E+02  0.55764831581E+02 -0.84008550995E+02  0.13409621903E+03  0.80628796372E+02 0.  0.
          5    1    5    5  501    0  0.48390270018E+02 -0.31324405212E+02 -0.12618103888E+03  0.13880411078E+03  0.47000000000E+01 0. -1.
        -11    1    6    6    0    0  0.73579928133E+01  0.17677503227E+00 -0.58534730358E+02  0.58995643617E+02  0.00000000000E+00 0.  1.
         12    1    6    6    0    0 -0.43602165759E+02  0.55588056548E+02 -0.25473820637E+02  0.75100575414E+02  0.00000000000E+00 0. -1.
         -5    1    3    3    0  503  0.12690707928E+02 -0.62688289395E+02 -0.12755126175E+03  0.14276655795E+03  0.47000000000E+01 0.  1.
         11    1    4    4    0    0 -0.24227936197E+02  0.11537472680E+02 -0.47911106316E+03  0.47986197704E+03  0.00000000000E+00 0. -1.
        -12    1    4    4    0    0 -0.60886880262E+00  0.26710390346E+02 -0.49529561988E+02  0.56276044498E+02  0.00000000000E+00 0.  1.
</event>
<event>
12    1  0.8421768E-002  0.2288555E+03  0.7818608E-02  0.1127532E+00
         21   -1    0    0  503  502  0.00000000000E+00  0.00000000000E+00  0.22674521044E+03  0.22674521044E+03  0.00000000000E+00 0.  1.
         21   -1    0    0  501  503 -0.00000000000E+00 -0.00000000000E+00 -0.29567814244E+03  0.29567814244E+03  0.00000000000E+00 0. -1.
          6    2    1    2  501    0 -0.55284085211E+02 -0.13987538904E+03 -0.15707400248E+03  0.27718128210E+03  0.17185972872E+03 0.  0.
         24    2    3    3    0    0  0.56939637773E+01 -0.13790464841E+02 -0.27291388503E+02  0.86180372526E+02  0.80371876787E+02 0.  0.
         -6    2    1    2    0  502  0.55284085211E+02  0.13987538904E+03  0.88141070481E+02  0.24524207078E+03  0.17249165324E+03 0.  0.
        -24    2    5    5    0    0 -0.36953173152E+02  0.51518078281E+02  0.46205037733E+02  0.11072275233E+03  0.78134326483E+02 0.  0.
          5    1    3    3  501    0 -0.60978048988E+02 -0.12608492419E+03 -0.12978261398E+03  0.19100090957E+03  0.47000000000E+01 0. -1.
        -13    1    4    4    0    0 -0.22206977622E+02 -0.37165434405E+02 -0.52082522699E+01  0.43606711196E+02  0.00000000000E+00 0.  1.
         14    1    4    4    0    0  0.27900941400E+02  0.23374969564E+02 -0.22083136233E+02  0.42573661330E+02  0.00000000000E+00 0. -1.
         -5    1    5    5    0  502  0.92237258363E+02  0.88357310754E+02  0.41936032748E+02  0.13451931845E+03  0.47000000000E+01 0.  1.
         11    1    6    6    0    0 -0.41609338412E+02  0.68511465932E+02  0.47294304535E+02  0.93069378684E+02  0.00000000000E+00 0. -1.
        -12    1    6    6    0    0  0.46561652609E+01 -0.16993387650E+02 -0.10892668023E+01  0.17653373642E+02  0.00000000000E+00 0.  1.
</event>
<event>
12    1  0.8421768E-002  0.1894958E+03  0.7818608E-02  0.1158920E+00
         21   -1    0    0  503  502  0.00000000000E+00  0.00000000000E+00  0.86465615464E+03  0.86465615464E+03  0.00000000000E+00 0.  1.
         21   -1    0    0  501  503 -0.00000000000E+00 -0.00000000000E+00 -0.77649635645E+02  0.77649635645E+02  0.00000000000E+00 0.  1.
          6    2    1    2  501    0  0.71552608134E+02  0.32760868744E+02  0.72138621478E+02  0.20274863847E+03  0.17236583026E+03 0.  0.
         24    2    3    3    0    0  0.42509738368E+02 -0.22152827252E+02 -0.16528630167E+02  0.94383635785E+02  0.79606843157E+02 0.  0.
         -6    2    1    2    0  502 -0.71552608134E+02 -0.32760868744E+02  0.71486789751E+03  0.73955715182E+03  0.17238219065E+03 0.  0.
        -24    2    5    5    0    0 -0.28489079541E+02 -0.55473230771E+02  0.21226480563E+03  0.23457965048E+03  0.77989471883E+02 0.  0.
          5    1    3    3  501    0  0.29042869766E+02  0.54913695996E+02  0.88667251645E+02  0.10836500268E+03  0.47000000000E+01 0. -1.
        -11    1    4    4    0    0  0.61700657554E+02 -0.28859922333E+01  0.14481049524E+01  0.61785088020E+02  0.00000000000E+00 0.  1.
         12    1    4    4    0    0 -0.19190919186E+02 -0.19266835018E+02 -0.17976735119E+02  0.32598547765E+02  0.00000000000E+00 0. -1.
         -5    1    5    5    0  502 -0.43063528593E+02  0.22712362027E+02  0.50260309188E+03  0.50497750133E+03  0.47000000000E+01 0.  1.
         11    1    6    6    0    0 -0.24399818782E+02 -0.61359793506E+01  0.11253348519E+02  0.27561553876E+02  0.00000000000E+00 0. -1.
        -12    1    6    6    0    0 -0.40892607595E+01 -0.49337251420E+02  0.20101145711E+03  0.20701809661E+03  0.00000000000E+00 0.  1.
</event>
<event>
12    1  0.8421768E-002  0.1773088E+03  0.7818608E-02  0.1170729E+00
         21   -1    0    0  503  502  0.00000000000E+00  0.00000000000E+00  0.33296898255E+03  0.33296898255E+03  0.00000000000E+00 0.  1.
         21   -1    0    0  501  503 -0.00000000000E+00 -0.00000000000E+00 -0.10158592786E+03  0.10158592786E+03  0.00000000000E+00 0.  1.
          6    2    1    2  501    0  0.46173186410E+01 -0.37975720491E+02  0.55838445493E+02  0.18589339759E+03  0.17313274761E+03 0.  0.
         24    2    3    3    0    0  0.47550698498E+02 -0.73206409969E+02  0.19238979015E+02  0.11921440890E+03  0.78877687512E+02 0.  0.
         -6    2    1    2    0  502 -0.46173186410E+01  0.37975720491E+02  0.17554460919E+03  0.24866151282E+03  0.17191033466E+03 0.  0.
        -24    2    5    5    0    0  0.33828550108E+02 -0.35132756160E+02  0.85859760628E+02  0.12664349676E+03  0.79296881514E+02 0.  0.
          5    1    3    3  501    0 -0.42933379857E+02  0.35230689479E+02  0.36599466478E+02  0.66678988696E+02  0.47000000000E+01 0. -1.
        -13    1    4    4    0    0  0.25992012138E+02 -0.14495193862E+02 -0.27979238305E+02  0.40847681895E+02  0.00000000000E+00 0.  1.
         14    1    4    4    0    0  0.21558686360E+02 -0.58711216108E+02  0.47218217320E+02  0.78366727004E+02  0.00000000000E+00 0. -1.
         -5    1    5    5    0  502 -0.38445868749E+02  0.73108476651E+02  0.89684848566E+02  0.12201801606E+03  0.47000000000E+01 0.  1.
         13    1    6    6    0    0  0.40187481787E+02 -0.68145224730E+00  0.76073051232E+01  0.40906835135E+02  0.00000000000E+00 0. -1.
        -14    1    6    6    0    0 -0.63589316795E+01 -0.34451303913E+02  0.78252455504E+02  0.85736661621E+02  0.00000000000E+00 0.  1.
</event>
<event>
12    1  0.8421768E-002  0.1814723E+03  0.7818608E-02  0.1166771E+00
         21   -1    0    0  503  502  0.00000000000E+00  0.00000000000E+00  0.10062474717E+03  0.10062474717E+03  0.00000000000E+00 0. -1.
         21   -1    0    0  501  503 -0.00000000000E+00 -0.00000000000E+00 -0.10258963117E+04  0.10258963117E+04  0.00000000000E+00 0.  1.
          6    2    1    2  501    0 -0.31162654942E+02  0.47373676781E+02 -0.92775639760E+03  0.94503176578E+03  0.17069777017E+03 0.  0.
         24    2    3    3    0    0 -0.11122605797E+01  0.28772741626E+02 -0.23217712563E+03  0.24853938637E+03  0.83883854983E+02 0.  0.
         -6    2    1    2    0  502  0.31162654942E+02 -0.47373676781E+02  0.24848330929E+01  0.18148929305E+03  0.17238565132E+03 0.  0.
        -24    2    5    5    0    0  0.58607635473E+02  0.20910213610E+02  0.25442315202E+02  0.10425553989E+03  0.79685721589E+02 0.  0.
          5    1    3    3  501    0 -0.30050394362E+02  0.18600935155E+02 -0.69557927197E+03  0.69649237941E+03  0.47000000000E+01 0. -1.
        -11    1    4    4    0    0 -0.35694366103E+02  0.78216804861E+01 -0.17333131460E+03  0.17714121790E+03  0.00000000000E+00 0.  1.
         12    1    4    4    0    0  0.34582105524E+02  0.20951061140E+02 -0.58845811028E+02  0.71398168470E+02  0.00000000000E+00 0. -1.
         -5    1    5    5    0  502 -0.27444980531E+02 -0.68283890391E+02 -0.22957482109E+02  0.77233753166E+02  0.47000000000E+01 0.  1.
         11    1    6    6    0    0  0.23936059268E+02 -0.20868351222E+02 -0.16372459211E+02  0.35727866388E+02  0.00000000000E+00 0. -1.
        -12    1    6    6    0    0  0.34671576205E+02  0.41778564832E+02  0.41814774413E+02  0.68527673498E+02  0.00000000000E+00 0.  1.
</event>
<event>
12    1  0.8421768E-002  0.3008774E+03  0.7818608E-02  0.1084892E+00
         21   -1    0    0  503  502  0.00000000000E+00  0.00000000000E+00  0.37725484456E+03  0.37725484456E+03  0.00000000000E+00 0.  1.
         21   -1    0    0  501  503 -0.00000000000E+00 -0.00000000000E+00 -0.31399040236E+03  0.31399040236E+03  0.00000000000E+00 0. -1.
          6    2    1    2  501    0  0.12845889757E+03  0.21112664596E+03 -0.13680139056E+03  0.33051749828E+03  0.17161307414E+03 0.  0.
         24    2    3    3    0    0  0.11859294108E+03  0.23466737150E+03 -0.12238244231E+03  0.30082745071E+03  0.79916406297E+02 0.  0.
         -6    2    1    2    0  502 -0.12845889757E+03 -0.21112664596E+03  0.20006583276E+03  0.36072774863E+03  0.17035851079E+03 0.  0.
        -24    2    5    5    0    0 -0.21856848658E+02 -0.12703543785E+03  0.51100162483E+02  0.15911378822E+03  0.78040032620E+02 0.  0.
          5    1    3    3  501    0  0.98659564924E+01 -0.23540725539E+02 -0.14418948248E+02  0.29690047575E+02  0.47000000000E+01 0. -1.
        -11    1    4    4    0    0  0.87650648267E+02  0.89941985759E+02 -0.42085194790E+02  0.13245135169E+03  0.00000000000E+00 0.  1.
         12    1    4    4    0    0  0.30942292809E+02  0.14472538574E+03 -0.80297247523E+02  0.16837609902E+03  0.00000000000E+00 0. -1.
         -5    1    5    5    0  502 -0.10660204891E+03 -0.84091208103E+02  0.14896567028E+03  0.20161396041E+03  0.47000000000E+01 0.  1.
         13    1    6    6    0    0  0.28875125518E+02 -0.51414342598E+02  0.12891114519E+02  0.60360486512E+02  0.00000000000E+00 0. -1.
        -14    1    6    6    0    0 -0.50731974176E+02 -0.75621095257E+02  0.38209047964E+02  0.98753301706E+02  0.00000000000E+00 0.  1.
</event>
<event>
12    1  0.8421768E-002  0.1939933E+03  0.7818608E-02  0.1155173E+00
         21   -1    0    0  501  502  0.00000000000E+00  0.00000000000E+00  0.82509853651E+03  0.82509853651E+03  0.00000000000E+00 0.  1.
         21   -1    0    0  502  503 -0.00000000000E+00 -0.00000000000E+00 -0.50138219150E+02  0.50138219150E+02  0.00000000000E+00 0.  1.
         -6    2    1    2    0  503 -0.16626200486E+02 -0.90043122990E+02  0.52411354648E+03  0.55886350773E+03  0.17102402208E+03 0.  0.
        -24    2    3    3    0    0 -0.18247846672E+01 -0.44885887404E+02  0.11847755993E+03  0.15042636273E+03  0.81074568569E+02 0.  0.
          6    2    1    2  501    0  0.16626200486E+02  0.90043122990E+02  0.25084677089E+03  0.31637324794E+03  0.16965769952E+03 0.  0.
         24    2    5    5    0    0 -0.15952750415E+02  0.10266362250E+03  0.24848689962E+03  0.28104161845E+03  0.80276661528E+02 0.  0.
          5    1    5    5  501    0  0.32578950901E+02 -0.12620499510E+02  0.23598712626E+01  0.35331629485E+02  0.47000000000E+01 0. -1.
        -13    1    6    6    0    0 -0.43107035057E+02  0.50672230602E+02  0.17364844919E+03  0.18595611130E+03  0.00000000000E+00 0.  1.
         14    1    6    6    0    0  0.27154284642E+02  0.51991391898E+02  0.74838450437E+02  0.95085507149E+02  0.00000000000E+00 0. -1.
         -5    1    3    3    0  503 -0.14801415819E+02 -0.45157235586E+02  0.40563598655E+03  0.40843714500E+03  0.47000000000E+01 0.  1.
         13    1    4    4    0    0 -0.17016185582E+02  0.19682869210E+02  0.39347999692E+02  0.47172354106E+02  0.00000000000E+00 0. -1.
        -14    1    4    4    0    0  0.15191400915E+02 -0.64568756614E+02  0.79129560238E+02  0.10325400862E+03  0.00000000000E+00 0.  1.
</event>
<event>
12    1  0.8421768E-002  0.1826505E+03  0.7818608E-02  0.1165832E+00
         21   -1    0    0  501  502  0.00000000000E+00  0.00000000000E+00  0.17909630761E+03  0.17909630761E+03  0.00000000000E+00 0.  1.
         21   -1    0    0  502  503 -0.00000000000E+00 -0.00000000000E+00 -0.22095354838E+03  0.22095354838E+03  0.00000000000E+00 0.  1.
         -6    2    1    2    0  503 -0.60022790899E+02 -0.11967642701E+02 -0.10277697749E+03  0.20750785523E+03  0.16955955585E+03 0.  0.
        -24    2    3    3    0    0  0.56628391144E+01 -0.40021389947E+02 -0.10156480789E+03  0.13591753410E+03  0.80773674379E+02 0.  0.
          6    2    1    2  501    0  0.60022790899E+02  0.11967642701E+02  0.60919736726E+02  0.19254200076E+03  0.17209081276E+03 0.  0.
         24    2    5    5    0    0 -0.27922801332E+01  0.17750540073E+02 -0.13767973484E+02  0.94666982971E+02  0.91920629185E+02 0.  0.
          5    1    5    5  501    0  0.62815071032E+02 -0.57828973724E+01  0.74687710210E+02  0.97875017789E+02  0.47000000000E+01 0. -1.
        -11    1    6    6    0    0  0.51779868683E+01 -0.11296166122E+02  0.35115284298E+02  0.37249135673E+02  0.00000000000E+00 0.  1.
         12    1    6    6    0    0 -0.79702670015E+01  0.29046706195E+02 -0.48883257782E+02  0.57417847298E+02  0.00000000000E+00 0. -1.
         -5    1    3    3    0  503 -0.65685630013E+02  0.28053747246E+02 -0.12121695994E+01  0.71590321133E+02  0.47000000000E+01 0.  1.
         11    1    4    4    0    0  0.26048120790E+02 -0.48772745332E+02 -0.34249395745E+02  0.65040805598E+02  0.00000000000E+00 0. -1.
        -12    1    4    4    0    0 -0.20385281676E+02  0.87513553854E+01 -0.67315412150E+02  0.70876728501E+02  0.00000000000E+00 0.  1.
</event>
<event>
12    1  0.8421768E-002  0.1760090E+03  0.7818608E-02  0.1172019E+00
         21   -1    0    0  503  502  0.00000000000E+00  0.00000000000E+00  0.11249327866E+03  0.11249327866E+03  0.00000000000E+00 0. -1.
         21   -1    0    0  501  503 -0.00000000000E+00 -0.00000000000E+00 -0.31917730680E+03  0.31917730680E+03  0.00000000000E+00 0. -1.
          6    2    1    2  501    0 -0.32059555146E+02 -0.83713235583E+01 -0.18466046690E+03  0.25428904360E+03  0.17165528108E+03 0.  0.
         24    2    3    3    0    0 -0.40309638590E+02  0.55784345875E+02 -0.13788281539E+03  0.17432497367E+03  0.81490891876E+02 0.  0.
         -6    2    1    2    0  502  0.32059555146E+02  0.83713235583E+01 -0.22023561228E+02  0.17738154186E+03  0.17286202594E+03 0.  0.
        -24    2    5    5    0    0  0.17133671411E+02  0.10987572526E+02  0.54965855456E+02  0.98774372692E+02  0.79503723112E+02 0.  0.
          5    1    3    3  501    0  0.82500834437E+01 -0.64155669434E+02 -0.46777651513E+02  0.79964069921E+02  0.47000000000E+01 0. -1.
        -11    1    4    4    0    0 -0.48320971744E+02  0.28164575838E+01 -0.91286143488E+02  0.10332477310E+03  0.00000000000E+00 0.  1.
         12    1    4    4    0    0  0.80113331545E+01  0.52967888292E+02 -0.46596671901E+02  0.71000200572E+02  0.00000000000E+00 0. -1.
         -5    1    5    5    0  502  0.14925883735E+02 -0.26162489675E+01 -0.76989416684E+02  0.78607169172E+02  0.47000000000E+01 0.  1.
         11    1    6    6    0    0  0.14917097815E+02  0.45261374763E+02  0.29978950180E+02  0.56301414783E+02  0.00000000000E+00 0. -1.
        -12    1    6    6    0    0  0.22165735962E+01 -0.34273802237E+02  0.24986905276E+02  0.42472957910E+02  0.00000000000E+00 0.  1.
</event>
<event>
12    1  0.8421768E-002  0.1787107E+03  0.7818608E-02  0.1169236E+00
         21   -1    0    0  503  502  0.00000000000E+00  0.00000000000E+00  0.64517019170E+02  0.64517019170E+02  0.00000000000E+00 0. -1.
         21   -1    0    0  501  503 -0.00000000000E+00 -0.00000000000E+00 -0.55029616736E+03  0.55029616736E+03  0.00000000000E+00 0. -1.
          6    2    1    2  501    0 -0.45398367411E+02 -0.77942521786E+01 -0.34252787200E+03  0.38634551699E+03  0.17267238711E+03 0.  0.
         24    2    3    3    0    0 -0.27767680706E+02 -0.94223813920E+01 -0.67377986552E+02  0.11058648925E+03  0.82642320692E+02 0.  0.
         -6    2    1    2    0  502  0.45398367411E+02  0.77942521786E+01 -0.14325127619E+03  0.22846766954E+03  0.17191505392E+03 0.  0.
        -24    2    5    5    0    0  0.68625244945E+02 -0.17647726387E+02 -0.31521016459E+02  0.11145261473E+03  0.80045264450E+02 0.  0.
          5    1    3    3  501    0 -0.17630686705E+02  0.16281292134E+01 -0.27514988545E+03  0.27575902774E+03  0.47000000000E+01 0. -1.
        -11    1    4    4    0    0 -0.12737436084E+02  0.32500273649E+02 -0.53606926820E+02  0.63970404629E+02  0.00000000000E+00 0.  1.
         12    1    4    4    0    0 -0.15030244622E+02 -0.41922655041E+02 -0.13771059732E+02  0.46616084619E+02  0.00000000000E+00 0. -1.
         -5    1    5    5    0  502 -0.23226877534E+02  0.25441978566E+02 -0.11173025973E+03  0.11701505481E+03  0.47000000000E+01 0.  1.
         13    1    6    6    0    0  0.50620429305E+02 -0.49185099002E+02 -0.20213102090E+02  0.73417786149E+02  0.00000000000E+00 0. -1.
        -14    1    6    6    0    0  0.18004815640E+02  0.31537372615E+02 -0.11307914369E+02  0.38034828579E+02  0.00000000000E+00 0.  1.
</event>
<event>
12    1  0.8421768E-002  0.2007563E+03  0.7818608E-02  0.1149291E+00
         21   -1    0    0  503  502  0.00000000000E+00  0.00000000000E+00  0.15053764962E+03  0.15053764962E+03  0.00000000000E+00 0. -1.
         21   -1    0    0  501  503 -0.00000000000E+00 -0.00000000000E+00 -0.26768923824E+03  0.26768923824E+03  0.00000000000E+00 0. -1.
          6    2    1    2  501    0 -0.70032281046E+02 -0.73398667134E+02 -0.72195344709E+02  0.21249852452E+03  0.17219631355E+03 0.  0.
         24    2    3    3    0    0 -0.40794492931E+02  0.25572091091E+02 -0.55540409901E+02  0.10785849350E+03  0.78934118051E+02 0.  0.
         -6    2    1    2    0  502  0.70032281046E+02  0.73398667134E+02 -0.44956243908E+02  0.20572836334E+03  0.17323744079E+03 0.  0.
        -24    2    5    5    0    0 -0.70243726369E+01  0.83861414279E+02  0.10989370026E+02  0.10981591017E+03  0.69689950908E+02 0.  0.
          5    1    3    3  501    0 -0.29237788114E+02 -0.98970758225E+02 -0.16654934808E+02  0.10464003102E+03  0.47000000000E+01 0. -1.
        -11    1    4    4    0    0 -0.53245257710E+02  0.13264921964E+01 -0.60011690346E+02  0.80238519605E+02  0.00000000000E+00 0.  1.
         12    1    4    4    0    0  0.12450764778E+02  0.24245598894E+02  0.44712804456E+01  0.27619973898E+02  0.00000000000E+00 0. -1.
         -5    1    5    5    0  502  0.77056653683E+02 -0.10462747145E+02 -0.55945613933E+02  0.95912453169E+02  0.47000000000E+01 0.  1.
         13    1    6    6    0    0  0.34652103447E+01  0.45287116559E+02 -0.28503476848E+02  0.53622558698E+02  0.00000000000E+00 0. -1.
        -14    1    6    6    0    0 -0.10489582982E+02  0.38574297720E+02  0.39492846873E+02  0.56193351474E+02  0.00000000000E+00 0.  1.
</event>
<event>
12    1  0.8421768E-002  0.1929646E+03  0.7818608E-02  0.1156011E+00
         21   -1    0    0  501  502  0.00000000000E+00  0.00000000000E+00  0.34362424437E+03  0.34362424437E+03  0.00000000000E+00 0.  1.
         21   -1    0    0  502  503 -0.00000000000E+00 -0.00000000000E+00 -0.11103172781E+03  0.11103172781E+03  0.00000000000E+00 0.  1.
         -6    2    1    2    0  503  0.80641639238E+02 -0.33777941682E+02  0.15443457714E+03  0.24646378602E+03  0.17102729572E+03 0.  0.
        -24    2    3    3    0    0 -0.90467835670E+01  0.12309479535E+02  0.10900323081E+03  0.13576527289E+03  0.79480421592E+02 0.  0.
          6    2    1    2  501    0 -0.80641639238E+02  0.33777941682E+02  0.78157939431E+02  0.20819218616E+03  0.17202121834E+03 0.  0.
         24    2    5    5    0    0 -0.87698090759E+02  0.76285396000E+02  0.29642657386E+02  0.14313452118E+03  0.78092171513E+02 0.  0.
          5    1    5    5  501    0  0.70564515203E+01 -0.42507454318E+02  0.48515282046E+02  0.65057664979E+02  0.47000000000E+01 0. -1.
        -11    1    6    6    0    0 -0.40575104316E+02  0.63264575680E+02  0.49899925947E+02  0.90215011144E+02  0.00000000000E+00 0.  1.
         12    1    6    6    0    0 -0.47122986443E+02  0.13020820319E+02 -0.20257268561E+02  0.52919510038E+02  0.00000000000E+00 0. -1.
         -5    1    3    3    0  503  0.89688422805E+02 -0.46087421217E+02  0.45431346325E+02  0.11069851313E+03  0.47000000000E+01 0.  1.
         11    1    4    4    0    0 -0.30902885033E+02 -0.87653963948E+01  0.98552368435E+02  0.10365514846E+03  0.00000000000E+00 0. -1.
        -12    1    4    4    0    0  0.21856101466E+02  0.21074875930E+02  0.10450862376E+02  0.32110124434E+02  0.00000000000E+00 0.  1.
</event>
<event>
12    1  0.8421768E-002  0.1798541E+03  0.7818608E-02  0.1168521E+00
         21   -1    0    0  501  502  0.00000000000E+00  0.00000000000E+00  0.91632248955E+02  0.91632248955E+02  0.00000000000E+00 0. -1.
         21   -1    0    0  502  503 -0.00000000000E+00 -0.00000000000E+00 -0.66077006001E+03  0.66077006001E+03  0.00000000000E+00 0. -1.
         -6    2    1    2    0  503  0.37072399445E+02 -0.34143163952E+02 -0.54223865016E+03  0.57054781291E+03  0.17018206323E+03 0.  0.
        -24    2    3    3    0    0  0.40528547568E+02 -0.57907359097E+02 -0.19650865388E+03  0.22395294529E+03  0.80891564771E+02 0.  0.
          6    2    1    2  501    0 -0.37072399445E+02  0.34143163952E+02 -0.26899160893E+02  0.18185449605E+03  0.17264812316E+03 0.  0.
         24    2    5    5    0    0  0.27194055441E+02  0.70465279019E+02 -0.27935300435E+02  0.10787722352E+03  0.71779120532E+02 0.  0.
          5    1    5    5  501    0 -0.64266454886E+02 -0.36322115067E+02  0.10361395425E+01  0.73977272535E+02  0.47000000000E+01 0. -1.
        -13    1    6    6    0    0 -0.11241083862E+02  0.58013417785E+02 -0.32122464746E+02  0.67258987138E+02  0.00000000000E+00 0.  1.
         14    1    6    6    0    0  0.38435139303E+02  0.12451861234E+02  0.41871643112E+01  0.40618236377E+02  0.00000000000E+00 0. -1.
         -5    1    3    3    0  503 -0.34561481229E+01  0.23764195145E+02 -0.34572999628E+03  0.34659486762E+03  0.47000000000E+01 0.  1.
         13    1    4    4    0    0  0.48473943413E+02 -0.26966197061E+02 -0.17926540567E+03  0.18765123139E+03  0.00000000000E+00 0. -1.
        -14    1    4    4    0    0 -0.79453958451E+01 -0.30941162036E+02 -0.17243248209E+02  0.36301713900E+02  0.00000000000E+00 0.  1.
</event>
<event>
12    1  0.8421768E-002  0.2280324E+03  0.7818608E-02  0.1128033E+00
         21   -1    0    0  501  502  0.00000000000E+00  0.00000000000E+00  0.38769244743E+03  0.38769244743E+03  0.00000000000E+00 0.  1.
         21   -1    0    0  502  503 -0.00000000000E+00 -0.00000000000E+00 -0.13540702904E+03  0.13540702904E+03  0.00000000000E+00 0. -1.
         -6    2    1    2    0  503  0.13289757597E+03 -0.67483048130E+02  0.10065875049E+03  0.24925755207E+03  0.17257292873E+03 0.  0.
        -24    2    3    3    0    0  0.12775211295E+03 -0.33300132356E+02  0.13477564169E+02  0.15535549262E+03  0.80772415919E+02 0.  0.
          6    2    1    2  501    0 -0.13289757597E+03  0.67483048130E+02  0.15162666789E+03  0.27384192440E+03  0.17257759315E+03 0.  0.
         24    2    5    5    0    0  0.53042109699E+01  0.43716150892E+02  0.38956208179E+02  0.93893815739E+02  0.73206734496E+02 0.  0.
          5    1    5    5  501    0 -0.13820178694E+03  0.23766897238E+02  0.11267045972E+03  0.17994810866E+03  0.47000000000E+01 0. -1.
        -13    1    6    6    0    0  0.17358758294E+02  0.44541960936E+02  0.55600518615E+02  0.73326192072E+02  0.00000000000E+00 0.  1.
         14    1    6    6    0    0 -0.12054547324E+02 -0.82581004406E+00 -0.16644310436E+02  0.20567623667E+02  0.00000000000E+00 0. -1.
         -5    1    3    3    0  503  0.51454630236E+01 -0.34182915774E+02  0.87181186325E+02  0.93902059453E+02  0.47000000000E+01 0.  1.
         13    1    4    4    0    0 -0.59111366850E+01  0.62796812773E+01 -0.10837895047E+02  0.13850483851E+02  0.00000000000E+00 0. -1.
        -14    1    4    4    0    0  0.13366324963E+03 -0.39579813633E+02  0.24315459215E+02  0.14150500877E+03  0.00000000000E+00 0.  1.
</event>
<event>
12    1  0.8421768E-002  0.2158782E+03  0.7818608E-02  0.1137044E+00
         21   -1    0    0  501  502  0.00000000000E+00  0.00000000000E+00  0.63931357974E+03  0.63931357974E+03  0.00000000000E+00 0. -1.
         21   -1    0    0  502  503 -0.00000000000E+00 -0.00000000000E+00 -0.75028892314E+02  0.75028892314E+02  0.00000000000E+00 0. -1.
         -6    2    1    2    0  503 -0.29805544664E+02 -0.12554529976E+03  0.34342429653E+03  0.40550157911E+03  0.17274631813E+03 0.  0.
        -24    2    3    3    0    0 -0.31506602634E+02 -0.99569076298E+02  0.35406040979E+03  0.37699062175E+03  0.76527695256E+02 0.  0.
          6    2    1    2  501    0  0.29805544664E+02  0.12554529976E+03  0.22086039090E+03  0.30884089294E+03  0.17307048305E+03 0.  0.
         24    2    5    5    0    0  0.34641744166E+02  0.43740671143E+02  0.20288659649E+03  0.22481391291E+03  0.79151927641E+02 0.  0.
          5    1    5    5  501    0 -0.48361995024E+01  0.81804628619E+02  0.17973794406E+02  0.84026980039E+02  0.47000000000E+01 0. -1.
        -13    1    6    6    0    0 -0.20395832220E+02 -0.36012090608E+01  0.23672123111E+02  0.31453586302E+02  0.00000000000E+00 0.  1.
         14    1    6    6    0    0  0.55037576386E+02  0.47341880204E+02  0.17921447338E+03  0.19336032660E+03  0.00000000000E+00 0. -1.
         -5    1    3    3    0  503  0.17010579706E+01 -0.25976223464E+02 -0.10636113269E+02  0.28510957353E+02  0.47000000000E+01 0.  1.
         11    1    4    4    0    0 -0.40372805164E+02 -0.69834555591E+02  0.32362750635E+03  0.33352899637E+03  0.00000000000E+00 0. -1.
        -12    1    4    4    0    0  0.88662025302E+01 -0.29734520708E+02  0.30432903441E+02  0.43461625383E+02  0.00000000000E+00 0.  1.
</event>
<event>
12    1  0.8421768E-002  0.2058348E+03  0.7818608E-02  0.1144956E+00
         21   -1    0    0  503  502  0.00000000000E+00  0.00000000000E+00  0.59093708042E+03  0.59093708042E+03  0.00000000000E+00 0. -1.
         21   -1    0    0  501  503 -0.00000000000E+00 -0.00000000000E+00 -0.79941458496E+02  0.79941458496E+02  0.00000000000E+00 0. -1.
          6    2    1    2  501    0 -0.73436689828E+02  0.84864848088E+02  0.14709404621E+03  0.25279682691E+03  0.17226313422E+03 0.  0.
         24    2    3    3    0    0 -0.78939361370E+01 -0.54832801073E+01  0.19912724276E+02  0.83516540167E+02  0.80536422226E+02 0.  0.
         -6    2    1    2    0  502  0.73436689828E+02 -0.84864848088E+02  0.36390157571E+03  0.41808171201E+03  0.17254846060E+03 0.  0.
        -24    2    5    5    0    0  0.77050256909E+02  0.74614608161E+00  0.27133708535E+03  0.29185740743E+03  0.74964215212E+02 0.  0.
          5    1    3    3  501    0 -0.65542753691E+02  0.90348128195E+02  0.12718132194E+03  0.16928028674E+03  0.47000000000E+01 0. -1.
        -13    1    4    4    0    0 -0.15308284647E+02 -0.13218235347E+02  0.48736045901E+02  0.52766158611E+02  0.00000000000E+00 0.  1.
         14    1    4    4    0    0  0.74143485103E+01  0.77349552395E+01 -0.28823321625E+02  0.30750381556E+02  0.00000000000E+00 0. -1.
         -5    1    5    5    0  502 -0.36135670808E+01 -0.85610994170E+02  0.92564490360E+02  0.12622430457E+03  0.47000000000E+01 0.  1.
         13    1    6    6    0    0  0.63880378422E+02 -0.11238193712E+02  0.97455987232E+02  0.11706694321E+03  0.00000000000E+00 0. -1.
        -14    1    6    6    0    0  0.13169878487E+02  0.11984339794E+02  0.17388109812E+03  0.17479046422E+03  0.00000000000E+00 0.  1.
</event>
<event>
12    1  0.8421768E-002  0.2012729E+03  0.7818608E-02  0.1149714E+00
         21   -1    0    0  503  502  0.00000000000E+00  0.00000000000E+00  0.12128642596E+03  0.12128642596E+03  0.00000000000E+00 0.  1.
         21   -1    0    0  501  503 -0.00000000000E+00 -0.00000000000E+00 -0.39313496080E+03  0.39313496080E+03  0.00000000000E+00 0. -1.
          6    2    1    2  501    0 -0.90626534738E+02 -0.17965733550E+02 -0.24369696582E+03  0.31606802271E+03  0.17881512085E+03 0.  0.
         24    2    3    3    0    0 -0.12551326142E+03 -0.71405677425E+01 -0.23436270393E+03  0.27807478175E+03  0.81210471949E+02 0.  0.
         -6    2    1    2    0  502  0.90626534738E+02  0.17965733550E+02 -0.28151569011E+02  0.19835336405E+03  0.17325013655E+03 0.  0.
        -24    2    5    5    0    0  0.98964283371E+02  0.52968161693E+02 -0.58271556154E+02  0.15119414805E+03  0.82852523274E+02 0.  0.
          5    1    3    3  501    0  0.34886726680E+02 -0.10825165808E+02 -0.93342618943E+01  0.37993240955E+02  0.47000000000E+01 0. -1.
        -11    1    4    4    0    0 -0.18589589448E+02  0.20151990693E+02 -0.12187589138E+02  0.30003548020E+02  0.00000000000E+00 0.  1.
         12    1    4    4    0    0 -0.10692367197E+03 -0.27292558436E+02 -0.22217511479E+03  0.24807123373E+03  0.00000000000E+00 0. -1.
         -5    1    5    5    0  502 -0.83377486337E+01 -0.35002428143E+02  0.30119987143E+02  0.47159216000E+02  0.47000000000E+01 0.  1.
         11    1    6    6    0    0  0.45379353579E+02  0.66295032689E+02 -0.51819573858E+02  0.95601178473E+02  0.00000000000E+00 0. -1.
        -12    1    6    6    0    0  0.53584929792E+02 -0.13326870996E+02 -0.64519822962E+01  0.55592969581E+02  0.00000000000E+00 0.  1.
</event>
<event>
12    1  0.8421768E-002  0.1941092E+03  0.7818608E-02  0.1154809E+00
         21   -1    0    0  501  502  0.00000000000E+00  0.00000000000E+00  0.11392175406E+03  0.11392175406E+03  0.00000000000E+00 0. -1.
         21   -1    0    0  502  503 -0.00000000000E+00 -0.00000000000E+00 -0.33172307683E+03  0.33172307683E+03  0.00000000000E+00 0. -1.
         -6    2    1    2    0  503  0.47681937133E+02 -0.75781052658E+02 -0.12113762671E+03  0.22880710048E+03  0.17222668073E+03 0.  0.
        -24    2    3    3    0    0  0.23905837535E+02 -0.11396581130E+03 -0.61329938402E+02  0.15382424721E+03  0.79629407077E+02 0.  0.
          6    2    1    2  501    0 -0.47681937133E+02  0.75781052658E+02 -0.96663696060E+02  0.21683773041E+03  0.17221613201E+03 0.  0.
         24    2    5    5    0    0 -0.72160863998E+02  0.66520776675E+02 -0.11451593127E+02  0.12757316265E+03  0.80694292370E+02 0.  0.
          5    1    5    5  501    0  0.24478926865E+02  0.92602759828E+01 -0.85212102933E+02  0.89264567764E+02  0.47000000000E+01 0. -1.
        -11    1    6    6    0    0 -0.31445509791E+02 -0.90429320643E+01 -0.24334444536E+02  0.40776953015E+02  0.00000000000E+00 0.  1.
         12    1    6    6    0    0 -0.40715354207E+02  0.75563708739E+02  0.12882851409E+02  0.86796209636E+02  0.00000000000E+00 0. -1.
         -5    1    3    3    0  503  0.23776099598E+02  0.38184758641E+02 -0.59807688305E+02  0.74982853273E+02  0.47000000000E+01 0.  1.
         13    1    4    4    0    0  0.24505695253E+02 -0.63546861175E+02 -0.75270110552E+02  0.10151020741E+03  0.00000000000E+00 0. -1.
        -14    1    4    4    0    0 -0.59985771755E+00 -0.50418950124E+02  0.13940172150E+02  0.52314039802E+02  0.00000000000E+00 0.  1.
</event>
<event>
12    1  0.8421768E-002  0.1917629E+03  0.7818608E-02  0.1156946E+00
         21   -1    0    0  503  502  0.00000000000E+00  0.00000000000E+00  0.52599760874E+03  0.52599760874E+03  0.00000000000E+00 0. -1.
         21   -1    0    0  501  503 -0.00000000000E+00 -0.00000000000E+00 -0.20703064920E+03  0.20703064920E+03  0.00000000000E+00 0.  1.
          6    2    1    2  501    0  0.53943543881E+02  0.63381808055E+02 -0.13895331771E+03  0.23657687382E+03  0.17243385168E+03 0.  0.
         24    2    3    3    0    0 -0.14692490227E+02  0.87406968871E+02 -0.10270529759E+03  0.15518816150E+03  0.75360067950E+02 0.  0.
         -6    2    1    2    0  502 -0.53943543881E+02 -0.63381808055E+02  0.45792027725E+03  0.49645138412E+03  0.17275947720E+03 0.  0.
        -24    2    5    5    0    0 -0.93760255027E+02 -0.25744392555E+02  0.38634287655E+03  0.40618865747E+03  0.79212675907E+02 0.  0.
          5    1    3    3  501    0  0.68636034108E+02 -0.24025160816E+02 -0.36248020116E+02  0.81388712317E+02  0.47000000000E+01 0. -1.
        -13    1    4    4    0    0  0.19858552114E+02  0.61998847211E+02 -0.88790256959E+02  0.11009963160E+03  0.00000000000E+00 0.  1.
         14    1    4    4    0    0 -0.34551042341E+02  0.25408121660E+02 -0.13915040632E+02  0.45088529904E+02  0.00000000000E+00 0. -1.
         -5    1    5    5    0  502  0.39816711146E+02 -0.37637415500E+02  0.71577400699E+02  0.90262726653E+02  0.47000000000E+01 0.  1.
         13    1    6    6    0    0 -0.76977189262E+02 -0.48755519843E+02  0.33812600027E+03  0.35018820717E+03  0.00000000000E+00 0. -1.
        -14    1    6    6    0    0 -0.16783065765E+02  0.23011127287E+02  0.48216876277E+02  0.56000450297E+02  0.00000000000E+00 0.  1.
</event>
<event>
12    1  0.8421768E-002  0.2778891E+03  0.7818608E-02  0.1096871E+00
         21   -1    0    0  501  502  0.00000000000E+00  0.00000000000E+00  0.16951959038E+03  0.16951959038E+03  0.00000000000E+00 0.  1.
         21   -1    0    0  502  503 -0.00000000000E+00 -0.00000000000E+00 -0.57008331873E+03  0.57008331873E+03  0.00000000000E+00 0.  1.
         -6    2    1    2    0  503  0.16794778740E+03  0.13859257919E+03 -0.36619770918E+03  0.45959683697E+03  0.17237786415E+03 0.  0.
        -24    2    3    3    0    0  0.18419636068E+02  0.60304205000E+02 -0.16402850715E+03  0.19619179939E+03  0.87235261546E+02 0.  0.
          6    2    1    2  501    0 -0.16794778740E+03 -0.13859257919E+03 -0.34366019171E+02  0.28000607213E+03  0.17264997786E+03 0.  0.
         24    2    5    5    0    0 -0.33106552413E+02 -0.94880349720E+02 -0.48228892482E+02  0.13750278475E+03  0.80514999640E+02 0.  0.
          5    1    5    5  501    0 -0.13484123499E+03 -0.43712229474E+02  0.13862873311E+02  0.14250328738E+03  0.47000000000E+01 0. -1.
        -11    1    6    6    0    0 -0.34697873404E+02 -0.10889854023E+03 -0.46077944040E+02  0.12323153578E+03  0.00000000000E+00 0.  1.
         12    1    6    6    0    0  0.15913209917E+01  0.14018190515E+02 -0.21509484419E+01  0.14271248964E+02  0.00000000000E+00 0. -1.
         -5    1    3    3    0  503  0.14952815133E+03  0.78288374194E+02 -0.20216920203E+03  0.26340503758E+03  0.47000000000E+01 0.  1.
         11    1    4    4    0    0  0.15394018140E+02  0.13295537255E+02 -0.14328368048E+03  0.14472028260E+03  0.00000000000E+00 0. -1.
        -12    1    4    4    0    0  0.30256179275E+01  0.47008667745E+02 -0.20744826676E+02  0.51471516792E+02  0.00000000000E+00 0.  1.
</event>
<event>
12    1  0.8421768E-002  0.1937267E+03  0.7818608E-02  0.1155588E+00
         21   -1    0    0  503  502  0.00000000000E+00  0.00000000000E+00  0.21485365383E+03  0.21485365383E+03  0.00000000000E+00 0.  1.
         21   -1    0    0  501  503 -0.00000000000E+00 -0.00000000000E+00 -0.17692034348E+03  0.17692034348E+03  0.00000000000E+00 0.  1.
          6    2    1    2  501    0  0.76017551747E+02 -0.48294795620E+02 -0.10591929826E+02  0.19401599805E+03  0.17151957050E+03 0.  0.
         24    2    3    3    0    0  0.19932316286E+02  0.36439819923E+02  0.82966932053E+01  0.90554030214E+02  0.80037738357E+02 0.  0.
         -6    2    1    2    0  502 -0.76017551747E+02  0.48294795620E+02  0.48525240175E+02  0.19775799925E+03  0.16924086941E+03 0.  0.
        -24    2    5    5    0    0 -0.68855140965E+02 -0.80184154790E+01  0.72487539930E+02  0.13596188544E+03  0.91792512899E+02 0.  0.
          5    1    3    3  501    0  0.56085235462E+02 -0.84734615543E+02 -0.18888623031E+02  0.10346196783E+03  0.47000000000E+01 0. -1.
        -11    1    4    4    0    0  0.16787333296E+02 -0.89580129402E+00 -0.31617713883E+02  0.35809172712E+02  0.00000000000E+00 0.  1.
         12    1    4    4    0    0  0.31449829898E+01  0.37335621217E+02  0.39914407089E+02  0.54744857502E+02  0.00000000000E+00 0. -1.
         -5    1    5    5    0  502 -0.71624107825E+01  0.56313211099E+02 -0.23962299755E+02  0.61796113811E+02  0.47000000000E+01 0.  1.
         11    1    6    6    0    0 -0.10062481958E+02 -0.42962248798E+02  0.42566228859E+02  0.61309805123E+02  0.00000000000E+00 0. -1.
        -12    1    6    6    0    0 -0.58792659007E+02  0.34943833319E+02  0.29921311071E+02  0.74652080321E+02  0.00000000000E+00 0.  1.
</event>
<event>
12    1  0.8421768E-002  0.1868270E+03  0.7818608E-02  0.1161520E+00
         21   -1    0    0  503  502  0.00000000000E+00  0.00000000000E+00  0.82090420514E+02  0.82090420514E+02  0.00000000000E+00 0. -1.
         21   -1    0    0  501  503 -0.00000000000E+00 -0.00000000000E+00 -0.53768495535E+03  0.53768495535E+03  0.00000000000E+00 0.  1.
          6    2    1    2  501    0  0.49102126397E+02  0.53415855539E+02 -0.37090141873E+03  0.41529770553E+03  0.17216285711E+03 0.  0.
         24    2    3    3    0    0  0.14449371823E+02 -0.34136959995E+02 -0.21904690455E+03  0.23655713268E+03  0.81262625147E+02 0.  0.
         -6    2    1    2    0  502 -0.49102126397E+02 -0.53415855539E+02 -0.84693116110E+02  0.20447767033E+03  0.17138821811E+03 0.  0.
        -24    2    5    5    0    0 -0.70080293769E+02 -0.15187916385E+02  0.12830904405E+01  0.10796105554E+03  0.80697105357E+02 0.  0.
          5    1    3    3  501    0  0.34652754574E+02  0.87552815534E+02 -0.15185451418E+03  0.17874057285E+03  0.47000000000E+01 0. -1.
        -11    1    4    4    0    0  0.60106286535E+01 -0.11684396951E+02 -0.21077596430E+03  0.21118513185E+03  0.00000000000E+00 0.  1.
         12    1    4    4    0    0  0.84387431692E+01 -0.22452563044E+02 -0.82709402513E+01  0.25372000831E+02  0.00000000000E+00 0. -1.
         -5    1    5    5    0  502  0.20978167372E+02 -0.38227939155E+02 -0.85976206551E+02  0.96516614793E+02  0.47000000000E+01 0.  1.
         13    1    6    6    0    0  0.94416676558E+01 -0.70014531634E+01  0.22382522142E+02  0.25281272356E+02  0.00000000000E+00 0. -1.
        -14    1    6    6    0    0 -0.79521961425E+02 -0.81864632211E+01 -0.21099431701E+02  0.82679783182E+02  0.00000000000E+00 0.  1.
</event>
<event>
12    1  0.8421768E-002  0.1761078E+03  0.7818608E-02  0.1171802E+00
         21   -1    0    0  501  502  0.00000000000E+00  0.00000000000E+00  0.22028650068E+03  0.22028650068E+03  0.00000000000E+00 0.  1.
         21   -1    0    0  502  503 -0.00000000000E+00 -0.00000000000E+00 -0.17517438936E+03  0.17517438936E+03  0.00000000000E+00 0.  1.
         -6    2    1    2    0  503 -0.21584889876E+02  0.26481593610E+02 -0.65807827940E+02  0.18733308706E+03  0.17203439487E+03 0.  0.
        -24    2    3    3    0    0 -0.32796746693E+02  0.10913271950E+02  0.30610855070E+02  0.88911896224E+02  0.75984042691E+02 0.  0.
          6    2    1    2  501    0  0.21584889876E+02 -0.26481593610E+02  0.11091993926E+03  0.20812780299E+03  0.17276216941E+03 0.  0.
         24    2    5    5    0    0  0.64659579464E+02 -0.63325225805E+02  0.81229415732E+02  0.14396785205E+03  0.77055687686E+02 0.  0.
          5    1    5    5  501    0 -0.43074689588E+02  0.36843632195E+02  0.29690523529E+02  0.64159950934E+02  0.47000000000E+01 0. -1.
        -11    1    6    6    0    0  0.20555333743E+02 -0.68917984606E+02  0.64055907477E+02  0.96308720426E+02  0.00000000000E+00 0.  1.
         12    1    6    6    0    0  0.44104245721E+02  0.55927588005E+01  0.17173508255E+02  0.47659131626E+02  0.00000000000E+00 0. -1.
         -5    1    3    3    0  503  0.11211856818E+02  0.15568321661E+02 -0.96418683010E+02  0.98421190838E+02  0.47000000000E+01 0.  1.
         13    1    4    4    0    0 -0.11630955274E+02  0.43254042418E+02  0.17707174359E+02  0.48163630780E+02  0.00000000000E+00 0. -1.
        -14    1    4    4    0    0 -0.21165791419E+02 -0.32340770468E+02  0.12903680711E+02  0.40748265445E+02  0.00000000000E+00 0.  1.
</event>
<event>
12    1  0.8421768E-002  0.2921762E+03  0.7818608E-02  0.1089510E+00
         21   -1    0    0  503  502  0.00000000000E+00  0.00000000000E+00  0.13742231804E+03  0.13742231804E+03  0.00000000000E+00 0. -1.
         21   -1    0    0  501  503 -0.00000000000E+00 -0.00000000000E+00 -0.61649281205E+03  0.61649281205E+03  0.00000000000E+00 0.  1.
          6    2    1    2  501    0 -0.19852828123E+03  0.12298660648E+03 -0.23695636852E+03  0.37618510646E+03  0.17557827290E+03 0.  0.
         24    2    3    3    0    0 -0.21433542266E+02  0.46695954219E+02 -0.10722718930E+03  0.14373175601E+03  0.80754186806E+02 0.  0.
         -6    2    1    2    0  502  0.19852828123E+03 -0.12298660648E+03 -0.24211412549E+03  0.37773002363E+03  0.17181832606E+03 0.  0.
        -24    2    5    5    0    0  0.20380427174E+03 -0.64220390997E+02 -0.16507361523E+03  0.28057738919E+03  0.76249151326E+02 0.  0.
          5    1    3    3  501    0 -0.17709473896E+03  0.76290652262E+02 -0.12972917922E+03  0.23245335044E+03  0.47000000000E+01 0. -1.
        -11    1    4    4    0    0 -0.42112706340E+02  0.22802438375E+02 -0.10063953317E+03  0.11145289080E+03  0.00000000000E+00 0.  1.
         12    1    4    4    0    0  0.20679164073E+02  0.23893515844E+02 -0.65876561328E+01  0.32278865214E+02  0.00000000000E+00 0. -1.
         -5    1    5    5    0  502 -0.52759905148E+01 -0.58766215484E+02 -0.77040510261E+02  0.97152634444E+02  0.47000000000E+01 0.  1.
         11    1    6    6    0    0  0.59008906697E+02 -0.35147492129E+02 -0.15563488212E+02  0.70424565585E+02  0.00000000000E+00 0. -1.
        -12    1    6    6    0    0  0.14479536505E+03 -0.29072898868E+02 -0.14951012702E+03  0.21015282360E+03  0.00000000000E+00 0.  1.
</event>
<event>
12    1  0.8421768E-002  0.2205033E+03  0.7818608E-02  0.1133564E+00
         21   -1    0    0  503  502  0.00000000000E+00  0.00000000000E+00  0.68158950898E+03  0.68158950898E+03  0.00000000000E+00 0. -1.
         21   -1    0    0  501  503 -0.00000000000E+00 -0.00000000000E+00 -0.78912564484E+02  0.78912564484E+02  0.00000000000E+00 0. -1.
          6    2    1    2  501    0  0.11878615938E+03 -0.68464677326E+02  0.18294350209E+03  0.28651359074E+03  0.17269669661E+03 0.  0.
         24    2    3    3    0    0 -0.50312535014E+01 -0.47711690598E+02  0.93617450270E+02  0.13236213365E+03  0.80335474713E+02 0.  0.
         -6    2    1    2    0  502 -0.11878615938E+03  0.68464677326E+02  0.41973344240E+03  0.47398848272E+03  0.17231179698E+03 0.  0.
        -24    2    5    5    0    0 -0.10882461443E+03  0.97711635037E+02  0.41250186296E+03  0.44191041148E+03  0.61128262744E+02 0.  0.
          5    1    3    3  501    0  0.12381741288E+03 -0.20752986729E+02  0.89326051818E+02  0.15415145709E+03  0.47000000000E+01 0. -1.
        -11    1    4    4    0    0  0.34275457477E+02 -0.35189637094E+02  0.67695235421E+02  0.83640674571E+02  0.00000000000E+00 0.  1.
         12    1    4    4    0    0 -0.39306710979E+02 -0.12522053504E+02  0.25922214849E+02  0.48721459077E+02  0.00000000000E+00 0. -1.
         -5    1    5    5    0  502 -0.99615449501E+01 -0.29246957711E+02  0.72315794464E+01  0.32078071239E+02  0.47000000000E+01 0.  1.
         11    1    6    6    0    0  0.73565813736E+01  0.72290366083E+01  0.41239964809E+02  0.42510151226E+02  0.00000000000E+00 0. -1.
        -12    1    6    6    0    0 -0.11618119580E+03  0.90482598429E+02  0.37126189815E+03  0.39940026026E+03  0.00000000000E+00 0.  1.
</event>
<event>
12    1  0.8421768E-002  0.2792489E+03  0.7818608E-02  0.1096144E+00
         21   -1    0    0  501  502  0.00000000000E+00  0.00000000000E+00  0.80048126147E+02  0.80048126147E+02  0.00000000000E+00 0.  1.
         21   -1    0    0  502  503 -0.00000000000E+00 -0.00000000000E+00 -0.19189740035E+04  0.19189740035E+04  0.00000000000E+00 0. -1.
         -6    2    1    2    0  503  0.16024234908E+03  0.15041299674E+03 -0.16214877041E+04  0.16453578045E+04  0.17227376589E+03 0.  0.
        -24    2    3    3    0    0  0.17323711687E+03  0.12653868934E+03 -0.15729607736E+04  0.15895384573E+04  0.80023580066E+02 0.  0.
          6    2    1    2  501    0 -0.16024234908E+03 -0.15041299674E+03 -0.21743817329E+03  0.35366432513E+03  0.17174811684E+03 0.  0.
         24    2    5    5    0    0 -0.13583600161E+02 -0.79058680694E+02 -0.11081946136E+03  0.15875443111E+03  0.80543324956E+02 0.  0.
          5    1    5    5  501    0 -0.14665874892E+03 -0.71354316050E+02 -0.10661871193E+03  0.19490989402E+03  0.47000000000E+01 0. -1.
        -13    1    6    6    0    0 -0.21544832099E+02 -0.18964360384E+02  0.39368100578E+01  0.28971110237E+02  0.00000000000E+00 0.  1.
         14    1    6    6    0    0  0.79612319375E+01 -0.60094320310E+02 -0.11475627142E+03  0.12978332087E+03  0.00000000000E+00 0. -1.
         -5    1    3    3    0  503 -0.12994767792E+02  0.23874307401E+02 -0.48526930466E+02  0.55819347222E+02  0.47000000000E+01 0.  1.
         13    1    4    4    0    0  0.45153086167E+02  0.33075614049E+02 -0.20799955347E+03  0.21539872720E+03  0.00000000000E+00 0. -1.
        -14    1    4    4    0    0  0.12808403071E+03  0.93463075294E+02 -0.13649612202E+04  0.13741397301E+04  0.00000000000E+00 0.  1.
</event>
<event>
12    1  0.8421768E-002  0.1812543E+03  0.7818608E-02  0.1166613E+00
         21   -1    0    0  503  502  0.00000000000E+00  0.00000000000E+00  0.27284903230E+03  0.27284903230E+03  0.00000000000E+00 0. -1.
         21   -1    0    0  501  503 -0.00000000000E+00 -0.00000000000E+00 -0.13015221761E+03  0.13015221761E+03  0.00000000000E+00 0.  1.
          6    2    1    2  501    0 -0.18509506282E+02  0.52238293403E+02  0.16058311807E+02  0.18188941286E+03  0.17249477676E+03 0.  0.
         24    2    3    3    0    0 -0.58581003844E+01  0.73188945301E+02  0.60069377125E+02  0.13131222673E+03  0.90794447883E+02 0.  0.
         -6    2    1    2    0  502  0.18509506282E+02 -0.52238293403E+02  0.12663850288E+03  0.22111183705E+03  0.17257373193E+03 0.  0.
        -24    2    5    5    0    0  0.31186334914E+02 -0.14341125777E+02  0.15383270484E+03  0.17254732410E+03  0.70212695457E+02 0.  0.
          5    1    3    3  501    0 -0.12651405898E+02 -0.20950651897E+02 -0.44011065317E+02  0.50577186127E+02  0.47000000000E+01 0. -1.
        -13    1    4    4    0    0  0.32025959926E+02  0.58103008915E+02  0.10572775795E+02  0.67181882544E+02  0.00000000000E+00 0.  1.
         14    1    4    4    0    0 -0.37884060311E+02  0.15085936386E+02  0.49496601330E+02  0.64130344186E+02  0.00000000000E+00 0. -1.
         -5    1    5    5    0  502 -0.12676828631E+02 -0.37897167626E+02 -0.27194201957E+02  0.48564512952E+02  0.47000000000E+01 0.  1.
         13    1    6    6    0    0 -0.37031691618E+01  0.24854597012E+02  0.59770487078E+02  0.64838071995E+02  0.00000000000E+00 0. -1.
        -14    1    6    6    0    0  0.34889504075E+02 -0.39195722790E+02  0.94062217759E+02  0.10770925211E+03  0.00000000000E+00 0.  1.
</event>
<event>
12    1  0.8421768E-002  0.1892569E+03  0.7818608E-02  0.1159204E+00
         21   -1    0    0  501  502  0.00000000000E+00  0.00000000000E+00  0.58527275904E+03  0.58527275904E+03  0.00000000000E+00 0. -1.
         21   -1    0    0  502  503 -0.00000000000E+00 -0.00000000000E+00 -0.97060209063E+02  0.97060209063E+02  0.00000000000E+00 0.  1.
         -6    2    1    2    0  503  0.74968059956E+02  0.12516026253E+02  0.36311351304E+02  0.19240145680E+03  0.17298250032E+03 0.  0.
        -24    2    3    3    0    0 -0.20932893839E+02 -0.98876682165E+01  0.40147014371E+02  0.93731700663E+02  0.81473289604E+02 0.  0.
          6    2    1    2  501    0 -0.74968059956E+02 -0.12516026253E+02  0.45190119867E+03  0.48993151130E+03  0.17332435340E+03 0.  0.
         24    2    5    5    0    0 -0.14983303106E+02  0.54508073057E+02  0.26542460898E+03  0.28284213580E+03  0.79710860817E+02 0.  0.
          5    1    5    5  501    0 -0.59984756850E+02 -0.67024099310E+02  0.18647658969E+03  0.20708937550E+03  0.47000000000E+01 0. -1.
        -11    1    6    6    0    0  0.12108411145E+02  0.55797217485E+01  0.19224974651E+01  0.13470074675E+02  0.00000000000E+00 0.  1.
         12    1    6    6    0    0 -0.27091714251E+02  0.48928351308E+02  0.26350211152E+03  0.26937206113E+03  0.00000000000E+00 0. -1.
         -5    1    3    3    0  503  0.95900953795E+02  0.22403694470E+02 -0.38356630670E+01  0.98669756136E+02  0.47000000000E+01 0.  1.
         13    1    4    4    0    0 -0.28867185794E+02  0.30220805556E+02  0.10108655819E+02  0.42997632802E+02  0.00000000000E+00 0. -1.
        -14    1    4    4    0    0  0.79342919544E+01 -0.40108473773E+02  0.30038358552E+02  0.50734067861E+02  0.00000000000E+00 0.  1.
</event>
<event>
12    1  0.8421768E-002  0.2093696E+03  0.7818608E-02  0.1142450E+00
         21   -1    0    0  501  502  0.00000000000E+00  0.00000000000E+00  0.12669450243E+03  0.12669450243E+03  0.00000000000E+00 0.  1.
         21   -1    0    0  502  503 -0.00000000000E+00 -0.00000000000E+00 -0.41061276494E+03  0.41061276494E+03  0.00000000000E+00 0.  1.
         -6    2    1    2    0  503 -0.11267056042E+03 -0.35925079106E+02 -0.25166019891E+03  0.32736598599E+03  0.17277258630E+03 0.  0.
        -24    2    3    3    0    0 -0.90637365387E+02 -0.89191960869E+02 -0.18454780357E+03  0.23877148287E+03  0.82362560307E+02 0.  0.
          6    2    1    2  501    0  0.11267056042E+03  0.35925079106E+02 -0.32258063597E+02  0.20994128138E+03  0.17043911659E+03 0.  0.
         24    2    5    5    0    0  0.36829471209E+02  0.72367003063E+02 -0.48647444794E+02  0.12408916171E+03  0.80238102469E+02 0.  0.
          5    1    5    5  501    0  0.75841089216E+02 -0.36441923958E+02  0.16389381198E+02  0.85852119666E+02  0.47000000000E+01 0. -1.
        -11    1    6    6    0    0  0.77096894211E+01  0.35572382254E+02  0.19543713750E+02  0.41313320338E+02  0.00000000000E+00 0.  1.
         12    1    6    6    0    0  0.29119781788E+02  0.36794620809E+02 -0.68191158544E+02  0.82775841375E+02  0.00000000000E+00 0. -1.
         -5    1    3    3    0  503 -0.22033195037E+02  0.53266881763E+02 -0.67112395342E+02  0.88594503130E+02  0.47000000000E+01 0.  1.
         11    1    4    4    0    0 -0.46858064825E+02 -0.17290964513E+01 -0.29329176366E+02  0.55307039334E+02  0.00000000000E+00 0. -1.
        -12    1    4    4    0    0 -0.43779300562E+02 -0.87462864417E+02 -0.15521862720E+03  0.18346444353E+03  0.00000000000E+00 0.  1.
</event>
<event>
12    1  0.8421768E-002  0.2348760E+03  0.7818608E-02  0.1123736E+00
         21   -1    0    0  503  502  0.00000000000E+00  0.00000000000E+00  0.49564363844E+03  0.49564363844E+03  0.00000000000E+00 0. -1.
         21   -1    0    0  501  503 -0.00000000000E+00 -0.00000000000E+00 -0.14881232761E+03  0.14881232761E+03  0.00000000000E+00 0. -1.
          6    2    1    2  501    0 -0.15880114369E+03  0.23575703241E+02  0.80543827805E+01  0.23222234803E+03  0.16759692367E+03 0.  0.
         24    2    3    3    0    0 -0.89573929065E+02  0.69731151854E+02  0.37921230980E+02  0.14369635579E+03  0.79527986269E+02 0.  0.
         -6    2    1    2    0  502  0.15880114369E+03 -0.23575703241E+02  0.33877692805E+03  0.41223361802E+03  0.17144425284E+03 0.  0.
        -24    2    5    5    0    0  0.16581793793E+03  0.16732152033E+02  0.23315804770E+03  0.29886961808E+03  0.84763317248E+02 0.  0.
          5    1    3    3  501    0 -0.69227214624E+02 -0.46155448613E+02 -0.29866848200E+02  0.88525992243E+02  0.47000000000E+01 0. -1.
        -11    1    4    4    0    0 -0.67871065258E+02  0.39952858655E+02 -0.14037048775E+02  0.79998444687E+02  0.00000000000E+00 0.  1.
         12    1    4    4    0    0 -0.21702863807E+02  0.29778293199E+02  0.51958279755E+02  0.63697911099E+02  0.00000000000E+00 0. -1.
         -5    1    5    5    0  502 -0.70167942392E+01 -0.40307855274E+02  0.10561888035E+03  0.11336399995E+03  0.47000000000E+01 0.  1.
         11    1    6    6    0    0  0.16156326585E+02  0.19438645457E+02  0.46511913523E+01  0.25700611022E+02  0.00000000000E+00 0. -1.
        -12    1    6    6    0    0  0.14966161134E+03 -0.27064934243E+01  0.22850685635E+03  0.27316900705E+03  0.00000000000E+00 0.  1.
</event>
<event>
12    1  0.8421768E-002  0.1821882E+03  0.7818608E-02  0.1168293E+00
         21   -1    0    0  501  502  0.00000000000E+00  0.00000000000E+00  0.15820193385E+03  0.15820193385E+03  0.00000000000E+00 0. -1.
         21   -1    0    0  502  503 -0.00000000000E+00 -0.00000000000E+00 -0.40280949724E+03  0.40280949724E+03  0.00000000000E+00 0. -1.
         -6    2    1    2    0  503  0.51173409607E+02  0.31329670821E+02 -0.32413870630E+03  0.37183120130E+03  0.17202405416E+03 0.  0.
        -24    2    3    3    0    0  0.10158190358E+03  0.16631304684E+02 -0.22420101714E+03  0.25884142324E+03  0.78340939913E+02 0.  0.
          6    2    1    2  501    0 -0.51173409607E+02 -0.31329670821E+02  0.79531142916E+02  0.18918022979E+03  0.16082192178E+03 0.  0.
         24    2    5    5    0    0 -0.89283944627E+02 -0.35396300734E+02  0.34092442594E+02  0.12955040634E+03  0.79978073657E+02 0.  0.
          5    1    5    5  501    0  0.38110535020E+02  0.40666299134E+01  0.45438700322E+02  0.59629823455E+02  0.47000000000E+01 0. -1.
        -11    1    6    6    0    0 -0.42469520121E+02 -0.30465990094E+02 -0.21665013851E+02  0.56579232205E+02  0.00000000000E+00 0.  1.
         12    1    6    6    0    0 -0.46814424506E+02 -0.49303106401E+01  0.55757456445E+02  0.72971174131E+02  0.00000000000E+00 0. -1.
         -5    1    3    3    0  503 -0.50408493969E+02  0.14698366137E+02 -0.99937689161E+02  0.11298977806E+03  0.47000000000E+01 0.  1.
         11    1    4    4    0    0  0.48238467619E+02  0.45517550932E+02 -0.92282887433E+02  0.11364386703E+03  0.00000000000E+00 0. -1.
        -12    1    4    4    0    0  0.53343435957E+02 -0.28886246248E+02 -0.13191812971E+03  0.14519755621E+03  0.00000000000E+00 0.  1.
</event>
<event>
12    1  0.8421768E-002  0.2173283E+03  0.7818608E-02  0.1136413E+00
         21   -1    0    0  503  502  0.00000000000E+00  0.00000000000E+00  0.93839259082E+02  0.93839259082E+02  0.00000000000E+00 0.  1.
         21   -1    0    0  501  503 -0.00000000000E+00 -0.00000000000E+00 -0.51356885792E+03  0.51356885792E+03  0.00000000000E+00 0.  1.
          6    2    1    2  501    0 -0.46245053243E+02  0.11973127136E+03 -0.26312597750E+03  0.33953448569E+03  0.17197152277E+03 0.  0.
         24    2    3    3    0    0  0.14568146815E+02  0.12789398550E+03 -0.18870354112E+03  0.24296500686E+03  0.82788077028E+02 0.  0.
         -6    2    1    2    0  502  0.46245053243E+02 -0.11973127136E+03 -0.15660362133E+03  0.26787363131E+03  0.17537789441E+03 0.  0.
        -24    2    5    5    0    0  0.87316362478E+01 -0.76862942883E+02 -0.10444021803E+02  0.11093520843E+03  0.78825055780E+02 0.  0.
          5    1    3    3  501    0 -0.60813200058E+02 -0.81627141452E+01 -0.74422436382E+02  0.96569478825E+02  0.47000000000E+01 0. -1.
        -11    1    4    4    0    0 -0.20642022683E+02  0.10276915130E+03 -0.15918446452E+03  0.19059718074E+03  0.00000000000E+00 0.  1.
         12    1    4    4    0    0  0.35210169498E+02  0.25124834201E+02 -0.29519076600E+02  0.52367826125E+02  0.00000000000E+00 0. -1.
         -5    1    5    5    0  502  0.37513416995E+02 -0.42868328476E+02 -0.14615959953E+03  0.15693842288E+03  0.47000000000E+01 0.  1.
         11    1    6    6    0    0 -0.33496844562E+02 -0.18097506074E+02 -0.40983314797E+01  0.38293010363E+02  0.00000000000E+00 0. -1.
        -12    1    6    6    0    0  0.42228480810E+02 -0.58765436810E+02 -0.63456903234E+01  0.72642198071E+02  0.00000000000E+00 0.  1.
</event>
<event>
12    1  0.8421768E-002  0.1921313E+03  0.7818608E-02  0.1159357E+00
         21   -1    0    0  501  502  0.00000000000E+00  0.00000000000E+00  0.11156902479E+03  0.11156902479E+03  0.00000000000E+00 0.  1.
         21   -1    0    0  502  503 -0.00000000000E+00 -0.00000000000E+00 -0.31606093666E+03  0.31606093666E+03  0.00000000000E+00 0. -1.
         -6    2    1    2    0  503 -0.68194836119E+02 -0.52571684189E+01 -0.69897639456E+02  0.19304507016E+03  0.16644081717E+03 0.  0.
        -24    2    3    3    0    0 -0.69345426228E+02  0.47004635316E+02 -0.14762221977E+02  0.11692264083E+03  0.80216936247E+02 0.  0.
          6    2    1    2  501    0  0.68194836119E+02  0.52571684189E+01 -0.13459427242E+03  0.23458489129E+03  0.17954464504E+03 0.  0.
         24    2    5    5    0    0 -0.17069856557E+02  0.51437156824E+02 -0.59684145498E+02  0.11196239637E+03  0.77693113419E+02 0.  0.
          5    1    5    5  501    0  0.85264692675E+02 -0.46179988405E+02 -0.74910126917E+02  0.12262249492E+03  0.47000000000E+01 0. -1.
        -11    1    6    6    0    0  0.21529572348E+02 -0.74936609408E+01 -0.65336222765E+01  0.23714250143E+02  0.00000000000E+00 0.  1.
         12    1    6    6    0    0 -0.38599428905E+02  0.58930817765E+02 -0.53150523221E+02  0.88248146230E+02  0.00000000000E+00 0. -1.
         -5    1    3    3    0  503  0.11505901090E+01 -0.52261803735E+02 -0.55135417479E+02  0.76122429335E+02  0.47000000000E+01 0.  1.
         11    1    4    4    0    0 -0.60551463028E+02  0.94038618007E+01 -0.37760376253E+02  0.71977484718E+02  0.00000000000E+00 0. -1.
        -12    1    4    4    0    0 -0.87939631993E+01  0.37600773515E+02  0.22998154276E+02  0.44945156111E+02  0.00000000000E+00 0.  1.
</event>
<event>
12    1  0.8421768E-002  0.2309622E+03  0.7818608E-02  0.1126005E+00
         21   -1    0    0  501  502  0.00000000000E+00  0.00000000000E+00  0.18461486901E+03  0.18461486901E+03  0.00000000000E+00 0.  1.
         21   -1    0    0  502  503 -0.00000000000E+00 -0.00000000000E+00 -0.71111843840E+03  0.71111843840E+03  0.00000000000E+00 0.  1.
         -6    2    1    2    0  503  0.15359650630E+03  0.78290188540E+01 -0.60850515512E+03  0.65086255407E+03  0.17230890924E+03 0.  0.
        -24    2    3    3    0    0  0.79339011914E+02 -0.33575957569E+02 -0.18692472064E+03  0.22076872678E+03  0.79849582321E+02 0.  0.
          6    2    1    2  501    0 -0.15359650630E+03 -0.78290188540E+01  0.82001585724E+02  0.24487075333E+03  0.17200071364E+03 0.  0.
         24    2    5    5    0    0 -0.16772412368E+03  0.31290413534E+02  0.60210989245E+02  0.19768135137E+03  0.79637188598E+02 0.  0.
          5    1    5    5  501    0  0.14127617380E+02 -0.39119432388E+02  0.21790596478E+02  0.47189401968E+02  0.47000000000E+01 0. -1.
        -11    1    6    6    0    0 -0.86603327262E+02  0.45027106414E+02  0.61549884196E+02  0.11539482159E+03  0.00000000000E+00 0.  1.
         12    1    6    6    0    0 -0.81120796420E+02 -0.13736692880E+02 -0.13388949505E+01  0.82286529777E+02  0.00000000000E+00 0. -1.
         -5    1    3    3    0  503  0.74257494388E+02  0.41404976423E+02 -0.42158043448E+03  0.43009382730E+03  0.47000000000E+01 0.  1.
         11    1    4    4    0    0  0.71274838768E+02  0.76817614251E+01 -0.89568828633E+02  0.11472439654E+03  0.00000000000E+00 0. -1.
        -12    1    4    4    0    0  0.80641731460E+01 -0.41257718994E+02 -0.97355892010E+02  0.10604433023E+03  0.00000000000E+00 0.  1.
</event>
<event>
12    1  0.8421768E-002  0.1773625E+03  0.7818608E-02  0.1170434E+00
         21   -1    0    0  501  502  0.00000000000E+00  0.00000000000E+00  0.72817885190E+02  0.72817885190E+02  0.00000000000E+00 0.  1.
         21   -1    0    0  502  503 -0.00000000000E+00 -0.00000000000E+00 -0.45425972060E+03  0.45425972060E+03  0.00000000000E+00 0.  1.
         -6    2    1    2    0  503 -0.18072359265E+02 -0.37418554054E+02 -0.13159084705E+03  0.22067429264E+03  0.17220404771E+03 0.  0.
        -24    2    3    3    0    0  0.32655784139E+02  0.27080869640E+02 -0.47210005392E+02  0.10287897597E+03  0.80966198812E+02 0.  0.
          6    2    1    2  501    0  0.18072359265E+02  0.37418554054E+02 -0.24985098837E+03  0.30640331315E+03  0.17242597127E+03 0.  0.
         24    2    5    5    0    0  0.56546439733E+02  0.61511213318E+02 -0.11124514400E+03  0.16047736896E+03  0.79977338493E+02 0.  0.
          5    1    5    5  501    0 -0.38474080469E+02 -0.24092659263E+02 -0.13860584436E+03  0.14592594420E+03  0.47000000000E+01 0. -1.
        -11    1    6    6    0    0  0.31461015255E+02 -0.70412461164E+01 -0.66340171114E+01  0.32914811419E+02  0.00000000000E+00 0.  1.
         12    1    6    6    0    0  0.25085424479E+02  0.68552459434E+02 -0.10461112689E+03  0.12756255754E+03  0.00000000000E+00 0. -1.
         -5    1    3    3    0  503 -0.50728143404E+02 -0.64499423695E+02 -0.84380841655E+02  0.11779531667E+03  0.47000000000E+01 0.  1.
         11    1    4    4    0    0  0.23264475397E+02  0.20481218487E+02  0.18551634146E+02  0.36123112486E+02  0.00000000000E+00 0. -1.
        -12    1    4    4    0    0  0.93913087424E+01  0.65996511540E+01 -0.65761639538E+02  0.66755863488E+02  0.00000000000E+00 0.  1.
</event>
<event>
12    1  0.8421768E-002  0.1836994E+03  0.7818608E-02  0.1164290E+00
         21   -1    0    0  501  502  0.00000000000E+00  0.00000000000E+00  0.56776646476E+02  0.56776646476E+02  0.00000000000E+00 0. -1.
         21   -1    0    0  502  503 -0.00000000000E+00 -0.00000000000E+00 -0.84449885414E+03  0.84449885414E+03  0.00000000000E+00 0.  1.
         -6    2    1    2    0  503  0.47288348888E+02  0.55674789008E+02 -0.63931312405E+03  0.66518173039E+03  0.16855145740E+03 0.  0.
        -24    2    3    3    0    0  0.95511265838E+02  0.39719367998E+02 -0.40873850883E+03  0.42903184501E+03  0.79379627995E+02 0.  0.
          6    2    1    2  501    0 -0.47288348888E+02 -0.55674789008E+02 -0.14840908361E+03  0.23609377023E+03  0.16846109987E+03 0.  0.
         24    2    5    5    0    0 -0.75964729091E-01 -0.89983493299E+02 -0.12261864335E+03  0.17211460786E+03  0.80567187522E+02 0.  0.
          5    1    5    5  501    0 -0.47212384158E+02  0.34308704291E+02 -0.25790440268E+02  0.63979162368E+02  0.47000000000E+01 0. -1.
        -11    1    6    6    0    0  0.83952638377E+01  0.13859749366E+02 -0.12064311200E+02  0.20201997726E+02  0.00000000000E+00 0.  1.
         12    1    6    6    0    0 -0.84712285668E+01 -0.10384324267E+03 -0.11055433215E+03  0.15191261013E+03  0.00000000000E+00 0. -1.
         -5    1    3    3    0  503 -0.48222916950E+02  0.15955421010E+02 -0.23057461522E+03  0.23614988538E+03  0.47000000000E+01 0.  1.
         11    1    4    4    0    0  0.92346950594E+02  0.21118036684E+01 -0.27712675177E+03  0.29211582557E+03  0.00000000000E+00 0. -1.
        -12    1    4    4    0    0  0.31643152435E+01  0.37607564330E+02 -0.13161175705E+03  0.13691601944E+03  0.00000000000E+00 0.  1.
</event>
<event>
12    1  0.8421768E-002  0.3521155E+03  0.7818608E-02  0.1062351E+00
         21   -1    0    0  501  502  0.00000000000E+00  0.00000000000E+00  0.17689962907E+04  0.17689962907E+04  0.00000000000E+00 0. -1.
         21   -1    0    0  502  503 -0.00000000000E+00 -0.00000000000E+00 -0.11297479065E+03  0.11297479065E+03  0.00000000000E+00 0.  1.
         -6    2    1    2    0  503 -0.23229682787E+02 -0.30642609456E+03  0.24470377228E+03  0.42879509289E+03  0.17189742850E+03 0.  0.
        -24    2    3    3    0    0 -0.15822639823E+02 -0.87755068220E+02  0.32123402788E+02  0.12369775507E+03  0.79485304769E+02 0.  0.
          6    2    1    2  501    0  0.23229682787E+02  0.30642609456E+03  0.14113177278E+04  0.14531759885E+04  0.15958118673E+03 0.  0.
         24    2    5    5    0    0  0.33224623722E+02  0.31763311385E+03  0.13174011631E+04  0.13579504286E+04  0.80553531690E+02 0.  0.
          5    1    5    5  501    0 -0.99949409356E+01 -0.11207019288E+02  0.93916564737E+02  0.95225559896E+02  0.47000000000E+01 0. -1.
        -11    1    6    6    0    0  0.20091676939E+02  0.12211523516E+02  0.83939514013E+02  0.87170171513E+02  0.00000000000E+00 0.  1.
         12    1    6    6    0    0  0.13132946783E+02  0.30542159033E+03  0.12334616490E+04  0.12707802571E+04  0.00000000000E+00 0. -1.
         -5    1    3    3    0  503 -0.74070429637E+01 -0.21867102634E+03  0.21258036949E+03  0.30509733781E+03  0.47000000000E+01 0.  1.
         11    1    4    4    0    0 -0.35074519136E+02 -0.52211533416E+02 -0.11809461520E+02  0.63997886650E+02  0.00000000000E+00 0. -1.
        -12    1    4    4    0    0  0.19251879313E+02 -0.35543534804E+02  0.43932864308E+02  0.59699868423E+02  0.00000000000E+00 0.  1.
</event>
<event>
12    1  0.8421768E-002  0.1944022E+03  0.7818608E-02  0.1158978E+00
         21   -1    0    0  501  502  0.00000000000E+00  0.00000000000E+00  0.60643671977E+02  0.60643671977E+02  0.00000000000E+00 0. -1.
         21   -1    0    0  502  503 -0.00000000000E+00 -0.00000000000E+00 -0.63191890546E+03  0.63191890546E+03  0.00000000000E+00 0. -1.
         -6    2    1    2    0  503 -0.73486726495E+01 -0.28573079091E+02 -0.38640659592E+03  0.42429285857E+03  0.17275401190E+03 0.  0.
        -24    2    3    3    0    0  0.52205536967E+02 -0.54248427406E+02 -0.20970608855E+03  0.23600826892E+03  0.77813555760E+02 0.  0.
          6    2    1    2  501    0  0.73486726495E+01  0.28573079091E+02 -0.18486863757E+03  0.26826971887E+03  0.19215047506E+03 0.  0.
         24    2    5    5    0    0  0.60837058162E+02 -0.28881081642E+02 -0.56185873704E+02  0.11746079444E+03  0.78133995835E+02 0.  0.
          5    1    5    5  501    0 -0.53488385513E+02  0.57454160733E+02 -0.12868276386E+03  0.15080892442E+03  0.47000000000E+01 0. -1.
        -13    1    6    6    0    0 -0.72448251410E+01  0.16919934511E+02 -0.72219131114E+00  0.18419914101E+02  0.00000000000E+00 0.  1.
         14    1    6    6    0    0  0.68081883303E+02 -0.45801016153E+02 -0.55463682393E+02  0.99040880344E+02  0.00000000000E+00 0. -1.
         -5    1    3    3    0  503 -0.59554209617E+02  0.25675348315E+02 -0.17670050737E+03  0.18828458965E+03  0.47000000000E+01 0.  1.
         13    1    4    4    0    0 -0.41747405458E+00  0.46624689224E+01 -0.10371111713E+03  0.10381670731E+03  0.00000000000E+00 0. -1.
        -14    1    4    4    0    0  0.52623011022E+02 -0.58910896329E+02 -0.10599497142E+03  0.13219156161E+03  0.00000000000E+00 0.  1.
</event>
<event>
12    1  0.8421768E-002  0.1869709E+03  0.7818608E-02  0.1161514E+00
         21   -1    0    0  503  502  0.00000000000E+00  0.00000000000E+00  0.25074141165E+02  0.25074141165E+02  0.00000000000E+00 0.  1.
         21   -1    0    0  501  503 -0.00000000000E+00 -0.00000000000E+00 -0.19832745464E+04  0.19832745464E+04  0.00000000000E+00 0. -1.
          6    2    1    2  501    0  0.41085065006E+02  0.58520966963E+02 -0.42979527096E+03  0.46870258232E+03  0.17275835608E+03 0.  0.
         24    2    3    3    0    0  0.92193129368E+02  0.22721548812E+02 -0.27951749477E+03  0.30591704058E+03  0.80245647564E+02 0.  0.
         -6    2    1    2    0  502 -0.41085065006E+02 -0.58520966963E+02 -0.15284051343E+04  0.15396461053E+04  0.17139191571E+03 0.  0.
        -24    2    5    5    0    0 -0.36189436238E+02 -0.40666003296E+02 -0.15097708924E+04  0.15129610555E+04  0.81728874470E+02 0.  0.
          5    1    3    3  501    0 -0.51108064361E+02  0.35799418151E+02 -0.15027777619E+03  0.16278554174E+03  0.47000000000E+01 0. -1.
        -11    1    4    4    0    0  0.27025142008E+02  0.28393189088E+02 -0.34177336362E+02  0.52005978578E+02  0.00000000000E+00 0.  1.
         12    1    4    4    0    0  0.65167987360E+02 -0.56716402762E+01 -0.24534015841E+03  0.25391106200E+03  0.00000000000E+00 0. -1.
         -5    1    5    5    0  502 -0.48956287680E+01 -0.17854963668E+02 -0.18634241951E+02  0.26685049778E+02  0.47000000000E+01 0.  1.
         13    1    6    6    0    0  0.23860049969E+02 -0.27516347806E+02 -0.62059806750E+03  0.62166583690E+03  0.00000000000E+00 0. -1.
        -14    1    6    6    0    0 -0.60049486207E+02 -0.13149655490E+02 -0.88917282486E+03  0.89129521860E+03  0.00000000000E+00 0.  1.
</event>
<event>
12    1  0.8421768E-002  0.1840893E+03  0.7818608E-02  0.1164356E+00
         21   -1    0    0  503  502  0.00000000000E+00  0.00000000000E+00  0.72316756529E+03  0.72316756529E+03  0.00000000000E+00 0.  1.
         21   -1    0    0  501  503 -0.00000000000E+00 -0.00000000000E+00 -0.49578658646E+02  0.49578658646E+02  0.00000000000E+00 0.  1.
          6    2    1    2  501    0  0.93026932721E+01  0.56992243762E+02  0.24022789149E+03  0.30265212091E+03  0.17479762725E+03 0.  0.
         24    2    3    3    0    0  0.24005176235E+01  0.52071482828E+01  0.28572297978E+02  0.84593604893E+02  0.79415520517E+02 0.  0.
         -6    2    1    2    0  502 -0.93026932721E+01 -0.56992243762E+02  0.43336101515E+03  0.47009410302E+03  0.17277742993E+03 0.  0.
        -24    2    5    5    0    0 -0.71194042739E+02 -0.47544900500E+02  0.31374619979E+03  0.33500307635E+03  0.80382050212E+02 0.  0.
          5    1    3    3  501    0  0.69021756486E+01  0.51785095479E+02  0.21165559352E+03  0.21805851602E+03  0.47000000000E+01 0. -1.
        -11    1    4    4    0    0 -0.24476718346E+02  0.29448397201E+02 -0.30080691709E+00  0.38293711279E+02  0.00000000000E+00 0.  1.
         12    1    4    4    0    0  0.26877235969E+02 -0.24241248918E+02  0.28873104895E+02  0.46299893615E+02  0.00000000000E+00 0. -1.
         -5    1    5    5    0  502  0.61891349467E+02 -0.94473432616E+01  0.11961481535E+03  0.13509102667E+03  0.47000000000E+01 0.  1.
         13    1    6    6    0    0 -0.44734980719E+02  0.16596687931E+02  0.14040319912E+03  0.14828933499E+03  0.00000000000E+00 0. -1.
        -14    1    6    6    0    0 -0.26459062020E+02 -0.64141588431E+02  0.17334300067E+03  0.18671374136E+03  0.00000000000E+00 0.  1.
</event>
<event>
12    1  0.8421768E-002  0.2104397E+03  0.7818608E-02  0.1141243E+00
         21   -1    0    0  503  502  0.00000000000E+00  0.00000000000E+00  0.67004968610E+03  0.67004968610E+03  0.00000000000E+00 0. -1.
         21   -1    0    0  501  503 -0.00000000000E+00 -0.00000000000E+00 -0.66200205418E+02  0.66200205418E+02  0.00000000000E+00 0.  1.
          6    2    1    2  501    0 -0.63031762199E+02 -0.10347849821E+03  0.28445733134E+03  0.35376303214E+03  0.17190551742E+03 0.  0.
         24    2    3    3    0    0 -0.10538427908E+03 -0.50731550721E+02  0.19035522292E+03  0.23777478720E+03  0.81376913315E+02 0.  0.
         -6    2    1    2    0  502  0.63031762199E+02  0.10347849821E+03  0.31939214934E+03  0.38248685938E+03  0.17205827471E+03 0.  0.
        -24    2    5    5    0    0  0.59981037641E+02 -0.75603756023E+01  0.13497070230E+03  0.16714457708E+03  0.77880260728E+02 0.  0.
          5    1    3    3  501    0  0.42352516878E+02 -0.52746947486E+02  0.94102108416E+02  0.11598824494E+03  0.47000000000E+01 0. -1.
        -13    1    4    4    0    0 -0.26633951168E+02 -0.56999329980E+02  0.73922064930E+02  0.97070915605E+02  0.00000000000E+00 0.  1.
         14    1    4    4    0    0 -0.78750327909E+02  0.62677792589E+01  0.11643315799E+03  0.14070387160E+03  0.00000000000E+00 0. -1.
         -5    1    5    5    0  502  0.30507245577E+01  0.11103887381E+03  0.18442144704E+03  0.21534228230E+03  0.47000000000E+01 0.  1.
         13    1    6    6    0    0 -0.18408379031E+01 -0.23707575255E+02  0.81497966144E+01  0.25136765773E+02  0.00000000000E+00 0. -1.
        -14    1    6    6    0    0  0.61821875545E+02  0.16147199653E+02  0.12682090569E+03  0.14200781131E+03  0.00000000000E+00 0.  1.
</event>
<event>
12    1  0.8421768E-002  0.1811666E+03  0.7818608E-02  0.1167150E+00
         21   -1    0    0  501  502  0.00000000000E+00  0.00000000000E+00  0.48213722901E+02  0.48213722901E+02  0.00000000000E+00 0.  1.
         21   -1    0    0  502  503 -0.00000000000E+00 -0.00000000000E+00 -0.10647229623E+04  0.10647229623E+04  0.00000000000E+00 0.  1.
         -6    2    1    2    0  503 -0.61572691910E+01 -0.53263264669E+02 -0.84733360992E+03  0.86648461543E+03  0.17305044050E+03 0.  0.
        -24    2    3    3    0    0  0.62537329088E+02 -0.45933033953E+02 -0.56039876265E+03  0.57131284054E+03  0.79566497046E+02 0.  0.
          6    2    1    2  501    0  0.61572691910E+01  0.53263264669E+02 -0.16917562945E+03  0.24645206974E+03  0.17100684709E+03 0.  0.
         24    2    5    5    0    0 -0.10089341473E+02  0.33829860889E+02 -0.10535134837E+02  0.85733352496E+02  0.77414238774E+02 0.  0.
          5    1    5    5  501    0  0.16246610664E+02  0.19433403780E+02 -0.15864049462E+03  0.16071871724E+03  0.47000000000E+01 0. -1.
        -11    1    6    6    0    0  0.25000298654E+02  0.42113528752E+02 -0.75805547590E+01  0.49558339835E+02  0.00000000000E+00 0.  1.
         12    1    6    6    0    0 -0.35089640127E+02 -0.82836678634E+01 -0.29545800784E+01  0.36175012660E+02  0.00000000000E+00 0. -1.
         -5    1    3    3    0  503 -0.68694598279E+02 -0.73302307160E+01 -0.28693484727E+03  0.29517177489E+03  0.47000000000E+01 0.  1.
         13    1    4    4    0    0  0.81322162761E+02 -0.33652598865E+02 -0.41892526056E+03  0.42807028103E+03  0.00000000000E+00 0. -1.
        -14    1    4    4    0    0 -0.18784833673E+02 -0.12280435088E+02 -0.14147350209E+03  0.14324255951E+03  0.00000000000E+00 0.  1.
</event>
<event>
12    1  0.8421768E-002  0.2750206E+03  0.7818608E-02  0.1098469E+00
         21   -1    0    0  503  502  0.00000000000E+00  0.00000000000E+00  0.22343437594E+03  0.22343437594E+03  0.00000000000E+00 0.  1.
         21   -1    0    0  501  503 -0.00000000000E+00 -0.00000000000E+00 -0.38371460041E+03  0.38371460041E+03  0.00000000000E+00 0.  1.
          6    2    1    2  501    0 -0.78991260957E+02  0.19942335151E+03 -0.18464525146E+03  0.33125547806E+03  0.17212504298E+03 0.  0.
         24    2    3    3    0    0 -0.21142163195E+02  0.22697794965E+02 -0.80159577374E+02  0.11790649977E+03  0.80710618152E+02 0.  0.
         -6    2    1    2    0  502  0.78991260957E+02 -0.19942335151E+03  0.24365026994E+02  0.27589349829E+03  0.17179719271E+03 0.  0.
        -24    2    5    5    0    0  0.10267172406E+03 -0.82962840401E+02  0.27524846299E+02  0.15691497317E+03  0.80251952204E+02 0.  0.
          5    1    3    3  501    0 -0.57849097762E+02  0.17672555654E+03 -0.10448567409E+03  0.21334897829E+03  0.47000000000E+01 0. -1.
        -11    1    4    4    0    0 -0.10321752220E+02  0.43669725103E+02 -0.82782657978E+02  0.94162369986E+02  0.00000000000E+00 0.  1.
         12    1    4    4    0    0 -0.10820410975E+02 -0.20971930138E+02  0.26230806037E+01  0.23744129785E+02  0.00000000000E+00 0. -1.
         -5    1    5    5    0  502 -0.23680463107E+02 -0.11646051110E+03 -0.31598193048E+01  0.11897852511E+03  0.47000000000E+01 0.  1.
         13    1    6    6    0    0  0.91101965389E+02 -0.98859735383E+02  0.20254479591E+02  0.13595241565E+03  0.00000000000E+00 0. -1.
        -14    1    6    6    0    0  0.11569758675E+02  0.15896894982E+02  0.72703667078E+01  0.20962557523E+02  0.00000000000E+00 0.  1.
</event>
<event>
12    1  0.8421768E-002  0.1753833E+03  0.7818608E-02  0.1172974E+00
         21   -1    0    0  503  502  0.00000000000E+00  0.00000000000E+00  0.12804714832E+04  0.12804714832E+04  0.00000000000E+00 0. -1.
         21   -1    0    0  501  503 -0.00000000000E+00 -0.00000000000E+00 -0.48633240919E+03  0.48633240919E+03  0.00000000000E+00 0. -1.
          6    2    1    2  501    0  0.27420512617E+02 -0.66154178952E+01 -0.46441570592E+03  0.49642851051E+03  0.17310017296E+03 0.  0.
         24    2    3    3    0    0 -0.37762755448E+02  0.79501575145E+01 -0.37129747155E+03  0.38173714207E+03  0.79826076907E+02 0.  0.
         -6    2    1    2    0  502 -0.27420512617E+02  0.66154178952E+01  0.12585547800E+04  0.12703753819E+04  0.17058085620E+03 0.  0.
        -24    2    5    5    0    0 -0.61580999378E+02 -0.36982193978E+02  0.57732143995E+03  0.58687801968E+03  0.77238997923E+02 0.  0.
          5    1    3    3  501    0  0.65183268065E+02 -0.14565575410E+02 -0.93118234375E+02  0.11469136845E+03  0.47000000000E+01 0. -1.
        -13    1    4    4    0    0  0.22473237515E+02  0.15279868402E+02 -0.92322841547E+02  0.96239429831E+02  0.00000000000E+00 0.  1.
         14    1    4    4    0    0 -0.60235992963E+02 -0.73297108873E+01 -0.27897463000E+03  0.28549771224E+03  0.00000000000E+00 0. -1.
         -5    1    5    5    0  502  0.34160486761E+02  0.43597611874E+02  0.68123334001E+03  0.68349736222E+03  0.47000000000E+01 0.  1.
         11    1    6    6    0    0 -0.21651667576E+02 -0.33561864892E+02  0.47957342393E+03  0.48123368796E+03  0.00000000000E+00 0. -1.
        -12    1    6    6    0    0 -0.39929331802E+02 -0.34203290862E+01  0.97748016016E+02  0.10564433172E+03  0.00000000000E+00 0.  1.
</event>
<event>
12    1  0.8421768E-002  0.1894947E+03  0.7818608E-02  0.1158920E+00
         21   -1    0    0  503  502  0.00000000000E+00  0.00000000000E+00  0.22666654053E+03  0.22666654053E+03  0.00000000000E+00 0.  1.
         21   -1    0    0  501  503 -0.00000000000E+00 -0.00000000000E+00 -0.19149124061E+03  0.19149124061E+03  0.00000000000E+00 0.  1.
          6    2    1    2  501    0 -0.78079992388E+02  0.38252763730E+01  0.10448927567E+03  0.21639377037E+03  0.17261847286E+03 0.  0.
         24    2    3    3    0    0  0.31364305245E+02  0.23930738288E+02  0.32084509586E+02  0.83552421253E+02  0.66296240191E+02 0.  0.
         -6    2    1    2    0  502  0.78079992388E+02 -0.38252763730E+01 -0.69313975751E+02  0.20176401076E+03  0.17260698379E+03 0.  0.
        -24    2    5    5    0    0  0.99704762455E+02  0.37556216692E+02 -0.75912919447E+02  0.15437524937E+03  0.81959973220E+02 0.  0.
          5    1    3    3  501    0 -0.10944429763E+03 -0.20105461915E+02  0.72404766085E+02  0.13284134912E+03  0.47000000000E+01 0. -1.
        -13    1    4    4    0    0  0.27236589938E+02 -0.14236986133E+02 -0.38436465758E+01  0.30972523704E+02  0.00000000000E+00 0.  1.
         14    1    4    4    0    0  0.41277153068E+01  0.38167724421E+02  0.35928156162E+02  0.52579897549E+02  0.00000000000E+00 0. -1.
         -5    1    5    5    0  502 -0.21624770067E+02 -0.41381493065E+02  0.65989436954E+01  0.47388761395E+02  0.47000000000E+01 0.  1.
         11    1    6    6    0    0 -0.23565896500E+01 -0.12449577008E+02  0.62547536559E+01  0.14130372456E+02  0.00000000000E+00 0. -1.
        -12    1    6    6    0    0  0.10206135210E+03  0.50005793700E+02 -0.82167673102E+02  0.14024487691E+03  0.00000000000E+00 0.  1.
</event>
<event>
12    1  0.8421768E-002  0.1733810E+03  0.7818608E-02  0.1174520E+00
         21   -1    0    0  501  502  0.00000000000E+00  0.00000000000E+00  0.10534159016E+03  0.10534159016E+03  0.00000000000E+00 0. -1.
         21   -1    0    0  502  503 -0.00000000000E+00 -0.00000000000E+00 -0.28946515197E+03  0.28946515197E+03  0.00000000000E+00 0. -1.
         -6    2    1    2    0  503 -0.18472234453E+02 -0.55693288652E+01 -0.11807787289E+03  0.20927233404E+03  0.17169823779E+03 0.  0.
        -24    2    3    3    0    0  0.55647550018E+02  0.10504815495E+01 -0.51462880871E+02  0.10928627750E+03  0.78722989075E+02 0.  0.
          6    2    1    2  501    0  0.18472234453E+02  0.55693288652E+01 -0.66045688922E+02  0.18553440810E+03  0.17230421554E+03 0.  0.
         24    2    5    5    0    0  0.15432959961E+02 -0.19711269407E+02 -0.10818825755E+03  0.13607298951E+03  0.78641267834E+02 0.  0.
          5    1    5    5  501    0  0.30392744927E+01  0.25280598272E+02  0.42142568629E+02  0.49461418592E+02  0.47000000000E+01 0. -1.
        -11    1    6    6    0    0  0.35887201259E+02  0.11500494134E+01 -0.15896284532E+02  0.39267106970E+02  0.00000000000E+00 0.  1.
         12    1    6    6    0    0 -0.20454241298E+02 -0.20861318821E+02 -0.92291973019E+02  0.96805882537E+02  0.00000000000E+00 0. -1.
         -5    1    3    3    0  503 -0.74119784471E+02 -0.66198104146E+01 -0.66614992014E+02  0.99986056533E+02  0.47000000000E+01 0.  1.
         13    1    4    4    0    0  0.29879277156E+02 -0.12085812810E+02 -0.68509943726E+02  0.75712947796E+02  0.00000000000E+00 0. -1.
        -14    1    4    4    0    0  0.25768272862E+02  0.13136294359E+02  0.17047062855E+02  0.33573329709E+02  0.00000000000E+00 0.  1.
</event>
<event>
12    1  0.8421768E-002  0.1754367E+03  0.7818608E-02  0.1172575E+00
         21   -1    0    0  503  502  0.00000000000E+00  0.00000000000E+00  0.92585928098E+02  0.92585928098E+02  0.00000000000E+00 0. -1.
         21   -1    0    0  501  503 -0.00000000000E+00 -0.00000000000E+00 -0.35131116789E+03  0.35131116789E+03  0.00000000000E+00 0. -1.
          6    2    1    2  501    0 -0.70845589162E+01 -0.32591468800E+02 -0.18323957138E+03  0.25290986781E+03  0.17109724107E+03 0.  0.
         24    2    3    3    0    0  0.35139515033E+02 -0.71723090906E+02 -0.14249049369E+03  0.18222229038E+03  0.80761593811E+02 0.  0.
         -6    2    1    2    0  502  0.70845589162E+01  0.32591468800E+02 -0.75485668415E+02  0.19098722818E+03  0.17223716318E+03 0.  0.
        -24    2    5    5    0    0  0.23061861175E+02 -0.17552827469E+02 -0.10229883883E+03  0.13173555526E+03  0.77776943250E+02 0.  0.
          5    1    3    3  501    0 -0.42224073949E+02  0.39131622106E+02 -0.40749077690E+02  0.70687577424E+02  0.47000000000E+01 0. -1.
        -13    1    4    4    0    0  0.92393744739E+01 -0.62496336877E+02 -0.37011819694E+02  0.73219075115E+02  0.00000000000E+00 0.  1.
         14    1    4    4    0    0  0.25900140559E+02 -0.92267540293E+01 -0.10547867400E+03  0.10900321527E+03  0.00000000000E+00 0. -1.
         -5    1    5    5    0  502 -0.15977302259E+02  0.50144296269E+02  0.26813170418E+02  0.59251672918E+02  0.47000000000E+01 0.  1.
         13    1    6    6    0    0  0.53025645322E+01 -0.10413065283E+02  0.11466288830E+02  0.16371465992E+02  0.00000000000E+00 0. -1.
        -14    1    6    6    0    0  0.17759296643E+02 -0.71397621859E+01 -0.11376512766E+03  0.11536408927E+03  0.00000000000E+00 0.  1.
</event>
<event>
12    1  0.8421768E-002  0.1894761E+03  0.7818608E-02  0.1159255E+00
         21   -1    0    0  501  502  0.00000000000E+00  0.00000000000E+00  0.22638092722E+03  0.22638092722E+03  0.00000000000E+00 0. -1.
         21   -1    0    0  502  503 -0.00000000000E+00 -0.00000000000E+00 -0.85176559603E+03  0.85176559603E+03  0.00000000000E+00 0. -1.
         -6    2    1    2    0  503 -0.33054152917E+02 -0.68216989359E+02 -0.79962695689E+03  0.82176911043E+03  0.17365214081E+03 0.  0.
        -24    2    3    3    0    0 -0.66967672239E+02 -0.59447976602E+02 -0.75858603530E+03  0.76760759621E+03  0.75828212161E+02 0.  0.
          6    2    1    2  501    0  0.33054152917E+02  0.68216989359E+02  0.17424228808E+03  0.25637741282E+03  0.17211295183E+03 0.  0.
         24    2    5    5    0    0 -0.46695989856E+02  0.33084878169E+02  0.80438468752E+02  0.12825404638E+03  0.81875689462E+02 0.  0.
          5    1    5    5  501    0  0.79750142773E+02  0.35132111189E+02  0.93803819327E+02  0.12812336645E+03  0.47000000000E+01 0. -1.
        -11    1    6    6    0    0 -0.13581814379E+02 -0.26977277868E+02  0.16156402429E+02  0.34253007787E+02  0.00000000000E+00 0.  1.
         12    1    6    6    0    0 -0.33114175478E+02  0.60062156037E+02  0.64282066323E+02  0.94001038591E+02  0.00000000000E+00 0. -1.
         -5    1    3    3    0  503  0.33913519322E+02 -0.87690127569E+01 -0.41040921588E+02  0.54161514217E+02  0.47000000000E+01 0.  1.
         11    1    4    4    0    0 -0.39344577917E+02 -0.44060946056E+02 -0.21109231719E+03  0.21920157197E+03  0.00000000000E+00 0. -1.
        -12    1    4    4    0    0 -0.27623094321E+02 -0.15387030546E+02 -0.54749371811E+03  0.54840602424E+03  0.00000000000E+00 0.  1.
</event>
<event>
12    1  0.8421768E-002  0.2126437E+03  0.7818608E-02  0.1139794E+00
         21   -1    0    0  501  502  0.00000000000E+00  0.00000000000E+00  0.95815131349E+02  0.95815131349E+02  0.00000000000E+00 0.  1.
         21   -1    0    0  502  503 -0.00000000000E+00 -0.00000000000E+00 -0.66262822868E+03  0.66262822868E+03  0.00000000000E+00 0.  1.
         -6    2    1    2    0  503 -0.22202309765E+02 -0.12208189341E+03 -0.48941539918E+03  0.53361483794E+03  0.17268593184E+03 0.  0.
        -24    2    3    3    0    0  0.10913560991E+02 -0.68241147952E+02 -0.11720569627E+03  0.15604677824E+03  0.76403283129E+02 0.  0.
          6    2    1    2  501    0  0.22202309765E+02  0.12208189341E+03 -0.77397698156E+02  0.22482852209E+03  0.17076454377E+03 0.  0.
         24    2    5    5    0    0  0.77407536215E+02  0.75464735108E+02 -0.44700353243E+02  0.14538053383E+03  0.86316424438E+02 0.  0.
          5    1    5    5  501    0 -0.55205226451E+02  0.46617158301E+02 -0.32697344913E+02  0.79447988268E+02  0.47000000000E+01 0. -1.
        -13    1    6    6    0    0  0.44938291486E+02  0.28331726497E+02  0.21992283500E+02  0.57496063357E+02  0.00000000000E+00 0.  1.
         14    1    6    6    0    0  0.32469244729E+02  0.47133008611E+02 -0.66692636743E+02  0.87884470470E+02  0.00000000000E+00 0. -1.
         -5    1    3    3    0  503 -0.33115870756E+02 -0.53840745457E+02 -0.37220970290E+03  0.37756805970E+03  0.47000000000E+01 0.  1.
         13    1    4    4    0    0 -0.14810118925E+02  0.95900871108E+01 -0.76800394763E+01  0.19242983130E+02  0.00000000000E+00 0. -1.
        -14    1    4    4    0    0  0.25723679916E+02 -0.77831235062E+02 -0.10952565680E+03  0.13680379511E+03  0.00000000000E+00 0.  1.
</event>
<event>
12    1  0.8421768E-002  0.2015847E+03  0.7818608E-02  0.1148418E+00
         21   -1    0    0  503  502  0.00000000000E+00  0.00000000000E+00  0.19274254388E+03  0.19274254388E+03  0.00000000000E+00 0.  1.
         21   -1    0    0  501  503 -0.00000000000E+00 -0.00000000000E+00 -0.23188069121E+03  0.23188069121E+03  0.00000000000E+00 0.  1.
          6    2    1    2  501    0 -0.10228040277E+03  0.25414345610E+02  0.44462373810E+02  0.20642991300E+03  0.17184073016E+03 0.  0.
         24    2    3    3    0    0 -0.13713442611E+03  0.82035781302E+01  0.38600291326E+02  0.16683865802E+03  0.86440764697E+02 0.  0.
         -6    2    1    2    0  502  0.10228040277E+03 -0.25414345610E+02 -0.83600521143E+02  0.21819332209E+03  0.17179088718E+03 0.  0.
        -24    2    5    5    0    0  0.67529022287E+02 -0.48472062897E+02 -0.11741885211E+03  0.16429446978E+03  0.79345927652E+02 0.  0.
          5    1    3    3  501    0  0.34854023337E+02  0.17210767480E+02  0.58620824841E+01  0.39591254983E+02  0.47000000000E+01 0. -1.
        -11    1    4    4    0    0 -0.10542809230E+03  0.72004690296E+01 -0.12791261509E+02  0.10644503638E+03  0.00000000000E+00 0.  1.
         12    1    4    4    0    0 -0.31706333810E+02  0.10031091006E+01  0.51391552835E+02  0.60393621637E+02  0.00000000000E+00 0. -1.
         -5    1    5    5    0  502  0.34751380482E+02  0.23057717287E+02  0.33818330969E+02  0.53898852320E+02  0.47000000000E+01 0.  1.
         13    1    6    6    0    0  0.38460626750E+02 -0.43801359641E+02 -0.18604571287E+02  0.61187490463E+02  0.00000000000E+00 0. -1.
        -14    1    6    6    0    0  0.29068395537E+02 -0.46707032557E+01 -0.98814280824E+02  0.10310697931E+03  0.00000000000E+00 0.  1.
</event>
<event>
12    1  0.8421768E-002  0.2358258E+03  0.7818608E-02  0.1122983E+00
         21   -1    0    0  501  502  0.00000000000E+00  0.00000000000E+00  0.19859576649E+03  0.19859576649E+03  0.00000000000E+00 0.  1.
         21   -1    0    0  502  503 -0.00000000000E+00 -0.00000000000E+00 -0.32822959462E+03  0.32822959462E+03  0.00000000000E+00 0.  1.
         -6    2    1    2    0  503  0.11551789296E+03 -0.10924819618E+03 -0.16871250896E+03  0.28996155470E+03  0.17416727753E+03 0.  0.
        -24    2    3    3    0    0  0.12109447842E+03 -0.13167009091E+03 -0.10517949967E+03  0.22219450564E+03  0.79415273347E+02 0.  0.
          6    2    1    2  501    0 -0.11551789296E+03  0.10924819618E+03  0.39078680836E+02  0.23686380640E+03  0.17116590643E+03 0.  0.
         24    2    5    5    0    0 -0.36106021861E+02  0.43685843277E+02 -0.34444860427E+02  0.11024442199E+03  0.88064104220E+02 0.  0.
          5    1    5    5  501    0 -0.79411871100E+02  0.65562352903E+02  0.73523541262E+02  0.12661938441E+03  0.47000000000E+01 0. -1.
        -13    1    6    6    0    0 -0.23077718255E+02  0.70869039490E+02 -0.22986045533E+02  0.77995898145E+02  0.00000000000E+00 0.  1.
         14    1    6    6    0    0 -0.13028303605E+02 -0.27183196214E+02 -0.11458814894E+02  0.32248523842E+02  0.00000000000E+00 0. -1.
         -5    1    3    3    0  503 -0.55765854581E+01  0.22421894733E+02 -0.63533009299E+02  0.67767049068E+02  0.47000000000E+01 0.  1.
         13    1    4    4    0    0  0.34141732515E+02 -0.50813607974E+01  0.25340263798E+01  0.34610683558E+02  0.00000000000E+00 0. -1.
        -14    1    4    4    0    0  0.86952745904E+02 -0.12658873012E+03 -0.10771352605E+03  0.18758382208E+03  0.00000000000E+00 0.  1.
</event>
<event>
12    1  0.8421768E-002  0.2031429E+03  0.7818608E-02  0.1150290E+00
         21   -1    0    0  503  502  0.00000000000E+00  0.00000000000E+00  0.13080399596E+03  0.13080399596E+03  0.00000000000E+00 0.  1.
         21   -1    0    0  501  503 -0.00000000000E+00 -0.00000000000E+00 -0.31132718821E+03  0.31132718821E+03  0.00000000000E+00 0.  1.
          6    2    1    2  501    0 -0.10203207390E+03  0.34100460997E+02 -0.33437180581E+02  0.19132982159E+03  0.15464692056E+03 0.  0.
         24    2    3    3    0    0 -0.55063235238E+02 -0.28693341305E+02  0.11790296952E+02  0.10068354126E+03  0.78376633433E+02 0.  0.
         -6    2    1    2    0  502  0.10203207390E+03 -0.34100460997E+02 -0.14708601167E+03  0.25080136259E+03  0.17231843518E+03 0.  0.
        -24    2    5    5    0    0 -0.42470815442E+01  0.17881496037E+02 -0.85046657475E+02  0.11712879918E+03  0.78411963674E+02 0.  0.
          5    1    3    3  501    0 -0.46968838661E+02  0.62793802302E+02 -0.45227477533E+02  0.90646280325E+02  0.47000000000E+01 0. -1.
        -11    1    4    4    0    0 -0.43444219722E+02  0.11744906499E+02 -0.18688206763E+02  0.48729786865E+02  0.00000000000E+00 0.  1.
         12    1    4    4    0    0 -0.11619015516E+02 -0.40438247804E+02  0.30478503715E+02  0.51953754395E+02  0.00000000000E+00 0. -1.
         -5    1    5    5    0  502  0.10627915544E+03 -0.51981957034E+02 -0.62039354195E+02  0.13367256341E+03  0.47000000000E+01 0.  1.
         13    1    6    6    0    0 -0.20376666368E+02 -0.18715494441E+02 -0.56646877783E+01  0.28241227879E+02  0.00000000000E+00 0. -1.
        -14    1    6    6    0    0  0.16129584824E+02  0.36596990478E+02 -0.79381969696E+02  0.88887571299E+02  0.00000000000E+00 0.  1.
</event>
<event>
12    1  0.8421768E-002  0.2140801E+03  0.7818608E-02  0.1138442E+00
         21   -1    0    0  503  502  0.00000000000E+00  0.00000000000E+00  0.23554912088E+03  0.23554912088E+03  0.00000000000E+00 0. -1.
         21   -1    0    0  501  503 -0.00000000000E+00 -0.00000000000E+00 -0.21906015960E+03  0.21906015960E+03  0.00000000000E+00 0. -1.
          6    2    1    2  501    0 -0.33376023725E+02  0.12366200088E+03 -0.68255530415E+02  0.22436613714E+03  0.17109966873E+03 0.  0.
         24    2    3    3    0    0 -0.45718987792E+02  0.70771904663E+02 -0.10690317596E+03  0.15754217777E+03  0.79324399841E+02 0.  0.
         -6    2    1    2    0  502  0.33376023725E+02 -0.12366200088E+03  0.84744491702E+02  0.23024314334E+03  0.17153433114E+03 0.  0.
        -24    2    5    5    0    0  0.65182895969E+02 -0.19107159480E+02  0.23474399514E+02  0.10486568851E+03  0.76366692503E+02 0.  0.
          5    1    3    3  501    0  0.12342964067E+02  0.52890096218E+02  0.38647645547E+02  0.66823959373E+02  0.47000000000E+01 0. -1.
        -11    1    4    4    0    0 -0.15887826334E+02 -0.16511693957E+02 -0.15356760624E+02  0.27584219398E+02  0.00000000000E+00 0.  1.
         12    1    4    4    0    0 -0.29831161458E+02  0.87283598620E+02 -0.91546415339E+02  0.12995795837E+03  0.00000000000E+00 0. -1.
         -5    1    5    5    0  502 -0.31806872244E+02 -0.10455484140E+03  0.61270092188E+02  0.12537745483E+03  0.47000000000E+01 0.  1.
         13    1    6    6    0    0  0.20141615305E+02 -0.36211263719E+02  0.36213414688E+02  0.55030461479E+02  0.00000000000E+00 0. -1.
        -14    1    6    6    0    0  0.45041280663E+02  0.17104104239E+02 -0.12739015174E+02  0.49835227031E+02  0.00000000000E+00 0.  1.
</event>
<event>
12    1  0.8421768E-002  0.2266714E+03  0.7818608E-02  0.1131478E+00
         21   -1    0    0  501  502  0.00000000000E+00  0.00000000000E+00  0.13007008370E+03  0.13007008370E+03  0.00000000000E+00 0.  1.
         21   -1    0    0  502  503 -0.00000000000E+00 -0.00000000000E+00 -0.44788695665E+03  0.44788695665E+03  0.00000000000E+00 0.  1.
         -6    2    1    2    0  503  0.76157136458E+02 -0.10076692703E+03 -0.28174592386E+03  0.36160849429E+03  0.18821810358E+03 0.  0.
        -24    2    3    3    0    0  0.29259681651E+02  0.28920800303E+01 -0.21125549437E+03  0.22768481580E+03  0.79668050986E+02 0.  0.
          6    2    1    2  501    0 -0.76157136458E+02  0.10076692703E+03 -0.36070949081E+02  0.21634854606E+03  0.17190607028E+03 0.  0.
         24    2    5    5    0    0 -0.98207946133E+02  0.10072998501E+03 -0.69208902503E+02  0.17626795813E+03  0.80555510754E+02 0.  0.
          5    1    5    5  501    0  0.22050809675E+02  0.36942017914E-01  0.33137953422E+02  0.40080587933E+02  0.47000000000E+01 0. -1.
        -13    1    6    6    0    0 -0.71202929850E+02  0.27091931561E+02 -0.76582577320E+01  0.76566826279E+02  0.00000000000E+00 0.  1.
         14    1    6    6    0    0 -0.27005016284E+02  0.73638053447E+02 -0.61550644771E+02  0.99701131847E+02  0.00000000000E+00 0. -1.
         -5    1    3    3    0  503  0.46897454807E+02 -0.10365900706E+03 -0.70490429498E+02  0.13392367850E+03  0.47000000000E+01 0.  1.
         11    1    4    4    0    0  0.35094787962E+01 -0.23124524777E+02 -0.17360297038E+03  0.17517149144E+03  0.00000000000E+00 0. -1.
        -12    1    4    4    0    0  0.25750202855E+02  0.26016604808E+02 -0.37652523983E+02  0.52513324357E+02  0.00000000000E+00 0.  1.
</event>
<event>
12    1  0.8421768E-002  0.2074834E+03  0.7818608E-02  0.1143595E+00
         21   -1    0    0  503  502  0.00000000000E+00  0.00000000000E+00  0.19291464643E+03  0.19291464643E+03  0.00000000000E+00 0. -1.
         21   -1    0    0  501  503 -0.00000000000E+00 -0.00000000000E+00 -0.24663898718E+03  0.24663898718E+03  0.00000000000E+00 0. -1.
          6    2    1    2  501    0 -0.89206358101E+02 -0.74542572110E+02 -0.94846857871E+02  0.22813440557E+03  0.17185753161E+03 0.  0.
         24    2    3    3    0    0 -0.64125880070E+02 -0.15782054810E+02  0.93578390957E+01  0.10581295348E+03  0.82143838612E+02 0.  0.
         -6    2    1    2    0  502  0.89206358101E+02  0.74542572110E+02  0.41122517115E+02  0.21141922805E+03  0.17173426912E+03 0.  0.
        -24    2    5    5    0    0 -0.84985545819E+01 -0.83098213644E+01 -0.85641209709E+00  0.76530052926E+02  0.75596540914E+02 0.  0.
          5    1    3    3  501    0 -0.25080478030E+02 -0.58760517300E+02 -0.10420469697E+03  0.12232145209E+03  0.47000000000E+01 0. -1.
        -11    1    4    4    0    0 -0.19405391703E+02  0.33158465453E+02 -0.23513591355E+01  0.38491323024E+02  0.00000000000E+00 0.  1.
         12    1    4    4    0    0 -0.44720488367E+02 -0.48940520264E+02  0.11709198231E+02  0.67321630452E+02  0.00000000000E+00 0. -1.
         -5    1    5    5    0  502  0.97704912682E+02  0.82852393475E+02  0.41978929212E+02  0.13488917512E+03  0.47000000000E+01 0.  1.
         11    1    6    6    0    0  0.32690778216E+02  0.51668079193E+01 -0.22167850462E+01  0.33170725352E+02  0.00000000000E+00 0. -1.
        -12    1    6    6    0    0 -0.41189332798E+02 -0.13476629284E+02  0.13603729491E+01  0.43359327575E+02  0.00000000000E+00 0.  1.
</event>
<event>
12    1  0.8421768E-002  0.1874283E+03  0.7818608E-02  0.1161404E+00
         21   -1    0    0  501  502  0.00000000000E+00  0.00000000000E+00  0.47807341082E+02  0.47807341082E+02  0.00000000000E+00 0.  1.
         21   -1    0    0  502  503 -0.00000000000E+00 -0.00000000000E+00 -0.75449755034E+03  0.75449755034E+03  0.00000000000E+00 0. -1.
         -6    2    1    2    0  503  0.15962034716E+02 -0.63825281841E+02 -0.27591894840E+03  0.33355752764E+03  0.17550186610E+03 0.  0.
        -24    2    3    3    0    0  0.26741030243E+00  0.25081228003E+02 -0.72957009358E+02  0.11137218288E+03  0.80323710059E+02 0.  0.
          6    2    1    2  501    0 -0.15962034716E+02  0.63825281841E+02 -0.43077126086E+03  0.46874736379E+03  0.17271872718E+03 0.  0.
         24    2    5    5    0    0 -0.86809951729E+01  0.73085148496E+02 -0.44004034156E+03  0.45303862341E+03  0.78687314693E+02 0.  0.
          5    1    5    5  501    0 -0.72810395432E+01 -0.92598666549E+01  0.92690806962E+01  0.15708740378E+02  0.47000000000E+01 0. -1.
        -11    1    6    6    0    0  0.28903854555E+02  0.39840966261E+02 -0.13081769066E+03  0.13977125452E+03  0.00000000000E+00 0.  1.
         12    1    6    6    0    0 -0.37584849728E+02  0.33244182235E+02 -0.30922265090E+03  0.31326736889E+03  0.00000000000E+00 0. -1.
         -5    1    3    3    0  503  0.15694624414E+02 -0.88906509844E+02 -0.20296193904E+03  0.22218534476E+03  0.47000000000E+01 0.  1.
         11    1    4    4    0    0 -0.19384336056E+02  0.20393448601E+02 -0.83832302092E+02  0.88427937351E+02  0.00000000000E+00 0. -1.
        -12    1    4    4    0    0  0.19651746359E+02  0.46877794024E+01  0.10875292734E+02  0.22944245525E+02  0.00000000000E+00 0.  1.
</event>
<event>
12    1  0.8421768E-002  0.1819860E+03  0.7818608E-02  0.1165964E+00
         21   -1    0    0  501  502  0.00000000000E+00  0.00000000000E+00  0.33169239352E+02  0.33169239352E+02  0.00000000000E+00 0. -1.
         21   -1    0    0  502  503 -0.00000000000E+00 -0.00000000000E+00 -0.10234570190E+04  0.10234570190E+04  0.00000000000E+00 0. -1.
         -6    2    1    2    0  503  0.43702253018E+02 -0.38896233267E+02 -0.58065835667E+03  0.60850886238E+03  0.17232557718E+03 0.  0.
        -24    2    3    3    0    0 -0.19139339581E+02 -0.69568412843E+02 -0.28793762728E+03  0.30751490269E+03  0.80319734729E+02 0.  0.
          6    2    1    2  501    0 -0.43702253018E+02  0.38896233267E+02 -0.40962942295E+03  0.44811739594E+03  0.17201782615E+03 0.  0.
         24    2    5    5    0    0 -0.22607588287E+02  0.35004262679E+02 -0.41320401815E+03  0.42586879944E+03  0.94288240375E+02 0.  0.
          5    1    5    5  501    0 -0.21094664731E+02  0.38919705876E+01  0.35745951958E+01  0.22248596495E+02  0.47000000000E+01 0. -1.
        -13    1    6    6    0    0  0.19910948842E+00 -0.23506074812E+02 -0.33016556166E+02  0.40529843063E+02  0.00000000000E+00 0.  1.
         14    1    6    6    0    0 -0.22806697775E+02  0.58510337492E+02 -0.38018746198E+03  0.38533895638E+03  0.00000000000E+00 0. -1.
         -5    1    3    3    0  503  0.62841592599E+02  0.30672179576E+02 -0.29272072938E+03  0.30099395969E+03  0.47000000000E+01 0.  1.
         13    1    4    4    0    0  0.21954503810E+02 -0.59374013876E+02 -0.14017602451E+03  0.15380699467E+03  0.00000000000E+00 0. -1.
        -14    1    4    4    0    0 -0.41093843391E+02 -0.10194398967E+02 -0.14776160277E+03  0.15370790802E+03  0.00000000000E+00 0.  1.
</event>
<event>
12    1  0.8421768E-002  0.1805664E+03  0.7818608E-02  0.1167516E+00
         21   -1    0    0  501  502  0.00000000000E+00  0.00000000000E+00  0.66710084120E+03  0.66710084120E+03  0.00000000000E+00 0. -1.
         21   -1    0    0  502  503 -0.00000000000E+00 -0.00000000000E+00 -0.48688261996E+02  0.48688261996E+02  0.00000000000E+00 0. -1.
         -6    2    1    2    0  503 -0.28269080187E+02 -0.41426710916E+02  0.29171373894E+03  0.34251124838E+03  0.17234191744E+03 0.  0.
        -24    2    3    3    0    0  0.26698833886E+02 -0.72248244273E+02  0.22356557514E+03  0.24957201702E+03  0.79824737769E+02 0.  0.
          6    2    1    2  501    0  0.28269080187E+02  0.41426710916E+02  0.32669884026E+03  0.37327785481E+03  0.17346155596E+03 0.  0.
         24    2    5    5    0    0 -0.18253316175E+02  0.12055782980E+02  0.61956198999E+02  0.10283795230E+03  0.79110987757E+02 0.  0.
          5    1    5    5  501    0  0.46522396362E+02  0.29370927936E+02  0.26474264126E+03  0.27043990252E+03  0.47000000000E+01 0. -1.
        -11    1    6    6    0    0  0.25891714102E+02 -0.13719224802E+02  0.12994652564E+02  0.32054001055E+02  0.00000000000E+00 0.  1.
         12    1    6    6    0    0 -0.44145030278E+02  0.25775007782E+02  0.48961546435E+02  0.70783951244E+02  0.00000000000E+00 0. -1.
         -5    1    3    3    0  503 -0.54967914073E+02  0.30821533358E+02  0.68148163798E+02  0.92939231356E+02  0.47000000000E+01 0.  1.
         13    1    4    4    0    0  0.27168689575E+02 -0.72747932140E+02  0.10294694065E+03  0.12895143238E+03  0.00000000000E+00 0. -1.
        -14    1    4    4    0    0 -0.46985568836E+00  0.49968786684E+00  0.12061863449E+03  0.12062058464E+03  0.00000000000E+00 0.  1.
</event>
<event>
12    1  0.8421768E-002  0.1908618E+03  0.7818608E-02  0.1158075E+00
         21   -1    0    0  503  502  0.00000000000E+00  0.00000000000E+00  0.10149777646E+03  0.10149777646E+03  0.00000000000E+00 0. -1.
         21   -1    0    0  501  503 -0.00000000000E+00 -0.00000000000E+00 -0.36002649813E+03  0.36002649813E+03  0.00000000000E+00 0. -1.
          6    2    1    2  501    0 -0.67295499572E+00 -0.83948042279E+02 -0.10445002605E+03  0.21757304199E+03  0.17140739187E+03 0.  0.
         24    2    3    3    0    0  0.12037598416E+02 -0.13331714267E+02 -0.11837865388E+03  0.14433151945E+03  0.80594313891E+02 0.  0.
         -6    2    1    2    0  502  0.67295499572E+00  0.83948042279E+02 -0.15407869562E+03  0.24395123261E+03  0.16948224915E+03 0.  0.
        -24    2    5    5    0    0 -0.37932256006E+01 -0.15392132835E+02 -0.75893296093E+02  0.11736741113E+03  0.88113622609E+02 0.  0.
          5    1    3    3  501    0 -0.12710553412E+02 -0.70616328012E+02  0.13928627834E+02  0.73241522535E+02  0.47000000000E+01 0. -1.
        -13    1    4    4    0    0  0.31546716175E+02  0.50842084646E+01 -0.11238851690E+03  0.11684272852E+03  0.00000000000E+00 0.  1.
         14    1    4    4    0    0 -0.19509117759E+02 -0.18415922732E+02 -0.59901369813E+01  0.27488790931E+02  0.00000000000E+00 0. -1.
         -5    1    5    5    0  502  0.44661805964E+01  0.99340175114E+02 -0.78185399530E+02  0.12658382148E+03  0.47000000000E+01 0.  1.
         11    1    6    6    0    0  0.40121304048E+02  0.46994493072E+01 -0.26640927177E+02  0.48389491247E+02  0.00000000000E+00 0. -1.
        -12    1    6    6    0    0 -0.43914529649E+02 -0.20091582142E+02 -0.49252368916E+02  0.68977919881E+02  0.00000000000E+00 0.  1.
</event>
<event>
12    1  0.8421768E-002  0.2779548E+03  0.7818608E-02  0.1096870E+00
         21   -1    0    0  503  502  0.00000000000E+00  0.00000000000E+00  0.48258929193E+03  0.48258929193E+03  0.00000000000E+00 0. -1.
         21   -1    0    0  501  503 -0.00000000000E+00 -0.00000000000E+00 -0.26502978551E+03  0.26502978551E+03  0.00000000000E+00 0.  1.
          6    2    1    2  501    0 -0.30519544398E+01  0.21845490423E+03 -0.12666267373E+03  0.30545425517E+03  0.17183425002E+03 0.  0.
         24    2    3    3    0    0 -0.44597944397E+02  0.12323980727E+03 -0.13026942889E+03  0.20140098683E+03  0.80094985191E+02 0.  0.
         -6    2    1    2    0  502  0.30519544398E+01 -0.21845490423E+03  0.34422218016E+03  0.44216482227E+03  0.17114017978E+03 0.  0.
        -24    2    5    5    0    0 -0.30496085723E+02 -0.22029789035E+03  0.32594970877E+03  0.40363119011E+03  0.84933816884E+02 0.  0.
          5    1    3    3  501    0  0.41545989957E+02  0.95215096958E+02  0.36067551565E+01  0.10405326834E+03  0.47000000000E+01 0. -1.
        -11    1    4    4    0    0 -0.51406173665E+02  0.12612548687E+03 -0.96723910318E+02  0.16705013606E+03  0.00000000000E+00 0.  1.
         12    1    4    4    0    0  0.68082292681E+01 -0.28856796040E+01 -0.33545518570E+02  0.34350850771E+02  0.00000000000E+00 0. -1.
         -5    1    5    5    0  502  0.33548040163E+02  0.18429861197E+01  0.18272471390E+02  0.38533632158E+02  0.47000000000E+01 0.  1.
         13    1    6    6    0    0 -0.97667680036E+01 -0.53585178257E+02  0.15350648495E+03  0.16288340004E+03  0.00000000000E+00 0. -1.
        -14    1    6    6    0    0 -0.20729317719E+02 -0.16671271209E+03  0.17244322382E+03  0.24074779007E+03  0.00000000000E+00 0.  1.
</event>
<event>
12    1  0.8421768E-002  0.1728149E+03  0.7818608E-02  0.1175075E+00
         21   -1    0    0  501  502  0.00000000000E+00  0.00000000000E+00  0.37498670126E+03  0.37498670126E+03  0.00000000000E+00 0.  1.
         21   -1    0    0  502  503 -0.00000000000E+00 -0.00000000000E+00 -0.26579426583E+03  0.26579426583E+03  0.00000000000E+00 0.  1.
         -6    2    1    2    0  503  0.18118399746E+02  0.51142057801E+00 -0.21372486301E+03  0.27452892498E+03  0.17134548613E+03 0.  0.
        -24    2    3    3    0    0  0.49958870159E+02 -0.20772237593E+02 -0.81185929667E+02  0.13648737864E+03  0.95447759485E+02 0.  0.
          6    2    1    2  501    0 -0.18118399746E+02 -0.51142057801E+00  0.32291729844E+03  0.36625204212E+03  0.17186168498E+03 0.  0.
         24    2    5    5    0    0 -0.98921321453E+01 -0.66174221335E+02  0.22633786024E+03  0.24908142821E+03  0.79598046777E+02 0.  0.
          5    1    5    5  501    0 -0.82262676012E+01  0.65662800757E+02  0.96579438197E+02  0.11717061391E+03  0.47000000000E+01 0. -1.
        -11    1    6    6    0    0 -0.64838194893E+01 -0.53938504947E+02  0.22962283263E+03  0.23596196197E+03  0.00000000000E+00 0.  1.
         12    1    6    6    0    0 -0.34083126559E+01 -0.12235716388E+02 -0.32849723905E+01  0.13119466235E+02  0.00000000000E+00 0. -1.
         -5    1    3    3    0  503 -0.31840470412E+02  0.21283658171E+02 -0.13253893335E+03  0.13804154633E+03  0.47000000000E+01 0.  1.
         13    1    4    4    0    0 -0.51006645239E+01  0.27131365476E+02 -0.38923747119E+00  0.27609405589E+02  0.00000000000E+00 0. -1.
        -14    1    4    4    0    0  0.55059534683E+02 -0.47903603070E+02 -0.80796692196E+02  0.10887797305E+03  0.00000000000E+00 0.  1.
</event>
<event>
12    1  0.8421768E-002  0.1793569E+03  0.7818608E-02  0.1168774E+00
         21   -1    0    0  501  502  0.00000000000E+00  0.00000000000E+00  0.92876355692E+03  0.92876355692E+03  0.00000000000E+00 0. -1.
         21   -1    0    0  502  503 -0.00000000000E+00 -0.00000000000E+00 -0.36297146854E+02  0.36297146854E+02  0.00000000000E+00 0. -1.
         -6    2    1    2    0  503  0.28406080605E+02  0.63143510182E+02  0.33651493054E+03  0.38132819842E+03  0.16545358304E+03 0.  0.
        -24    2    3    3    0    0  0.75222767653E+02  0.40344892167E+02  0.28528413788E+03  0.30812803937E+03  0.79181274414E+02 0.  0.
          6    2    1    2  501    0 -0.28406080605E+02 -0.63143510182E+02  0.55595147952E+03  0.58373250535E+03  0.16391333663E+03 0.  0.
         24    2    5    5    0    0  0.16729125196E+02  0.67713186269E+01  0.38141398183E+03  0.39031405176E+03  0.80887076081E+02 0.  0.
          5    1    5    5  501    0 -0.45135205802E+02 -0.69914828809E+02  0.17453749769E+03  0.19341845359E+03  0.47000000000E+01 0. -1.
        -11    1    6    6    0    0  0.28765800787E+02 -0.31557909775E+02  0.19601163214E+03  0.20060890533E+03  0.00000000000E+00 0.  1.
         12    1    6    6    0    0 -0.12036675591E+02  0.38329228402E+02  0.18540234970E+03  0.18970514643E+03  0.00000000000E+00 0. -1.
         -5    1    3    3    0  503 -0.46816687048E+02  0.22798618015E+02  0.51230792656E+02  0.73200159055E+02  0.47000000000E+01 0.  1.
         11    1    4    4    0    0  0.52555033739E+02  0.64299904780E+02  0.19218096871E+03  0.20935623722E+03  0.00000000000E+00 0. -1.
        -12    1    4    4    0    0  0.22667733914E+02 -0.23955012614E+02  0.93103169171E+02  0.98771802149E+02  0.00000000000E+00 0.  1.
</event>
<event>
12    1  0.8421768E-002  0.1760532E+03  0.7818608E-02  0.1172511E+00
         21   -1    0    0  503  502  0.00000000000E+00  0.00000000000E+00  0.10184081917E+04  0.10184081917E+04  0.00000000000E+00 0. -1.
         21   -1    0    0  501  503 -0.00000000000E+00 -0.00000000000E+00 -0.30513455264E+02  0.30513455264E+02  0.00000000000E+00 0. -1.
          6    2    1    2  501    0  0.25601507564E+02  0.30578262269E+02  0.42209775296E+03  0.45734151156E+03  0.17147675595E+03 0.  0.
         24    2    3    3    0    0 -0.12307972322E+02  0.78590250612E+02  0.30498205161E+03  0.32512783151E+03  0.79788102783E+02 0.  0.
         -6    2    1    2    0  502 -0.25601507564E+02 -0.30578262269E+02  0.56579698344E+03  0.59158013537E+03  0.16807844233E+03 0.  0.
        -24    2    5    5    0    0  0.39912362390E+02 -0.40406689380E+01  0.23202755864E+03  0.25037575388E+03  0.85099391791E+02 0.  0.
          5    1    3    3  501    0  0.37909479886E+02 -0.48011988342E+02  0.11711570135E+03  0.13221368005E+03  0.47000000000E+01 0. -1.
        -11    1    4    4    0    0  0.87661761642E+01  0.24219917462E+02  0.22322630810E+03  0.22470744285E+03  0.00000000000E+00 0.  1.
         12    1    4    4    0    0 -0.21074148486E+02  0.54370333150E+02  0.81755743510E+02  0.10042038866E+03  0.00000000000E+00 0. -1.
         -5    1    5    5    0  502 -0.65513869953E+02 -0.26537593331E+02  0.33376942480E+03  0.34120438149E+03  0.47000000000E+01 0.  1.
         11    1    6    6    0    0 -0.13869210084E+02 -0.59444576788E+01  0.15872059242E+03  0.15943625066E+03  0.00000000000E+00 0. -1.
        -12    1    6    6    0    0  0.53781572474E+02  0.19037887408E+01  0.73306966226E+02  0.90939503224E+02  0.00000000000E+00 0.  1.
</event>
<event>
12    1  0.8421768E-002  0.1995173E+03  0.7818608E-02  0.1150151E+00
         21   -1    0    0  503  502  0.00000000000E+00  0.00000000000E+00  0.11519565674E+03  0.11519565674E+03  0.00000000000E+00 0.  1.
         21   -1    0    0  501  503 -0.00000000000E+00 -0.00000000000E+00 -0.43933015830E+03  0.43933015830E+03  0.00000000000E+00 0.  1.
          6    2    1    2  501    0 -0.85962920170E+02 -0.53542093617E+02 -0.29018679012E+03  0.35215840093E+03  0.17190342273E+03 0.  0.
         24    2    3    3    0    0 -0.56033050125E+02 -0.46439593477E+02 -0.30041199925E+03  0.31940343900E+03  0.80466446444E+02 0.  0.
         -6    2    1    2    0  502  0.85962920170E+02  0.53542093617E+02 -0.33947711435E+02  0.20236741411E+03  0.17188293618E+03 0.  0.
        -24    2    5    5    0    0  0.13495594808E+02  0.83878651798E+02 -0.40540344436E+02  0.12339037430E+03  0.79774091261E+02 0.  0.
          5    1    3    3  501    0 -0.29929870045E+02 -0.71025001396E+01  0.10225209126E+02  0.32754961926E+02  0.47000000000E+01 0. -1.
        -11    1    4    4    0    0 -0.50924591576E+02  0.94384137488E+01 -0.16090906137E+03  0.16903882309E+03  0.00000000000E+00 0.  1.
         12    1    4    4    0    0 -0.51084585492E+01 -0.55878007226E+02 -0.13950293788E+03  0.15036461591E+03  0.00000000000E+00 0. -1.
         -5    1    5    5    0  502  0.72467325362E+02 -0.30336558182E+02  0.65926330007E+01  0.78977039811E+02  0.47000000000E+01 0.  1.
         13    1    6    6    0    0 -0.28875070712E+02  0.93070364661E+01 -0.15345115832E+02  0.33997988416E+02  0.00000000000E+00 0. -1.
        -14    1    6    6    0    0  0.42370665521E+02  0.74571615332E+02 -0.25195228604E+02  0.89392385886E+02  0.00000000000E+00 0.  1.
</event>
<event>
12    1  0.8421768E-002  0.1803473E+03  0.7818608E-02  0.1167730E+00
         21   -1    0    0  501  502  0.00000000000E+00  0.00000000000E+00  0.65985816833E+03  0.65985816833E+03  0.00000000000E+00 0.  1.
         21   -1    0    0  502  503 -0.00000000000E+00 -0.00000000000E+00 -0.49495983371E+02  0.49495983371E+02  0.00000000000E+00 0.  1.
         -6    2    1    2    0  503 -0.50215626691E+01  0.54074219662E+02  0.26858198406E+03  0.32291028409E+03  0.17083773612E+03 0.  0.
        -24    2    3    3    0    0 -0.66860405294E+02  0.47377834655E+02  0.15435470993E+03  0.19276096912E+03  0.81341512944E+02 0.  0.
          6    2    1    2  501    0  0.50215626691E+01 -0.54074219662E+02  0.34178020090E+03  0.38644386761E+03  0.17197650935E+03 0.  0.
         24    2    5    5    0    0 -0.65889850891E+02 -0.41650097956E+02  0.16619545090E+03  0.19661530863E+03  0.70430452070E+02 0.  0.
          5    1    5    5  501    0  0.70911413560E+02 -0.12424121707E+02  0.17558475000E+03  0.18982855898E+03  0.47000000000E+01 0. -1.
        -13    1    6    6    0    0  0.25344048118E+01 -0.29667276646E+02  0.23579063417E+02  0.37980820725E+02  0.00000000000E+00 0.  1.
         14    1    6    6    0    0 -0.68424255703E+02 -0.11982821309E+02  0.14261638748E+03  0.15863448790E+03  0.00000000000E+00 0. -1.
         -5    1    3    3    0  503  0.61838842625E+02  0.66963850071E+01  0.11422727414E+03  0.13014931496E+03  0.47000000000E+01 0.  1.
         11    1    4    4    0    0  0.84788895063E+00  0.82617340946E+01  0.92995516155E+02  0.93365631744E+02  0.00000000000E+00 0. -1.
        -12    1    4    4    0    0 -0.67708294245E+02  0.39116100560E+02  0.61359193773E+02  0.99395337381E+02  0.00000000000E+00 0.  1.
</event>
<event>
12    1  0.8421768E-002  0.2138831E+03  0.7818608E-02  0.1140079E+00
         21   -1    0    0  501  502  0.00000000000E+00  0.00000000000E+00  0.46194703057E+03  0.46194703057E+03  0.00000000000E+00 0.  1.
         21   -1    0    0  502  503 -0.00000000000E+00 -0.00000000000E+00 -0.10795403493E+03  0.10795403493E+03  0.00000000000E+00 0.  1.
         -6    2    1    2    0  503  0.13057546580E+02 -0.11273415704E+03  0.82846949008E+02  0.22936782267E+03  0.18129117858E+03 0.  0.
        -24    2    3    3    0    0  0.58763687246E+02 -0.12123241095E+03  0.90409226298E+02  0.18203337801E+03  0.82533957275E+02 0.  0.
          6    2    1    2  501    0 -0.13057546580E+02  0.11273415704E+03  0.27114604663E+03  0.34053324283E+03  0.17193958586E+03 0.  0.
         24    2    5    5    0    0 -0.27328947692E+02  0.11079166108E+01  0.18000768334E+03  0.19564576337E+03  0.71598881291E+02 0.  0.
          5    1    5    5  501    0  0.14271401112E+02  0.11162624043E+03  0.91138363294E+02  0.14488747947E+03  0.47000000000E+01 0. -1.
        -11    1    6    6    0    0 -0.63821243561E+01  0.30553949328E+02  0.38325881936E+02  0.49428216203E+02  0.00000000000E+00 0.  1.
         12    1    6    6    0    0 -0.20946823336E+02 -0.29446032717E+02  0.14168180140E+03  0.14621754716E+03  0.00000000000E+00 0. -1.
         -5    1    3    3    0  503 -0.45706140666E+02  0.84982539137E+01 -0.75622772892E+01  0.47334444667E+02  0.47000000000E+01 0.  1.
         11    1    4    4    0    0  0.46847774462E+02 -0.42479389559E+02  0.79585852636E+02  0.10165195743E+03  0.00000000000E+00 0. -1.
        -12    1    4    4    0    0  0.11915912784E+02 -0.78753021395E+02  0.10823373662E+02  0.80381420576E+02  0.00000000000E+00 0.  1.
</event>
<event>
12    1  0.8421768E-002  0.2123164E+03  0.7818608E-02  0.1139916E+00
         21   -1    0    0  503  502  0.00000000000E+00  0.00000000000E+00  0.18679072131E+02  0.18679072131E+02  0.00000000000E+00 0.  1.
         21   -1    0    0  501  503 -0.00000000000E+00 -0.00000000000E+00 -0.24228937770E+04  0.24228937770E+04  0.00000000000E+00 0.  1.
          6    2    1    2  501    0 -0.11969857940E+03  0.27566358941E+02 -0.13141253621E+04  0.13311663053E+04  0.17317797436E+03 0.  0.
         24    2    3    3    0    0 -0.85926389010E+02 -0.49707632630E+02 -0.84386581891E+03  0.85338187834E+03  0.79353115136E+02 0.  0.
         -6    2    1    2    0  502  0.11969857940E+03 -0.27566358941E+02 -0.10900893428E+04  0.11104065439E+04  0.17210538478E+03 0.  0.
        -24    2    5    5    0    0  0.58451668680E+01 -0.40013292347E+02 -0.35614197464E+03  0.36756177218E+03  0.81420640668E+02 0.  0.
          5    1    3    3  501    0 -0.33772190387E+02  0.77273991571E+02 -0.47025954322E+03  0.47778442692E+03  0.47000000000E+01 0. -1.
        -13    1    4    4    0    0 -0.85979846265E+02 -0.22848475704E+02 -0.76307149241E+03  0.76823999462E+03  0.00000000000E+00 0.  1.
         14    1    4    4    0    0  0.53457255197E-01 -0.26859156925E+02 -0.80794326499E+02  0.85141883717E+02  0.00000000000E+00 0. -1.
         -5    1    5    5    0  502  0.11385341253E+03  0.12446933406E+02 -0.73394736813E+03  0.74284477172E+03  0.47000000000E+01 0.  1.
         13    1    6    6    0    0  0.99720136815E+01 -0.57582045945E+01 -0.19328715047E+01  0.11676213824E+02  0.00000000000E+00 0. -1.
        -14    1    6    6    0    0 -0.41268468135E+01 -0.34255087752E+02 -0.35420910314E+03  0.35588555836E+03  0.00000000000E+00 0.  1.
</event>
<event>
12    1  0.8421768E-002  0.2389709E+03  0.7818608E-02  0.1120729E+00
         21   -1    0    0  503  502  0.00000000000E+00  0.00000000000E+00  0.59725650718E+02  0.59725650718E+02  0.00000000000E+00 0. -1.
         21   -1    0    0  501  503 -0.00000000000E+00 -0.00000000000E+00 -0.99300416687E+03  0.99300416687E+03  0.00000000000E+00 0. -1.
          6    2    1    2  501    0 -0.30892201590E+02 -0.16130409656E+03 -0.57727174230E+03  0.62477977921E+03  0.17359080727E+03 0.  0.
         24    2    3    3    0    0  0.24492848545E+02 -0.14199997503E+03 -0.50716597619E+03  0.53325349158E+03  0.79862796940E+02 0.  0.
         -6    2    1    2    0  502  0.30892201590E+02  0.16130409656E+03 -0.35600677386E+03  0.42795003838E+03  0.17154320923E+03 0.  0.
        -24    2    5    5    0    0  0.14688178836E+02  0.48834666250E+02 -0.57053298008E+02  0.10809504963E+03  0.76347191930E+02 0.  0.
          5    1    3    3  501    0 -0.55385050135E+02 -0.19304121525E+02 -0.70105766102E+02  0.91526287629E+02  0.47000000000E+01 0. -1.
        -13    1    4    4    0    0  0.32468913597E+02 -0.64551068003E+02 -0.35551477760E+03  0.36278344480E+03  0.00000000000E+00 0.  1.
         14    1    4    4    0    0 -0.79760650515E+01 -0.77448907029E+02 -0.15165119859E+03  0.17047004678E+03  0.00000000000E+00 0. -1.
         -5    1    5    5    0  502  0.16204022754E+02  0.11246943031E+03 -0.29895347585E+03  0.31985498875E+03  0.47000000000E+01 0.  1.
         11    1    6    6    0    0 -0.99335743047E+00  0.18430145848E+02 -0.69332985641E+02  0.71747612733E+02  0.00000000000E+00 0. -1.
        -12    1    6    6    0    0  0.15681536266E+02  0.30404520402E+02  0.12279687633E+02  0.36347436896E+02  0.00000000000E+00 0.  1.
</event>
<event>
12    1  0.8421768E-002  0.2690747E+03  0.7818608E-02  0.1101822E+00
         21   -1    0    0  501  502  0.00000000000E+00  0.00000000000E+00  0.70581354547E+02  0.70581354547E+02  0.00000000000E+00 0.  1.
         21   -1    0    0  502  503 -0.00000000000E+00 -0.00000000000E+00 -0.11197657113E+04  0.11197657113E+04  0.00000000000E+00 0. -1.
         -6    2    1    2    0  503  0.14908663869E+03 -0.14263565889E+03 -0.35181909084E+03  0.44287162554E+03  0.17258866418E+03 0.  0.
        -24    2    3    3    0    0  0.94748891375E+02 -0.16447003139E+03 -0.23704161125E+03  0.31393252973E+03  0.79606307020E+02 0.  0.
          6    2    1    2  501    0 -0.14908663869E+03  0.14263565889E+03 -0.69736526592E+03  0.74747544032E+03  0.17271208048E+03 0.  0.
         24    2    5    5    0    0 -0.12621805354E+03  0.30111314006E+02 -0.35394651199E+03  0.38533840696E+03  0.79811441900E+02 0.  0.
          5    1    5    5  501    0 -0.22868585148E+02  0.11252434488E+03 -0.34341875393E+03  0.36213703336E+03  0.47000000000E+01 0. -1.
        -11    1    6    6    0    0 -0.71213557812E+02  0.31238181250E+02 -0.10661507089E+03  0.13196199500E+03  0.00000000000E+00 0.  1.
         12    1    6    6    0    0 -0.55004495732E+02 -0.11268672442E+01 -0.24733144110E+03  0.25337641196E+03  0.00000000000E+00 0. -1.
         -5    1    3    3    0  503  0.54337747316E+02  0.21834372506E+02 -0.11477747959E+03  0.12893909581E+03  0.47000000000E+01 0.  1.
         11    1    4    4    0    0  0.34167454363E+01 -0.52007168879E+01  0.64611832441E+01  0.89704233144E+01  0.00000000000E+00 0. -1.
        -12    1    4    4    0    0  0.91332145939E+02 -0.15926931450E+03 -0.24350279450E+03  0.30496210642E+03  0.00000000000E+00 0.  1.
</event>
<event>
12    1  0.8421768E-002  0.2411529E+03  0.7818608E-02  0.1119074E+00
         21   -1    0    0  501  502  0.00000000000E+00  0.00000000000E+00  0.72440672252E+03  0.72440672252E+03  0.00000000000E+00 0. -1.
         21   -1    0    0  502  503 -0.00000000000E+00 -0.00000000000E+00 -0.20528917796E+03  0.20528917796E+03  0.00000000000E+00 0. -1.
         -6    2    1    2    0  503  0.12126032160E+02 -0.16839360265E+03 -0.10338062124E+03  0.26211916166E+03  0.17180062862E+03 0.  0.
        -24    2    3    3    0    0  0.51107381484E+02 -0.85711897455E+02 -0.11312657064E+03  0.17007089444E+03  0.78536579645E+02 0.  0.
          6    2    1    2  501    0 -0.12126032160E+02  0.16839360265E+03  0.62249816581E+03  0.66757673882E+03  0.17219549850E+03 0.  0.
         24    2    5    5    0    0  0.13546193436E+02  0.18240707030E+03  0.59317714452E+03  0.62589637495E+03  0.80195440897E+02 0.  0.
          5    1    5    5  501    0 -0.25672225596E+02 -0.14013467651E+02  0.29321021287E+02  0.41680363866E+02  0.47000000000E+01 0. -1.
        -11    1    6    6    0    0  0.50616414902E+01  0.17740301453E+03  0.47107518160E+03  0.50339773192E+03  0.00000000000E+00 0.  1.
         12    1    6    6    0    0  0.84845519459E+01  0.50040557704E+01  0.12210196292E+03  0.12249864303E+03  0.00000000000E+00 0. -1.
         -5    1    3    3    0  503 -0.38981349324E+02 -0.82681705194E+02  0.97459494015E+01  0.92048267223E+02  0.47000000000E+01 0.  1.
         13    1    4    4    0    0  0.71015732529E+01 -0.22798890840E+02  0.92467427218E+01  0.25607108723E+02  0.00000000000E+00 0. -1.
        -14    1    4    4    0    0  0.44005808231E+02 -0.62913006615E+02 -0.12237331337E+03  0.14446378572E+03  0.00000000000E+00 0.  1.
</event>
<event>
12    1  0.8421768E-002  0.2627158E+03  0.7818608E-02  0.1105790E+00
         21   -1    0    0  503  502  0.00000000000E+00  0.00000000000E+00  0.25667769071E+03  0.25667769071E+03  0.00000000000E+00 0. -1.
         21   -1    0    0  501  503 -0.00000000000E+00 -0.00000000000E+00 -0.32617835959E+03  0.32617835959E+03  0.00000000000E+00 0. -1.
          6    2    1    2  501    0  0.15199666505E+03  0.12938582602E+03 -0.15892060639E+03  0.30704287675E+03  0.17080951632E+03 0.  0.
         24    2    3    3    0    0  0.15481708927E+03  0.63126249520E+02 -0.74572735689E+02  0.19964204079E+03  0.79640423381E+02 0.  0.
         -6    2    1    2    0  502 -0.15199666505E+03 -0.12938582602E+03  0.89419937517E+02  0.27581317355E+03  0.16802768616E+03 0.  0.
        -24    2    5    5    0    0 -0.67303251821E+02 -0.74375320240E+02  0.11431220101E+03  0.17169379605E+03  0.79687290927E+02 0.  0.
          5    1    3    3  501    0 -0.28204242233E+01  0.66259576498E+02 -0.84347870704E+02  0.10740083595E+03  0.47000000000E+01 0. -1.
        -11    1    4    4    0    0  0.62081342324E+02  0.37798369662E+02  0.77275993840E+01  0.73092582429E+02  0.00000000000E+00 0.  1.
         12    1    4    4    0    0  0.92735746945E+02  0.25327879858E+02 -0.82300335073E+02  0.12654945837E+03  0.00000000000E+00 0. -1.
         -5    1    5    5    0  502 -0.84693413225E+02 -0.55010505778E+02 -0.24892263490E+02  0.10411937750E+03  0.47000000000E+01 0.  1.
         13    1    6    6    0    0 -0.41266518791E+02 -0.48009695076E+02  0.14111891075E+02  0.64861405042E+02  0.00000000000E+00 0. -1.
        -14    1    6    6    0    0 -0.26036733030E+02 -0.26365625165E+02  0.10020030993E+03  0.10683239100E+03  0.00000000000E+00 0.  1.
</event>
<event>
12    1  0.8421768E-002  0.1911370E+03  0.7818608E-02  0.1157637E+00
         21   -1    0    0  501  502  0.00000000000E+00  0.00000000000E+00  0.62760578591E+02  0.62760578591E+02  0.00000000000E+00 0.  1.
         21   -1    0    0  502  503 -0.00000000000E+00 -0.00000000000E+00 -0.85005669191E+03  0.85005669191E+03  0.00000000000E+00 0.  1.
         -6    2    1    2    0  503 -0.32719966685E+02  0.75152987177E+02 -0.65178835480E+03  0.67923590202E+03  0.17266957878E+03 0.  0.
        -24    2    3    3    0    0 -0.66166923822E+02 -0.40893511797E+01 -0.30829585120E+03  0.32510705942E+03  0.79078970764E+02 0.  0.
          6    2    1    2  501    0  0.32719966685E+02 -0.75152987177E+02 -0.13550775852E+03  0.23358136848E+03  0.17169547281E+03 0.  0.
         24    2    5    5    0    0 -0.22418542415E+02 -0.74280880795E+02 -0.30828203502E+02  0.11517142383E+03  0.79333715652E+02 0.  0.
          5    1    5    5  501    0  0.55138509100E+02 -0.87210638263E+00 -0.10467955502E+03  0.11840994466E+03  0.47000000000E+01 0. -1.
        -13    1    6    6    0    0 -0.47826666422E+02 -0.57398662254E+02 -0.38019133765E+02  0.83829893128E+02  0.00000000000E+00 0.  1.
         14    1    6    6    0    0  0.25408124007E+02 -0.16882218541E+02  0.71909302623E+01  0.31341530698E+02  0.00000000000E+00 0. -1.
         -5    1    3    3    0  503  0.33446957137E+02  0.79242338357E+02 -0.34349250360E+03  0.35412884260E+03  0.47000000000E+01 0.  1.
         11    1    4    4    0    0  0.16024995550E+02 -0.36412547469E+01 -0.23416449137E+02  0.28607504412E+02  0.00000000000E+00 0. -1.
        -12    1    4    4    0    0 -0.82191919372E+02 -0.44809643285E+00 -0.28487940207E+03  0.29649955501E+03  0.00000000000E+00 0.  1.
</event>
<event>
12    1  0.8421768E-002  0.2115747E+03  0.7818608E-02  0.1142050E+00
         21   -1    0    0  503  502  0.00000000000E+00  0.00000000000E+00  0.32624807049E+03  0.32624807049E+03  0.00000000000E+00 0.  1.
         21   -1    0    0  501  503 -0.00000000000E+00 -0.00000000000E+00 -0.13242584416E+03  0.13242584416E+03  0.00000000000E+00 0.  1.
          6    2    1    2  501    0 -0.73741406634E+02 -0.75419745254E+02  0.11206826797E+03  0.23185336827E+03  0.17340921159E+03 0.  0.
         24    2    3    3    0    0 -0.11043056981E+02 -0.99326889386E+01 -0.24689787851E+02  0.67705589036E+02  0.61268701190E+02 0.  0.
         -6    2    1    2    0  502  0.73741406634E+02  0.75419745254E+02  0.81753958357E+02  0.22682054638E+03  0.18340642717E+03 0.  0.
        -24    2    5    5    0    0 -0.51154831530E+01 -0.17951109703E+02  0.57562415722E+02  0.10214558355E+03  0.82291421349E+02 0.  0.
          5    1    3    3  501    0 -0.62698349653E+02 -0.65487056315E+02  0.13675805582E+03  0.16414777923E+03  0.47000000000E+01 0. -1.
        -11    1    4    4    0    0 -0.33154674539E+02 -0.74454011157E+01  0.64528828045E+00  0.33986509655E+02  0.00000000000E+00 0.  1.
         12    1    4    4    0    0  0.22111617557E+02 -0.24872878229E+01 -0.25335076132E+02  0.33719079381E+02  0.00000000000E+00 0. -1.
         -5    1    5    5    0  502  0.78856889787E+02  0.93370854957E+02  0.24191542636E+02  0.12467496283E+03  0.47000000000E+01 0.  1.
         11    1    6    6    0    0 -0.23066658005E+02  0.97476142710E+01  0.63814181706E+02  0.68551706633E+02  0.00000000000E+00 0. -1.
        -12    1    6    6    0    0  0.17951174852E+02 -0.27698723974E+02 -0.62517659849E+01  0.33593876916E+02  0.00000000000E+00 0.  1.
</event>
<event>
12    1  0.8421768E-002  0.2004129E+03  0.7818608E-02  0.1149966E+00
         21   -1    0    0  503  502  0.00000000000E+00  0.00000000000E+00  0.20855028177E+03  0.20855028177E+03  0.00000000000E+00 0. -1.
         21   -1    0    0  501  503 -0.00000000000E+00 -0.00000000000E+00 -0.19430403149E+03  0.19430403149E+03  0.00000000000E+00 0. -1.
          6    2    1    2  501    0  0.22189817623E+02  0.99668362989E+02 -0.22920264217E+02  0.19902430559E+03  0.16929018022E+03 0.  0.
         24    2    3    3    0    0  0.83752081477E+01  0.12064371396E+03 -0.57812042166E+02  0.15577693629E+03  0.79367322182E+02 0.  0.
         -6    2    1    2    0  502 -0.22189817623E+02 -0.99668362989E+02  0.37166514502E+02  0.20383000767E+03  0.17245043241E+03 0.  0.
        -24    2    5    5    0    0 -0.62783357254E+02 -0.99661945575E+02  0.66708289186E+02  0.15340539114E+03  0.72173158726E+02 0.  0.
          5    1    3    3  501    0  0.13814609475E+02 -0.20975350973E+02  0.34891777949E+02  0.43247369305E+02  0.47000000000E+01 0. -1.
        -11    1    4    4    0    0 -0.30360824146E+02  0.36780769873E+02 -0.38757873717E+02  0.61455491621E+02  0.00000000000E+00 0.  1.
         12    1    4    4    0    0  0.38736032294E+02  0.83862944089E+02 -0.19054168448E+02  0.94321444668E+02  0.00000000000E+00 0. -1.
         -5    1    5    5    0  502  0.40593539631E+02 -0.64174139749E-02 -0.29541774684E+02  0.50424616532E+02  0.47000000000E+01 0.  1.
         11    1    6    6    0    0 -0.45730727010E+02 -0.23188070901E+02  0.12186598495E+01  0.51288119061E+02  0.00000000000E+00 0. -1.
        -12    1    6    6    0    0 -0.17052630243E+02 -0.76473874674E+02  0.65489629337E+02  0.10211727208E+03  0.00000000000E+00 0.  1.
</event>
<event>
12    1  0.8421768E-002  0.1764802E+03  0.7818608E-02  0.1171806E+00
         21   -1    0    0  501  502  0.00000000000E+00  0.00000000000E+00  0.25481150590E+03  0.25481150590E+03  0.00000000000E+00 0. -1.
         21   -1    0    0  502  503 -0.00000000000E+00 -0.00000000000E+00 -0.27498636355E+03  0.27498636355E+03  0.00000000000E+00 0. -1.
         -6    2    1    2    0  503 -0.35863934679E+02 -0.11047753181E+02 -0.20847719063E+03  0.27172221089E+03  0.17018209722E+03 0.  0.
        -24    2    3    3    0    0 -0.65869476741E+02  0.13857846041E+02 -0.65959416409E+02  0.12389113365E+03  0.80421020390E+02 0.  0.
          6    2    1    2  501    0  0.35863934679E+02  0.11047753181E+02  0.18830233298E+03  0.25807565856E+03  0.17244420046E+03 0.  0.
         24    2    5    5    0    0 -0.18248299411E+01 -0.48765068745E+02  0.55594891995E+02  0.10763839077E+03  0.78191234919E+02 0.  0.
          5    1    5    5  501    0  0.37688764621E+02  0.59812821926E+02  0.13270744099E+03  0.15043726779E+03  0.47000000000E+01 0. -1.
        -13    1    6    6    0    0  0.14399124124E+02  0.12722538729E+02 -0.49415106354E+01  0.19839765488E+02  0.00000000000E+00 0.  1.
         14    1    6    6    0    0 -0.16223954066E+02 -0.61487607474E+02  0.60536402630E+02  0.87798625284E+02  0.00000000000E+00 0. -1.
         -5    1    3    3    0  503  0.30005542061E+02 -0.24905599222E+02 -0.14251777423E+03  0.14783107724E+03  0.47000000000E+01 0.  1.
         13    1    4    4    0    0 -0.20226347137E+02  0.24204017479E+02 -0.70137564040E+02  0.76903949639E+02  0.00000000000E+00 0. -1.
        -14    1    4    4    0    0 -0.45643129604E+02 -0.10346171438E+02  0.41781476312E+01  0.46987184009E+02  0.00000000000E+00 0.  1.
</event>
<event>
12    1  0.8421768E-002  0.2641561E+03  0.7818608E-02  0.1104768E+00
         21   -1    0    0  503  502  0.00000000000E+00  0.00000000000E+00  0.41270629725E+03  0.41270629725E+03  0.00000000000E+00 0. -1.
         21   -1    0    0  501  503 -0.00000000000E+00 -0.00000000000E+00 -0.45642656953E+03  0.45642656953E+03  0.00000000000E+00 0.  1.
          6    2    1    2  501    0 -0.19678365689E+03  0.39105281996E+02 -0.36692849330E+03  0.45212272619E+03  0.17182959479E+03 0.  0.
         24    2    3    3    0    0 -0.12368331431E+03  0.86623535428E+02 -0.28914114142E+03  0.33518425259E+03  0.77101779478E+02 0.  0.
         -6    2    1    2    0  502  0.19678365689E+03 -0.39105281996E+02  0.32320822101E+03  0.41701014060E+03  0.17082409822E+03 0.  0.
        -24    2    5    5    0    0  0.11867065228E+03  0.33195816819E+02  0.24170803634E+03  0.28287043551E+03  0.80051374055E+02 0.  0.
          5    1    3    3  501    0 -0.73100342579E+02 -0.47518253432E+02 -0.77787351881E+02  0.11693847360E+03  0.47000000000E+01 0. -1.
        -11    1    4    4    0    0 -0.70462084819E+02  0.89791737516E+02 -0.17128985601E+03  0.20583409896E+03  0.00000000000E+00 0.  1.
         12    1    4    4    0    0 -0.53221229487E+02 -0.31682020875E+01 -0.11785128541E+03  0.12935015363E+03  0.00000000000E+00 0. -1.
         -5    1    5    5    0  502  0.78113004605E+02 -0.72301098815E+02  0.81500184676E+02  0.13413970509E+03  0.47000000000E+01 0.  1.
         13    1    6    6    0    0  0.61838293635E+02  0.12569935643E+02  0.19921902709E+03  0.20897415773E+03  0.00000000000E+00 0. -1.
        -14    1    6    6    0    0  0.56832358645E+02  0.20625881176E+02  0.42489009243E+02  0.73896277781E+02  0.00000000000E+00 0.  1.
</event>
<event>
12    1  0.8421768E-002  0.2982636E+03  0.7818608E-02  0.1086171E+00
         21   -1    0    0  501  502  0.00000000000E+00  0.00000000000E+00  0.11486603207E+03  0.11486603207E+03  0.00000000000E+00 0. -1.
         21   -1    0    0  502  503 -0.00000000000E+00 -0.00000000000E+00 -0.16589576390E+04  0.16589576390E+04  0.00000000000E+00 0. -1.
         -6    2    1    2    0  503  0.43790643042E+02 -0.24007526869E+03 -0.14203758275E+04  0.14513540835E+04  0.17148594489E+03 0.  0.
        -24    2    3    3    0    0  0.29280147243E+02 -0.24313887038E+03 -0.14081283154E+04  0.14315542932E+04  0.80922829892E+02 0.  0.
          6    2    1    2  501    0 -0.43790643042E+02  0.24007526869E+03 -0.12371577947E+03  0.32246958760E+03  0.17066717839E+03 0.  0.
         24    2    5    5    0    0  0.23532481113E+02  0.95201567652E+02 -0.11312710481E+02  0.12707938258E+03  0.80025470368E+02 0.  0.
          5    1    5    5  501    0 -0.67323124155E+02  0.14487370104E+03 -0.11240306899E+03  0.19539020502E+03  0.47000000000E+01 0. -1.
        -11    1    6    6    0    0 -0.23663558269E+02  0.13916038493E+02 -0.18033937658E+02  0.32845745916E+02  0.00000000000E+00 0.  1.
         12    1    6    6    0    0  0.47196039382E+02  0.81285529159E+02  0.67212271776E+01  0.94233636663E+02  0.00000000000E+00 0. -1.
         -5    1    3    3    0  503  0.14510495799E+02  0.30636016839E+01 -0.12247512079E+02  0.19799790296E+02  0.47000000000E+01 0.  1.
         11    1    4    4    0    0  0.73190421697E+00 -0.14263094567E+03 -0.10065714363E+04  0.10166268630E+04  0.00000000000E+00 0. -1.
        -12    1    4    4    0    0  0.28548243026E+02 -0.10050792471E+03 -0.40155687915E+03  0.41492743016E+03  0.00000000000E+00 0.  1.
</event>
<event>
12    1  0.8421768E-002  0.1791852E+03  0.7818608E-02  0.1168664E+00
         21   -1    0    0  503  502  0.00000000000E+00  0.00000000000E+00  0.21670350355E+03  0.21670350355E+03  0.00000000000E+00 0.  1.
         21   -1    0    0  501  503 -0.00000000000E+00 -0.00000000000E+00 -0.15500843224E+03  0.15500843224E+03  0.00000000000E+00 0.  1.
          6    2    1    2  501    0  0.20603112253E+02 -0.40539279991E+02  0.70606410737E+02  0.19259437444E+03  0.17331879983E+03 0.  0.
         24    2    3    3    0    0 -0.34464551171E+02 -0.66299146708E+02  0.17628454454E+02  0.11181831277E+03  0.81296928119E+02 0.  0.
         -6    2    1    2    0  502 -0.20603112253E+02  0.40539279991E+02 -0.89113394331E+01  0.17911756135E+03  0.17301955773E+03 0.  0.
        -24    2    5    5    0    0 -0.11065874112E+01 -0.35959738502E+02  0.28145346189E+02  0.91781988637E+02  0.79608074950E+02 0.  0.
          5    1    3    3  501    0  0.55067663424E+02  0.25759866716E+02  0.52977956283E+02  0.80776061678E+02  0.47000000000E+01 0. -1.
        -11    1    4    4    0    0 -0.28933061343E+02 -0.63206054388E+02  0.45601602471E+02  0.83136234567E+02  0.00000000000E+00 0.  1.
         12    1    4    4    0    0 -0.55314898283E+01 -0.30930923195E+01 -0.27973148017E+02  0.28682078199E+02  0.00000000000E+00 0. -1.
         -5    1    5    5    0  502 -0.19496524842E+02  0.76499018494E+02 -0.37056685622E+02  0.87335572710E+02  0.47000000000E+01 0.  1.
         13    1    6    6    0    0 -0.14371777304E+02 -0.58643063353E+02  0.24875571339E+02  0.65301997762E+02  0.00000000000E+00 0. -1.
        -14    1    6    6    0    0  0.13265189893E+02  0.22683324851E+02  0.32697748496E+01  0.26479990875E+02  0.00000000000E+00 0.  1.
</event>
<event>
12    1  0.8421768E-002  0.1906531E+03  0.7818608E-02  0.1158203E+00
         21   -1    0    0  501  502  0.00000000000E+00  0.00000000000E+00  0.28695107193E+03  0.28695107193E+03  0.00000000000E+00 0. -1.
         21   -1    0    0  502  503 -0.00000000000E+00 -0.00000000000E+00 -0.18390263274E+03  0.18390263274E+03  0.00000000000E+00 0. -1.
         -6    2    1    2    0  503 -0.39754667647E+02 -0.71347306219E+02 -0.80780455591E+02  0.20706058976E+03  0.17227226742E+03 0.  0.
        -24    2    3    3    0    0  0.19287178769E+02 -0.38590573208E+02  0.10035579516E+02  0.93797244329E+02  0.82680001101E+02 0.  0.
          6    2    1    2  501    0  0.39754667647E+02  0.71347306219E+02  0.18382889478E+03  0.26379311491E+03  0.17065425050E+03 0.  0.
         24    2    5    5    0    0  0.50111239193E+02  0.83596202005E+02  0.61885208082E+02  0.14070921365E+03  0.80435331446E+02 0.  0.
          5    1    5    5  501    0 -0.10356571546E+02 -0.12248895786E+02  0.12194368670E+03  0.12308390125E+03  0.47000000000E+01 0. -1.
        -13    1    6    6    0    0  0.36090078500E+02  0.50702901442E+02 -0.74667072896E+01  0.62681972676E+02  0.00000000000E+00 0.  1.
         14    1    6    6    0    0  0.14021160693E+02  0.32893300563E+02  0.69351915371E+02  0.78027240979E+02  0.00000000000E+00 0. -1.
         -5    1    3    3    0  503 -0.59041846416E+02 -0.32756733011E+02 -0.90816035107E+02  0.11326334543E+03  0.47000000000E+01 0.  1.
         13    1    4    4    0    0 -0.76004185173E+01 -0.90272505131E+01 -0.33013497482E+02  0.35059216042E+02  0.00000000000E+00 0. -1.
        -14    1    4    4    0    0  0.26887597286E+02 -0.29563322695E+02  0.43049076999E+02  0.58738028287E+02  0.00000000000E+00 0.  1.
</event>
<event>
12    1  0.8421768E-002  0.2224848E+03  0.7818608E-02  0.1132201E+00
         21   -1    0    0  501  502  0.00000000000E+00  0.00000000000E+00  0.15879341453E+04  0.15879341453E+04  0.00000000000E+00 0.  1.
         21   -1    0    0  502  503 -0.00000000000E+00 -0.00000000000E+00 -0.17997879169E+03  0.17997879169E+03  0.00000000000E+00 0.  1.
         -6    2    1    2    0  503  0.12940118866E+03  0.56881917437E+02 -0.10034843751E+03  0.24328844995E+03  0.17070219920E+03 0.  0.
        -24    2    3    3    0    0  0.14457321573E+02  0.11308493871E+01  0.20773889466E+01  0.79479371768E+02  0.78117616608E+02 0.  0.
          6    2    1    2  501    0 -0.12940118866E+03 -0.56881917437E+02  0.15083037911E+04  0.15246244871E+04  0.17181175754E+03 0.  0.
         24    2    5    5    0    0 -0.54505642472E+02  0.32378669508E+02  0.55710511885E+03  0.56630418602E+03  0.79467442126E+02 0.  0.
          5    1    5    5  501    0 -0.74895546187E+02 -0.89260586945E+02  0.95119867230E+03  0.95832030105E+03  0.47000000000E+01 0. -1.
        -13    1    6    6    0    0 -0.30168873405E+02 -0.19323080422E+02  0.11314497533E+03  0.11868162369E+03  0.00000000000E+00 0.  1.
         14    1    6    6    0    0 -0.24336769067E+02  0.51701749930E+02  0.44396014352E+03  0.44762256233E+03  0.00000000000E+00 0. -1.
         -5    1    3    3    0  503  0.11494386709E+03  0.55751068050E+02 -0.10242582645E+03  0.16380907818E+03  0.47000000000E+01 0.  1.
         13    1    4    4    0    0 -0.54192367953E+00  0.27411895952E+02  0.28325629228E+02  0.39421402716E+02  0.00000000000E+00 0. -1.
        -14    1    4    4    0    0  0.14999245253E+02 -0.26281046565E+02 -0.26248240282E+02  0.40057969052E+02  0.00000000000E+00 0.  1.
</event>
<event>
12    1  0.8421768E-002  0.1951737E+03  0.7818608E-02  0.1156300E+00
         21   -1    0    0  501  502  0.00000000000E+00  0.00000000000E+00  0.39845096602E+03  0.39845096602E+03  0.00000000000E+00 0.  1.
         21   -1    0    0  502  503 -0.00000000000E+00 -0.00000000000E+00 -0.95426716093E+02  0.95426716093E+02  0.00000000000E+00 0. -1.
         -6    2    1    2    0  503  0.68467815624E+02  0.11785850318E+02  0.98857723559E+02  0.21878217051E+03  0.18238980394E+03 0.  0.
        -24    2    3    3    0    0  0.15653968060E+02  0.71538672663E+02  0.85165443872E+02  0.13773113230E+03  0.79711251224E+02 0.  0.
          6    2    1    2  501    0 -0.68467815624E+02 -0.11785850318E+02  0.20416652637E+03  0.27509551160E+03  0.17078296745E+03 0.  0.
         24    2    5    5    0    0 -0.62372415261E+02  0.47412679859E+02  0.17774921446E+03  0.20981470087E+03  0.79304130188E+02 0.  0.
          5    1    5    5  501    0 -0.60954003631E+01 -0.59198530178E+02  0.26417311910E+02  0.65280810728E+02  0.47000000000E+01 0. -1.
        -13    1    6    6    0    0 -0.33010265182E+01 -0.13696553081E+02  0.75734456306E+02  0.77033760225E+02  0.00000000000E+00 0.  1.
         14    1    6    6    0    0 -0.59071388743E+02  0.61109232941E+02  0.10201475815E+03  0.13278094065E+03  0.00000000000E+00 0. -1.
         -5    1    3    3    0  503  0.52813847564E+02 -0.59752822345E+02  0.13692279687E+02  0.81051038215E+02  0.47000000000E+01 0.  1.
         13    1    4    4    0    0 -0.75680664897E+01  0.31945031433E+02 -0.80723002209E+01  0.33807139697E+02  0.00000000000E+00 0. -1.
        -14    1    4    4    0    0  0.23222034550E+02  0.39593641230E+02  0.93237744093E+02  0.10392399260E+03  0.00000000000E+00 0.  1.
</event>
<event>
12    1  0.8421768E-002  0.2189490E+03  0.7818608E-02  0.1135179E+00
         21   -1    0    0  501  502  0.00000000000E+00  0.00000000000E+00  0.13839171778E+03  0.13839171778E+03  0.00000000000E+00 0.  1.
         21   -1    0    0  502  503 -0.00000000000E+00 -0.00000000000E+00 -0.37986838286E+03  0.37986838286E+03  0.00000000000E+00 0.  1.
         -6    2    1    2    0  503 -0.27836955481E+01 -0.13511691312E+03 -0.20308211015E+03  0.29863186124E+03  0.17226234618E+03 0.  0.
        -24    2    3    3    0    0  0.14730094360E+02 -0.75814167518E+01 -0.12185589903E+03  0.14634324366E+03  0.79328628346E+02 0.  0.
          6    2    1    2  501    0  0.27836955481E+01  0.13511691312E+03 -0.38394554929E+02  0.21962823941E+03  0.16881378061E+03 0.  0.
         24    2    5    5    0    0  0.46791425278E+02  0.10888802633E+03  0.16907257290E+02  0.14409668830E+03  0.80199504183E+02 0.  0.
          5    1    5    5  501    0 -0.44007729730E+02  0.26228886791E+02 -0.55301812220E+02  0.75531551110E+02  0.47000000000E+01 0. -1.
        -13    1    6    6    0    0  0.66501581613E+02  0.66293724945E+02 -0.88231035860E+00  0.93904721903E+02  0.00000000000E+00 0.  1.
         14    1    6    6    0    0 -0.19710156335E+02  0.42594301388E+02  0.17789567649E+02  0.50191966395E+02  0.00000000000E+00 0. -1.
         -5    1    3    3    0  503 -0.17513789908E+02 -0.12753549637E+03 -0.81226211113E+02  0.15228861758E+03  0.47000000000E+01 0.  1.
         11    1    4    4    0    0 -0.29427339991E+02  0.12506330276E+02 -0.56938089424E+02  0.65301781470E+02  0.00000000000E+00 0. -1.
        -12    1    4    4    0    0  0.44157434351E+02 -0.20087747028E+02 -0.64917809610E+02  0.81041462189E+02  0.00000000000E+00 0.  1.
</event>
<event>
12    1  0.8421768E-002  0.1903081E+03  0.7818608E-02  0.1158517E+00
         21   -1    0    0  501  502  0.00000000000E+00  0.00000000000E+00  0.43804356463E+03  0.43804356463E+03  0.00000000000E+00 0. -1.
         21   -1    0    0  502  503 -0.00000000000E+00 -0.00000000000E+00 -0.11441008982E+03  0.11441008982E+03  0.00000000000E+00 0. -1.
         -6    2    1    2    0  503  0.57476660930E+02  0.56694442122E+02  0.14435138792E+02  0.18938231463E+03  0.17070284573E+03 0.  0.
        -24    2    3    3    0    0 -0.11381387818E+02  0.50269088469E+02 -0.38859735158E+02  0.10194576828E+03  0.78907182246E+02 0.  0.
          6    2    1    2  501    0 -0.57476660930E+02 -0.56694442122E+02  0.30919833601E+03  0.36307133982E+03  0.17233502397E+03 0.  0.
         24    2    5    5    0    0 -0.88141387413E+02 -0.77862861414E+02  0.18718680725E+03  0.23541034117E+03  0.80917232770E+02 0.  0.
          5    1    5    5  501    0  0.30664726483E+02  0.21168419292E+02  0.12201152877E+03  0.12766099865E+03  0.47000000000E+01 0. -1.
        -11    1    6    6    0    0 -0.24449162595E+00  0.14411960726E+02  0.28036676299E+02  0.31524904537E+02  0.00000000000E+00 0.  1.
         12    1    6    6    0    0 -0.87896895787E+02 -0.92274822140E+02  0.15915013095E+03  0.20388543663E+03  0.00000000000E+00 0. -1.
         -5    1    3    3    0  503  0.68858048748E+02  0.64253536530E+01  0.53294873951E+02  0.87436546343E+02  0.47000000000E+01 0.  1.
         13    1    4    4    0    0  0.15051815467E+02  0.56755563948E+02 -0.56220195629E+01  0.58986085579E+02  0.00000000000E+00 0. -1.
        -14    1    4    4    0    0 -0.26433203285E+02 -0.64864754788E+01 -0.33237715596E+02  0.42959682704E+02  0.00000000000E+00 0.  1.
</event>
<event>
12    1  0.8421768E-002  0.2085383E+03  0.7818608E-02  0.1142886E+00
         21   -1    0    0  503  502  0.00000000000E+00  0.00000000000E+00  0.93960376335E+02  0.93960376335E+02  0.00000000000E+00 0.  1.
         21   -1    0    0  501  503 -0.00000000000E+00 -0.00000000000E+00 -0.68819770718E+03  0.68819770718E+03  0.00000000000E+00 0.  1.
          6    2    1    2  501    0  0.11419243984E+03 -0.18811535324E+02 -0.52215191063E+03  0.56225512055E+03  0.17347742111E+03 0.  0.
         24    2    3    3    0    0  0.86852596135E+02  0.52108576607E+02 -0.27955220855E+03  0.30798393701E+03  0.80286928830E+02 0.  0.
         -6    2    1    2    0  502 -0.11419243984E+03  0.18811535324E+02 -0.72085420223E+02  0.21990296297E+03  0.17253178877E+03 0.  0.
        -24    2    5    5    0    0 -0.32173504657E+02  0.42039699375E+02 -0.90527727262E+02  0.13255960591E+03  0.81082112646E+02 0.  0.
          5    1    3    3  501    0  0.27339843701E+02 -0.70920111930E+02 -0.24259970207E+03  0.25427118353E+03  0.47000000000E+01 0. -1.
        -13    1    4    4    0    0  0.61670109006E+02  0.70477941002E+02 -0.24000763323E+03  0.25763153247E+03  0.00000000000E+00 0.  1.
         14    1    4    4    0    0  0.25182487129E+02 -0.18369364395E+02 -0.39544575325E+02  0.50352404550E+02  0.00000000000E+00 0. -1.
         -5    1    5    5    0  502 -0.82018935179E+02 -0.23228164051E+02  0.18442307039E+02  0.87343357058E+02  0.47000000000E+01 0.  1.
         13    1    6    6    0    0 -0.50326137779E+02  0.15808306335E+02 -0.85214232477E+02  0.10022019811E+03  0.00000000000E+00 0. -1.
        -14    1    6    6    0    0  0.18152633122E+02  0.26231393040E+02 -0.53134947849E+01  0.32339407801E+02  0.00000000000E+00 0.  1.
</event>
<event>
12    1  0.8421768E-002  0.2302388E+03  0.7818608E-02  0.1126896E+00
         21   -1    0    0  501  502  0.00000000000E+00  0.00000000000E+00  0.28779442110E+03  0.28779442110E+03  0.00000000000E+00 0. -1.
         21   -1    0    0  502  503 -0.00000000000E+00 -0.00000000000E+00 -0.25501195735E+03  0.25501195735E+03  0.00000000000E+00 0.  1.
         -6    2    1    2    0  503  0.11896587801E+03  0.93722829454E+02 -0.12849206093E+03  0.26366670504E+03  0.17341589527E+03 0.  0.
        -24    2    3    3    0    0  0.12523822854E+03  0.81263383707E+02 -0.40160164277E+02  0.17411675174E+03  0.80096523170E+02 0.  0.
          6    2    1    2  501    0 -0.11896587801E+03 -0.93722829454E+02  0.16127452468E+03  0.27913967340E+03  0.17021350142E+03 0.  0.
         24    2    5    5    0    0 -0.12853016076E+03 -0.21377184868E+02  0.12494864882E+03  0.19748780844E+03  0.80076734340E+02 0.  0.
          5    1    5    5  501    0  0.95642827491E+01 -0.72345644587E+02  0.36325875856E+02  0.81651864963E+02  0.47000000000E+01 0. -1.
        -11    1    6    6    0    0 -0.10920849290E+03 -0.39473066823E+02  0.67705070720E+02  0.13441947228E+03  0.00000000000E+00 0.  1.
         12    1    6    6    0    0 -0.19321667860E+02  0.18095881955E+02  0.57243578102E+02  0.63068336164E+02  0.00000000000E+00 0. -1.
         -5    1    3    3    0  503 -0.62723505268E+01  0.12459445747E+02 -0.88331896654E+02  0.89549953299E+02  0.47000000000E+01 0.  1.
         11    1    4    4    0    0  0.76272738945E+02  0.20983808958E+02  0.12773942376E+02  0.80131295687E+02  0.00000000000E+00 0. -1.
        -12    1    4    4    0    0  0.48965489593E+02  0.60279574749E+02 -0.52934106653E+02  0.93985456057E+02  0.00000000000E+00 0.  1.
</event>
<event>
12    1  0.8421768E-002  0.2101493E+03  0.7818608E-02  0.1141586E+00
         21   -1    0    0  503  502  0.00000000000E+00  0.00000000000E+00  0.77495575011E+02  0.77495575011E+02  0.00000000000E+00 0.  1.
         21   -1    0    0  501  503 -0.00000000000E+00 -0.00000000000E+00 -0.65251990432E+03  0.65251990432E+03  0.00000000000E+00 0.  1.
          6    2    1    2  501    0  0.44250375963E+00 -0.11903254334E+03 -0.15571778621E+03  0.26099448777E+03  0.17234022027E+03 0.  0.
         24    2    3    3    0    0 -0.96995959425E+01 -0.62892038016E+02 -0.60281968160E+01  0.10073319582E+03  0.77854652891E+02 0.  0.
         -6    2    1    2    0  502 -0.44250375963E+00  0.11903254334E+03 -0.41930654310E+03  0.46902099156E+03  0.17318709898E+03 0.  0.
        -24    2    5    5    0    0  0.42542257575E+02  0.53081354340E+02 -0.11785642655E+03  0.15742588279E+03  0.79153631857E+02 0.  0.
          5    1    3    3  501    0  0.10142099702E+02 -0.56140505323E+02 -0.14968958939E+03  0.16026129195E+03  0.47000000000E+01 0. -1.
        -13    1    4    4    0    0 -0.25349468886E+02 -0.42777952681E+02 -0.36001890727E+02  0.61389615932E+02  0.00000000000E+00 0.  1.
         14    1    4    4    0    0  0.15649872943E+02 -0.20114085336E+02  0.29973693911E+02  0.39343579892E+02  0.00000000000E+00 0. -1.
         -5    1    5    5    0  502 -0.42984761335E+02  0.65951188999E+02 -0.30145011656E+03  0.31159510877E+03  0.47000000000E+01 0.  1.
         13    1    6    6    0    0 -0.43030339245E+01  0.28866020676E+02 -0.97757109293E+00  0.29201350925E+02  0.00000000000E+00 0. -1.
        -14    1    6    6    0    0  0.46845291500E+02  0.24215333664E+02 -0.11687885545E+03  0.12822453187E+03  0.00000000000E+00 0.  1.
</event>
<event>
12    1  0.8421768E-002  0.1773373E+03  0.7818608E-02  0.1170533E+00
         21   -1    0    0  501  502  0.00000000000E+00  0.00000000000E+00  0.82103699931E+03  0.82103699931E+03  0.00000000000E+00 0.  1.
         21   -1    0    0  502  503 -0.00000000000E+00 -0.00000000000E+00 -0.39217848142E+02  0.39217848142E+02  0.00000000000E+00 0.  1.
         -6    2    1    2    0  503 -0.65967680174E+01 -0.38646459217E+02  0.32189250005E+03  0.36750961473E+03  0.17294932545E+03 0.  0.
        -24    2    3    3    0    0  0.57885149849E+02 -0.12198506611E+02  0.23579020396E+03  0.25663532862E+03  0.82250698939E+02 0.  0.
          6    2    1    2  501    0  0.65967680174E+01  0.38646459217E+02  0.45992665111E+03  0.49274523272E+03  0.17241889050E+03 0.  0.
         24    2    5    5    0    0  0.36464316586E+02  0.80982074700E+02  0.37079278730E+03  0.38954004644E+03  0.79789810503E+02 0.  0.
          5    1    5    5  501    0 -0.29867548569E+02 -0.42335615483E+02  0.89133863812E+02  0.10320518627E+03  0.47000000000E+01 0. -1.
        -11    1    6    6    0    0  0.20702599642E+02  0.10604417350E+02  0.23166823080E+03  0.23283303129E+03  0.00000000000E+00 0.  1.
         12    1    6    6    0    0  0.15761716944E+02  0.70377657350E+02  0.13912455651E+03  0.15670701515E+03  0.00000000000E+00 0. -1.
         -5    1    3    3    0  503 -0.64481917866E+02 -0.26447952606E+02  0.86102296093E+02  0.11087428611E+03  0.47000000000E+01 0.  1.
         13    1    4    4    0    0  0.67615959932E+02 -0.34030964165E+02  0.19735066015E+03  0.21137007267E+03  0.00000000000E+00 0. -1.
        -14    1    4    4    0    0 -0.97308100839E+01  0.21832457555E+02  0.38439543811E+02  0.45265255949E+02  0.00000000000E+00 0.  1.
</event>
<event>
12    1  0.8421768E-002  0.1996276E+03  0.7818608E-02  0.1150221E+00
         21   -1    0    0  503  502  0.00000000000E+00  0.00000000000E+00  0.70001706963E+03  0.70001706963E+03  0.00000000000E+00 0. -1.
         21   -1    0    0  501  503 -0.00000000000E+00 -0.00000000000E+00 -0.11044915571E+03  0.11044915571E+03  0.00000000000E+00 0.  1.
          6    2    1    2  501    0  0.85325162323E+02 -0.52654944329E+02  0.11802766640E+02  0.19918581379E+03  0.17170543563E+03 0.  0.
         24    2    3    3    0    0  0.76905057746E+02  0.29886807781E+02  0.17660670695E+02  0.11587648633E+03  0.79421984409E+02 0.  0.
         -6    2    1    2    0  502 -0.85325162323E+02  0.52654944329E+02  0.57776514729E+03  0.61128041155E+03  0.17262169515E+03 0.  0.
        -24    2    5    5    0    0 -0.68056093101E+02 -0.32930979405E+02  0.36237532750E+03  0.37881958569E+03  0.80450725947E+02 0.  0.
          5    1    3    3  501    0  0.84201045768E+01 -0.82541752110E+02 -0.58579040549E+01  0.83309327463E+02  0.47000000000E+01 0. -1.
        -13    1    4    4    0    0  0.61026481523E+02 -0.16591926079E+02  0.21025140517E+02  0.66645179809E+02  0.00000000000E+00 0.  1.
         14    1    4    4    0    0  0.15878576224E+02  0.46478733860E+02 -0.33644698222E+01  0.49231306516E+02  0.00000000000E+00 0. -1.
         -5    1    5    5    0  502 -0.17269069222E+02  0.85585923734E+02  0.21538981978E+03  0.23246082586E+03  0.47000000000E+01 0.  1.
         13    1    6    6    0    0  0.63270039077E+01 -0.31706694082E+02  0.15927118371E+03  0.16251970769E+03  0.00000000000E+00 0. -1.
        -14    1    6    6    0    0 -0.74383097009E+02 -0.12242853234E+01  0.20310414379E+03  0.21629987800E+03  0.00000000000E+00 0.  1.
</event>
<event>
12    1  0.8421768E-002  0.2633256E+03  0.7818608E-02  0.1105166E+00
         21   -1    0    0  501  502  0.00000000000E+00  0.00000000000E+00  0.24028322946E+03  0.24028322946E+03  0.00000000000E+00 0.  1.
         21   -1    0    0  502  503 -0.00000000000E+00 -0.00000000000E+00 -0.33550808224E+03  0.33550808224E+03  0.00000000000E+00 0.  1.
         -6    2    1    2    0  503  0.85784190074E+02 -0.17981183675E+03 -0.15532372369E+03  0.30569457713E+03  0.17214090578E+03 0.  0.
        -24    2    3    3    0    0 -0.22472642956E+02 -0.71195041746E+02 -0.25794605249E+02  0.10490355995E+03  0.69033626445E+02 0.  0.
          6    2    1    2  501    0 -0.85784190074E+02  0.17981183675E+03  0.60098870908E+02  0.27009673458E+03  0.17218927911E+03 0.  0.
         24    2    5    5    0    0 -0.10314683534E+03  0.14301831833E+03 -0.36411162521E+01  0.19433328421E+03  0.81600604199E+02 0.  0.
          5    1    5    5  501    0  0.17362645262E+02  0.36793518420E+02  0.63739987160E+02  0.75763450366E+02  0.47000000000E+01 0. -1.
        -13    1    6    6    0    0 -0.60912032697E+02  0.52162924266E+02  0.34267169911E+02  0.87209433716E+02  0.00000000000E+00 0.  1.
         14    1    6    6    0    0 -0.42234802638E+02  0.90855394065E+02 -0.37908286163E+02  0.10712385049E+03  0.00000000000E+00 0. -1.
         -5    1    3    3    0  503  0.10825683303E+03 -0.10861679501E+03 -0.12952911844E+03  0.20079101718E+03  0.47000000000E+01 0.  1.
         13    1    4    4    0    0  0.10252387580E+02 -0.40961484152E+01  0.15929272119E+02  0.19381217536E+02  0.00000000000E+00 0. -1.
        -14    1    4    4    0    0 -0.32725030537E+02 -0.67098893331E+02 -0.41723877368E+02  0.85522342417E+02  0.00000000000E+00 0.  1.
</event>
<event>
12    1  0.8421768E-002  0.2058138E+03  0.7818608E-02  0.1145107E+00
         21   -1    0    0  501  502  0.00000000000E+00  0.00000000000E+00  0.52967181153E+03  0.52967181153E+03  0.00000000000E+00 0. -1.
         21   -1    0    0  502  503 -0.00000000000E+00 -0.00000000000E+00 -0.14750720197E+03  0.14750720197E+03  0.00000000000E+00 0. -1.
         -6    2    1    2    0  503  0.40973512884E+02  0.10410145083E+03 -0.38382871390E+02  0.20936223623E+03  0.17275230916E+03 0.  0.
        -24    2    3    3    0    0 -0.44346364623E+01  0.43305047122E+02  0.41679036873E+02  0.98953441806E+02  0.78483427702E+02 0.  0.
          6    2    1    2  501    0 -0.40973512884E+02 -0.10410145083E+03  0.42054748095E+03  0.46781677726E+03  0.17168696086E+03 0.  0.
         24    2    5    5    0    0 -0.56742371200E+02 -0.13670893820E+03  0.35543304160E+03  0.39315831935E+03  0.79572523802E+02 0.  0.
          5    1    5    5  501    0  0.15768858316E+02  0.32607487368E+02  0.65114439355E+02  0.74658457910E+02  0.47000000000E+01 0. -1.
        -11    1    6    6    0    0 -0.13901561261E+02 -0.31010644908E+02  0.18493405322E+03  0.18803062927E+03  0.00000000000E+00 0.  1.
         12    1    6    6    0    0 -0.42840809939E+02 -0.10569829329E+03  0.17049898837E+03  0.20512769008E+03  0.00000000000E+00 0. -1.
         -5    1    3    3    0  503  0.45408149346E+02  0.60796403710E+02 -0.80061908263E+02  0.11040879442E+03  0.47000000000E+01 0.  1.
         13    1    4    4    0    0  0.14386791133E+02  0.47849984846E+02  0.55865345775E+02  0.74950234606E+02  0.00000000000E+00 0. -1.
        -14    1    4    4    0    0 -0.18821427595E+02 -0.45449377245E+01 -0.14186308902E+02  0.24003207200E+02  0.00000000000E+00 0.  1.
</event>
<event>
12    1  0.8421768E-002  0.2101385E+03  0.7818608E-02  0.1142210E+00
         21   -1    0    0  501  502  0.00000000000E+00  0.00000000000E+00  0.11999320454E+03  0.11999320454E+03  0.00000000000E+00 0.  1.
         21   -1    0    0  502  503 -0.00000000000E+00 -0.00000000000E+00 -0.36481204764E+03  0.36481204764E+03  0.00000000000E+00 0. -1.
         -6    2    1    2    0  503  0.11434775322E+03 -0.36722469957E+02 -0.14465006928E+03  0.25201353009E+03  0.16781903450E+03 0.  0.
        -24    2    3    3    0    0  0.75955657197E+02  0.34338125842E+02 -0.11733821745E+03  0.16662273104E+03  0.83943483834E+02 0.  0.
          6    2    1    2  501    0 -0.11434775322E+03  0.36722469957E+02 -0.10016877382E+03  0.23279172209E+03  0.17243623215E+03 0.  0.
         24    2    5    5    0    0 -0.10153116204E+02 -0.29930295045E+02 -0.46553852322E+02  0.97900049730E+02  0.80113982805E+02 0.  0.
          5    1    5    5  501    0 -0.10419463701E+03  0.66652765002E+02 -0.53614921499E+02  0.13489167236E+03  0.47000000000E+01 0. -1.
        -11    1    6    6    0    0 -0.16797989178E+02 -0.44689467503E+02  0.91136106076E+00  0.47750932191E+02  0.00000000000E+00 0.  1.
         12    1    6    6    0    0  0.66448729738E+01  0.14759172458E+02 -0.47465213383E+02  0.50149117539E+02  0.00000000000E+00 0. -1.
         -5    1    3    3    0  503  0.38392096019E+02 -0.71060595799E+02 -0.27311851825E+02  0.85390799048E+02  0.47000000000E+01 0.  1.
         11    1    4    4    0    0  0.64549424350E+00  0.21024662388E+02 -0.77672523365E+02  0.80470329795E+02  0.00000000000E+00 0. -1.
        -12    1    4    4    0    0  0.75310162953E+02  0.13313463454E+02 -0.39665694088E+02  0.86152401247E+02  0.00000000000E+00 0.  1.
</event>
<event>
12    1  0.8421768E-002  0.1855805E+03  0.7818608E-02  0.1162585E+00
         21   -1    0    0  501  502  0.00000000000E+00  0.00000000000E+00  0.47005614780E+02  0.47005614780E+02  0.00000000000E+00 0.  1.
         21   -1    0    0  502  503 -0.00000000000E+00 -0.00000000000E+00 -0.10058289463E+04  0.10058289463E+04  0.00000000000E+00 0.  1.
         -6    2    1    2    0  503 -0.70257474436E+02 -0.19064846345E+02 -0.75469404944E+03  0.77717644111E+03  0.17070597903E+03 0.  0.
        -24    2    3    3    0    0  0.99771454967E+01  0.39992085926E+02 -0.33600762246E+03  0.34677461767E+03  0.75183793057E+02 0.  0.
          6    2    1    2  501    0  0.70257474436E+02  0.19064846345E+02 -0.20412928209E+03  0.27565811998E+03  0.17034979960E+03 0.  0.
         24    2    5    5    0    0  0.31902564633E+02  0.63183179207E+02 -0.18635923569E+03  0.21437687530E+03  0.78852978202E+02 0.  0.
          5    1    5    5  501    0  0.38354909803E+02 -0.44118332862E+02 -0.17770046401E+02  0.61281244681E+02  0.47000000000E+01 0. -1.
        -11    1    6    6    0    0  0.32253072131E+02 -0.75719192871E+01 -0.41007751582E+02  0.52718405831E+02  0.00000000000E+00 0.  1.
         12    1    6    6    0    0 -0.35050749746E+00  0.70755098494E+02 -0.14535148411E+03  0.16165846947E+03  0.00000000000E+00 0. -1.
         -5    1    3    3    0  503 -0.80234619933E+02 -0.59056932271E+02 -0.41868642698E+03  0.43040182344E+03  0.47000000000E+01 0.  1.
         11    1    4    4    0    0  0.40570146841E+02  0.19050171293E+02 -0.13135924992E+03  0.13879516700E+03  0.00000000000E+00 0. -1.
        -12    1    4    4    0    0 -0.30593001345E+02  0.20941914633E+02 -0.20464837254E+03  0.20797945067E+03  0.00000000000E+00 0.  1.
</event>
<event>
12    1  0.8421768E-002  0.1911794E+03  0.7818608E-02  0.1157608E+00
         21   -1    0    0  501  502  0.00000000000E+00  0.00000000000E+00  0.75109233206E+02  0.75109233206E+02  0.00000000000E+00 0. -1.
         21   -1    0    0  502  503 -0.00000000000E+00 -0.00000000000E+00 -0.50453425865E+03  0.50453425865E+03  0.00000000000E+00 0. -1.
         -6    2    1    2    0  503 -0.64792398525E+02  0.47637098626E+02 -0.27328089845E+03  0.33351461410E+03  0.17344221023E+03 0.  0.
        -24    2    3    3    0    0 -0.96294365380E+02  0.60905784018E+02 -0.14495424031E+03  0.20063025416E+03  0.79111615892E+02 0.  0.
          6    2    1    2  501    0  0.64792398525E+02 -0.47637098626E+02 -0.15614412700E+03  0.24612887776E+03  0.17242705124E+03 0.  0.
         24    2    5    5    0    0  0.58363349162E+01  0.23932472596E+02 -0.29492126633E+02  0.89091174777E+02  0.80378018388E+02 0.  0.
          5    1    5    5  501    0  0.58956063609E+02 -0.71569571222E+02 -0.12665200036E+03  0.15703770298E+03  0.47000000000E+01 0. -1.
        -13    1    6    6    0    0  0.37215881466E+02  0.33937243484E+02 -0.11906200537E+02  0.51754380876E+02  0.00000000000E+00 0.  1.
         14    1    6    6    0    0 -0.31379546550E+02 -0.10004770888E+02 -0.17585926095E+02  0.37336793901E+02  0.00000000000E+00 0. -1.
         -5    1    3    3    0  503  0.31501966855E+02 -0.13268685392E+02 -0.12832665814E+03  0.13288435994E+03  0.47000000000E+01 0.  1.
         13    1    4    4    0    0 -0.53415963869E+02  0.51224444357E+02 -0.13734948253E+03  0.15601951560E+03  0.00000000000E+00 0. -1.
        -14    1    4    4    0    0 -0.42878401512E+02  0.96813396608E+01 -0.76047577743E+01  0.44610738557E+02  0.00000000000E+00 0.  1.
</event>
<event>
12    1  0.8421768E-002  0.1794221E+03  0.7818608E-02  0.1169132E+00
         21   -1    0    0  503  502  0.00000000000E+00  0.00000000000E+00  0.19485741014E+03  0.19485741014E+03  0.00000000000E+00 0. -1.
         21   -1    0    0  501  503 -0.00000000000E+00 -0.00000000000E+00 -0.23124613736E+03  0.23124613736E+03  0.00000000000E+00 0. -1.
          6    2    1    2  501    0 -0.37676509788E+02 -0.15811503873E+02  0.98216980390E+02  0.20180240682E+03  0.17148793869E+03 0.  0.
         24    2    3    3    0    0 -0.83306972685E+02 -0.30352265981E+02  0.96449828672E+02  0.15364863509E+03  0.80274665151E+02 0.  0.
         -6    2    1    2    0  502  0.37676509788E+02  0.15811503873E+02 -0.13460570762E+03  0.22430114068E+03  0.17470770488E+03 0.  0.
        -24    2    5    5    0    0  0.21934056631E+01 -0.51906643304E+02 -0.41970419696E+02  0.10410053876E+03  0.79851708763E+02 0.  0.
          5    1    3    3  501    0  0.45630462897E+02  0.14540762108E+02  0.17671517175E+01  0.48153771733E+02  0.47000000000E+01 0. -1.
        -11    1    4    4    0    0 -0.51740984243E+02 -0.40611680091E+02  0.17587838209E+02  0.68086489578E+02  0.00000000000E+00 0.  1.
         12    1    4    4    0    0 -0.31565988442E+02  0.10259414110E+02  0.78861990464E+02  0.85562145509E+02  0.00000000000E+00 0. -1.
         -5    1    5    5    0  502  0.35483104125E+02  0.67718147177E+02 -0.92635287921E+02  0.12020060193E+03  0.47000000000E+01 0.  1.
         13    1    6    6    0    0  0.12438051646E+02 -0.34007902618E+02 -0.64243410913E+02  0.73745904395E+02  0.00000000000E+00 0. -1.
        -14    1    6    6    0    0 -0.10244645983E+02 -0.17898740685E+02  0.22272991217E+02  0.30354634361E+02  0.00000000000E+00 0.  1.
</event>
<event>
12    1  0.8421768E-002  0.1911464E+03  0.7818608E-02  0.1158961E+00
         21   -1    0    0  503  502  0.00000000000E+00  0.00000000000E+00  0.19863907666E+03  0.19863907666E+03  0.00000000000E+00 0.  1.
         21   -1    0    0  501  503 -0.00000000000E+00 -0.00000000000E+00 -0.21052387562E+03  0.21052387562E+03  0.00000000000E+00 0.  1.
          6    2    1    2  501    0  0.50987480182E+02  0.42977663679E+02  0.75116652616E+02  0.19914822020E+03  0.17196133111E+03 0.  0.
         24    2    3    3    0    0 -0.26547871897E+02  0.59179609349E+02  0.61293222314E+02  0.11860375365E+03  0.78121543856E+02 0.  0.
         -6    2    1    2    0  502 -0.50987480182E+02 -0.42977663679E+02 -0.87001451575E+02  0.21001473209E+03  0.17913718879E+03 0.  0.
        -24    2    5    5    0    0 -0.92277017367E+02 -0.35503908024E+01 -0.93602395936E+02  0.15235193478E+03  0.76954858820E+02 0.  0.
          5    1    3    3  501    0  0.77535352079E+02 -0.16201945671E+02  0.13823430302E+02  0.80544466544E+02  0.47000000000E+01 0. -1.
        -11    1    4    4    0    0 -0.32300864676E+02  0.60930648674E+02  0.76054009010E+02  0.10266499936E+03  0.00000000000E+00 0.  1.
         12    1    4    4    0    0  0.57529927791E+01 -0.17510393251E+01 -0.14760786696E+02  0.15938754297E+02  0.00000000000E+00 0. -1.
         -5    1    5    5    0  502  0.41289537185E+02 -0.39427272876E+02  0.66009443610E+01  0.57662797312E+02  0.47000000000E+01 0.  1.
         11    1    6    6    0    0  0.54770342850E+01  0.30627332165E+01  0.86821707333E+01  0.10712531351E+02  0.00000000000E+00 0. -1.
        -12    1    6    6    0    0 -0.97754051652E+02 -0.66131240189E+01 -0.10228456667E+03  0.14163940342E+03  0.00000000000E+00 0.  1.
</event>
<event>
12    1  0.8421768E-002  0.1828031E+03  0.7818608E-02  0.1166200E+00
         21   -1    0    0  503  502  0.00000000000E+00  0.00000000000E+00  0.43392942816E+03  0.43392942816E+03  0.00000000000E+00 0.  1.
         21   -1    0    0  501  503 -0.00000000000E+00 -0.00000000000E+00 -0.88120964751E+02  0.88120964751E+02  0.00000000000E+00 0. -1.
          6    2    1    2  501    0 -0.63027820140E+02 -0.12060168369E+02  0.70826679308E+02  0.19185050832E+03  0.16634976786E+03 0.  0.
         24    2    3    3    0    0  0.21560741985E+01  0.21536916772E+02  0.83218483527E+02  0.11732969899E+03  0.79827657013E+02 0.  0.
         -6    2    1    2    0  502  0.63027820140E+02  0.12060168369E+02  0.27498178411E+03  0.33019988460E+03  0.17116958967E+03 0.  0.
        -24    2    5    5    0    0  0.47401931227E+02 -0.35086392696E+02  0.76237799447E+02  0.12528959188E+03  0.80045497887E+02 0.  0.
          5    1    3    3  501    0 -0.65183894338E+02 -0.33597085142E+02 -0.12391804219E+02  0.74520809328E+02  0.47000000000E+01 0. -1.
        -13    1    4    4    0    0  0.31219046490E+02  0.19155072127E+02  0.91863138347E+01  0.37761541465E+02  0.00000000000E+00 0.  1.
         14    1    4    4    0    0 -0.29062972292E+02  0.23818446452E+01  0.74032169693E+02  0.79568157524E+02  0.00000000000E+00 0. -1.
         -5    1    5    5    0  502  0.15625888913E+02  0.47146561066E+02  0.19874398466E+03  0.20491029272E+03  0.47000000000E+01 0.  1.
         11    1    6    6    0    0  0.55154510448E+02 -0.12247009449E+02  0.82850096601E+02  0.10028034588E+03  0.00000000000E+00 0. -1.
        -12    1    6    6    0    0 -0.77525792211E+01 -0.22839383247E+02 -0.66122971542E+01  0.25009245997E+02  0.00000000000E+00 0.  1.
</event>
<event>
12    1  0.8421768E-002  0.2284402E+03  0.7818608E-02  0.1128280E+00
         21   -1    0    0  501  502  0.00000000000E+00  0.00000000000E+00  0.58298338722E+03  0.58298338722E+03  0.00000000000E+00 0.  1.
         21   -1    0    0  502  503 -0.00000000000E+00 -0.00000000000E+00 -0.18603043975E+03  0.18603043975E+03  0.00000000000E+00 0.  1.
         -6    2    1    2    0  503 -0.87110209566E+02 -0.11869658747E+03 -0.80782437227E+02  0.23947061487E+03  0.17071410233E+03 0.  0.
        -24    2    3    3    0    0  0.11558877170E+02 -0.27722495238E+02 -0.26748676542E+02  0.94716991675E+02  0.85753556379E+02 0.  0.
          6    2    1    2  501    0  0.87110209566E+02  0.11869658747E+03  0.47773538469E+03  0.52954321210E+03  0.17466495701E+03 0.  0.
         24    2    5    5    0    0  0.52577631360E+02  0.73457723782E+02  0.44989857619E+03  0.46601344228E+03  0.81236414446E+02 0.  0.
          5    1    5    5  501    0  0.34532578206E+02  0.45238863689E+02  0.27836808508E+02  0.63529769819E+02  0.47000000000E+01 0. -1.
        -11    1    6    6    0    0  0.57591601603E+02  0.11206169691E+02  0.23600922215E+03  0.24319277077E+03  0.00000000000E+00 0.  1.
         12    1    6    6    0    0 -0.50139702435E+01  0.62251554091E+02  0.21388935403E+03  0.22282067151E+03  0.00000000000E+00 0. -1.
         -5    1    3    3    0  503 -0.98669086736E+02 -0.90974092233E+02 -0.54033760685E+02  0.14475362320E+03  0.47000000000E+01 0.  1.
         13    1    4    4    0    0  0.23203204920E+02 -0.55433809207E+02 -0.23333943638E+02  0.64465253024E+02  0.00000000000E+00 0. -1.
        -14    1    4    4    0    0 -0.11644327750E+02  0.27711313969E+02 -0.34147329047E+01  0.30251738651E+02  0.00000000000E+00 0.  1.
</event>
<event>
12    1  0.8421768E-002  0.1941238E+03  0.7818608E-02  0.1155590E+00
         21   -1    0    0  503  502  0.00000000000E+00  0.00000000000E+00  0.11449801471E+03  0.11449801471E+03  0.00000000000E+00 0. -1.
         21   -1    0    0  501  503 -0.00000000000E+00 -0.00000000000E+00 -0.33858570139E+03  0.33858570139E+03  0.00000000000E+00 0. -1.
          6    2    1    2  501    0 -0.36346586011E+02 -0.75473299637E+02 -0.16155477625E+03  0.25255496860E+03  0.17511931122E+03 0.  0.
         24    2    3    3    0    0 -0.90923270361E+01  0.23974585700E+02 -0.88445519067E+02  0.12606492940E+03  0.86094746712E+02 0.  0.
         -6    2    1    2    0  502  0.36346586011E+02  0.75473299637E+02 -0.62532910423E+02  0.20052874750E+03  0.17112603664E+03 0.  0.
        -24    2    5    5    0    0 -0.22622382530E+01  0.10856212822E+03 -0.24007942062E+02  0.13656176324E+03  0.79258314978E+02 0.  0.
          5    1    3    3  501    0 -0.27254258975E+02 -0.99447885337E+02 -0.73109257188E+02  0.12649003920E+03  0.47000000000E+01 0. -1.
        -13    1    4    4    0    0 -0.28096606540E+02 -0.22784573328E+00  0.42300088368E+01  0.28414154704E+02  0.00000000000E+00 0.  1.
         14    1    4    4    0    0  0.19004279504E+02  0.24202431434E+02 -0.92675527903E+02  0.97650774697E+02  0.00000000000E+00 0. -1.
         -5    1    5    5    0  502  0.38608824264E+02 -0.33088828581E+02 -0.38524968360E+02  0.63966984258E+02  0.47000000000E+01 0.  1.
         13    1    6    6    0    0  0.28622245417E+02  0.65693713847E+02 -0.39075932602E+02  0.81620006618E+02  0.00000000000E+00 0. -1.
        -14    1    6    6    0    0 -0.30884483670E+02  0.42868414371E+02  0.15067990539E+02  0.54941756626E+02  0.00000000000E+00 0.  1.
</event>
<event>
12    1  0.8421768E-002  0.2166616E+03  0.7818608E-02  0.1136411E+00
         21   -1    0    0  503  502  0.00000000000E+00  0.00000000000E+00  0.71730412116E+03  0.71730412116E+03  0.00000000000E+00 0. -1.
         21   -1    0    0  501  503 -0.00000000000E+00 -0.00000000000E+00 -0.10591710311E+03  0.10591710311E+03  0.00000000000E+00 0. -1.
          6    2    1    2  501    0 -0.60483235643E+02 -0.11706475162E+03  0.51144162791E+02  0.22254302591E+03  0.17189326668E+03 0.  0.
         24    2    3    3    0    0 -0.48091464489E+02  0.54317543159E+01  0.18745048928E+02  0.95143094444E+02  0.79740445506E+02 0.  0.
         -6    2    1    2    0  502  0.60483235643E+02  0.11706475162E+03  0.56024285526E+03  0.60067819836E+03  0.17198797415E+03 0.  0.
        -24    2    5    5    0    0  0.17755304371E+02 -0.50160628438E+01  0.28548323176E+03  0.29696066170E+03  0.79652666371E+02 0.  0.
          5    1    3    3  501    0 -0.12391771155E+02 -0.12249650594E+03  0.32399113862E+02  0.12739993147E+03  0.47000000000E+01 0. -1.
        -13    1    4    4    0    0  0.11468412834E+02  0.26569716878E+02 -0.92276000880E+00  0.28953856978E+02  0.00000000000E+00 0.  1.
         14    1    4    4    0    0 -0.59559877322E+02 -0.21137962562E+02  0.19667808937E+02  0.66189237466E+02  0.00000000000E+00 0. -1.
         -5    1    5    5    0  502  0.42727931272E+02  0.12208081446E+03  0.27475962350E+03  0.30371753666E+03  0.47000000000E+01 0.  1.
         13    1    6    6    0    0 -0.27496315780E+02  0.14431764345E+02  0.84351381109E+02  0.89885920469E+02  0.00000000000E+00 0. -1.
        -14    1    6    6    0    0  0.45251620151E+02 -0.19447827188E+02  0.20113185065E+03  0.20707474123E+03  0.00000000000E+00 0.  1.
</event>
<event>
12    1  0.8421768E-002  0.2386994E+03  0.7818608E-02  0.1121010E+00
         21   -1    0    0  503  502  0.00000000000E+00  0.00000000000E+00  0.31258317361E+03  0.31258317361E+03  0.00000000000E+00 0. -1.
         21   -1    0    0  501  503 -0.00000000000E+00 -0.00000000000E+00 -0.18070947325E+03  0.18070947325E+03  0.00000000000E+00 0. -1.
          6    2    1    2  501    0 -0.16661112747E+03 -0.26136245556E+02  0.66558816852E+02  0.24581851756E+03  0.16599486844E+03 0.  0.
         24    2    3    3    0    0 -0.30490917587E+02 -0.50672882775E+02  0.27086856896E+02  0.10190575327E+03  0.78445188687E+02 0.  0.
         -6    2    1    2    0  502  0.16661112747E+03  0.26136245556E+02  0.65314883507E+02  0.24747412930E+03  0.16892317643E+03 0.  0.
        -24    2    5    5    0    0  0.18572467517E+03  0.20047297140E+02  0.29615144368E+02  0.20625563378E+03  0.82272599333E+02 0.  0.
          5    1    3    3  501    0 -0.13612020988E+03  0.24536637219E+02  0.39471959956E+02  0.14391276430E+03  0.47000000000E+01 0. -1.
        -13    1    4    4    0    0 -0.19547383293E+02 -0.18868160242E+02 -0.26942563117E+02  0.38262375408E+02  0.00000000000E+00 0.  1.
         14    1    4    4    0    0 -0.10943534294E+02 -0.31804722532E+02  0.54029420013E+02  0.63643377858E+02  0.00000000000E+00 0. -1.
         -5    1    5    5    0  502 -0.19113547697E+02  0.60889484159E+01  0.35699739139E+02  0.41218495521E+02  0.47000000000E+01 0.  1.
         13    1    6    6    0    0  0.59181592247E+02  0.35409574933E+02 -0.16124271191E+02  0.70825779059E+02  0.00000000000E+00 0. -1.
        -14    1    6    6    0    0  0.12654308292E+03 -0.15362277793E+02  0.45739415559E+02  0.13542985472E+03  0.00000000000E+00 0.  1.
</event>
<event>
12    1  0.8421768E-002  0.2376769E+03  0.7818608E-02  0.1121497E+00
         21   -1    0    0  501  502  0.00000000000E+00  0.00000000000E+00  0.47224538654E+02  0.47224538654E+02  0.00000000000E+00 0.  1.
         21   -1    0    0  502  503 -0.00000000000E+00 -0.00000000000E+00 -0.14636233164E+04  0.14636233164E+04  0.00000000000E+00 0.  1.
         -6    2    1    2    0  503 -0.16379320656E+03  0.16833438233E+01 -0.38161594833E+03  0.44912010164E+03  0.17101779297E+03 0.  0.
        -24    2    3    3    0    0 -0.14913604249E+02  0.19722604610E+02 -0.13328816705E+03  0.15898336169E+03  0.83057673291E+02 0.  0.
          6    2    1    2  501    0  0.16379320656E+03 -0.16833438233E+01 -0.10347828294E+04  0.10617277534E+04  0.17221866961E+03 0.  0.
         24    2    5    5    0    0  0.39754677991E+02  0.18416088628E+01 -0.72502426576E+03  0.72800565403E+03  0.52423471982E+02 0.  0.
          5    1    5    5  501    0  0.12403852857E+03 -0.35249526861E+01 -0.30975856366E+03  0.33372209939E+03  0.47000000000E+01 0. -1.
        -11    1    6    6    0    0 -0.12228011688E+02  0.29736886002E+01 -0.20583097848E+03  0.20621532144E+03  0.00000000000E+00 0.  1.
         12    1    6    6    0    0  0.51982689679E+02 -0.11320797374E+01 -0.51919328728E+03  0.52179033259E+03  0.00000000000E+00 0. -1.
         -5    1    3    3    0  503 -0.14887960231E+03 -0.18039260787E+02 -0.24832778128E+03  0.29013673995E+03  0.47000000000E+01 0.  1.
         11    1    4    4    0    0 -0.45322278306E+02 -0.63290410606E+01 -0.59879270272E+02  0.75363735840E+02  0.00000000000E+00 0. -1.
        -12    1    4    4    0    0  0.30408674056E+02  0.26051645671E+02 -0.73408896781E+02  0.83619625846E+02  0.00000000000E+00 0.  1.
</event>
<event>
12    1  0.8421768E-002  0.1848349E+03  0.7818608E-02  0.1163258E+00
         21   -1    0    0  501  502  0.00000000000E+00  0.00000000000E+00  0.54963498669E+03  0.54963498669E+03  0.00000000000E+00 0.  1.
         21   -1    0    0  502  503 -0.00000000000E+00 -0.00000000000E+00 -0.69452055670E+02  0.69452055670E+02  0.00000000000E+00 0.  1.
         -6    2    1    2    0  503 -0.62728329873E+02  0.27724932339E+02  0.13937699524E+03  0.23149491773E+03  0.17164042324E+03 0.  0.
        -24    2    3    3    0    0  0.17176383434E+02 -0.99243015661E+01  0.11191946674E+03  0.13887616211E+03  0.79794119179E+02 0.  0.
          6    2    1    2  501    0  0.62728329873E+02 -0.27724932339E+02  0.34080593579E+03  0.38759212463E+03  0.17139268937E+03 0.  0.
         24    2    5    5    0    0  0.46103534474E+02  0.35835968847E+02  0.11171335335E+03  0.14921873412E+03  0.79853645748E+02 0.  0.
          5    1    5    5  501    0  0.16624795400E+02 -0.63560901186E+02  0.22909258243E+03  0.23837339052E+03  0.47000000000E+01 0. -1.
        -11    1    6    6    0    0  0.24677982683E+02 -0.23994256541E+02  0.49452268324E+02  0.60251589345E+02  0.00000000000E+00 0.  1.
         12    1    6    6    0    0  0.21425551791E+02  0.59830225387E+02  0.62261085031E+02  0.88967144770E+02  0.00000000000E+00 0. -1.
         -5    1    3    3    0  503 -0.79904713307E+02  0.37649233905E+02  0.27457528492E+02  0.92618755624E+02  0.47000000000E+01 0.  1.
         11    1    4    4    0    0  0.40647270558E+02 -0.26296449079E+02  0.45006268186E+02  0.66100438834E+02  0.00000000000E+00 0. -1.
        -12    1    4    4    0    0 -0.23470887124E+02  0.16372147513E+02  0.66913198558E+02  0.72775723273E+02  0.00000000000E+00 0.  1.
</event>
<event>
12    1  0.8421768E-002  0.2284224E+03  0.7818608E-02  0.1127776E+00
         21   -1    0    0  501  502  0.00000000000E+00  0.00000000000E+00  0.27466498883E+03  0.27466498883E+03  0.00000000000E+00 0.  1.
         21   -1    0    0  502  503 -0.00000000000E+00 -0.00000000000E+00 -0.19181946864E+03  0.19181946864E+03  0.00000000000E+00 0.  1.
         -6    2    1    2    0  503  0.31869857214E+02  0.14739413112E+03  0.64955138917E+02  0.23747837633E+03  0.17156949456E+03 0.  0.
        -24    2    3    3    0    0  0.33580439321E+02  0.34704266706E+02  0.17030002922E+02  0.11491883858E+03  0.10287996126E+03 0.  0.
          6    2    1    2  501    0 -0.31869857214E+02 -0.14739413112E+03  0.17890381273E+02  0.22900608114E+03  0.17141470699E+03 0.  0.
         24    2    5    5    0    0 -0.59080756420E+02 -0.30348048665E+02 -0.96383497213E+00  0.10727773636E+03  0.84238019349E+02 0.  0.
          5    1    5    5  501    0  0.27210899206E+02 -0.11704608245E+03  0.18854216245E+02  0.12172834478E+03  0.47000000000E+01 0. -1.
        -11    1    6    6    0    0  0.12890429252E+02 -0.26464108991E+02  0.15611978579E+02  0.33320355733E+02  0.00000000000E+00 0.  1.
         12    1    6    6    0    0 -0.71971185672E+02 -0.38839396739E+01 -0.16575813551E+02  0.73957380628E+02  0.00000000000E+00 0. -1.
         -5    1    3    3    0  503 -0.17105821072E+01  0.11268986441E+03  0.47925135995E+02  0.12255953775E+03  0.47000000000E+01 0.  1.
         13    1    4    4    0    0 -0.11614778686E+02 -0.30798759797E+02 -0.23872697669E+01  0.33002511206E+02  0.00000000000E+00 0. -1.
        -14    1    4    4    0    0  0.45195218007E+02  0.65503026504E+02  0.19417272689E+02  0.81916327374E+02  0.00000000000E+00 0.  1.
</event>
<event>
12    1  0.8421768E-002  0.2361247E+03  0.7818608E-02  0.1122442E+00
         21   -1    0    0  503  502  0.00000000000E+00  0.00000000000E+00  0.50964986730E+02  0.50964986730E+02  0.00000000000E+00 0.  1.
         21   -1    0    0  501  503 -0.00000000000E+00 -0.00000000000E+00 -0.11413041594E+04  0.11413041594E+04  0.00000000000E+00 0. -1.
          6    2    1    2  501    0  0.33337902512E+02  0.15830583690E+03 -0.66768020486E+03  0.70812505623E+03  0.17167435907E+03 0.  0.
         24    2    3    3    0    0  0.20561419962E+02  0.65163030232E+02 -0.53683720007E+03  0.54693944012E+03  0.79243796451E+02 0.  0.
         -6    2    1    2    0  502 -0.33337902512E+02 -0.15830583690E+03 -0.42265896780E+03  0.48414408989E+03  0.17199634581E+03 0.  0.
        -24    2    5    5    0    0 -0.34202457302E+02 -0.31197800622E+02 -0.26890301445E+03  0.28459413741E+03  0.80881895512E+02 0.  0.
          5    1    3    3  501    0  0.12776482550E+02  0.93142806667E+02 -0.13084300479E+03  0.16118561611E+03  0.47000000000E+01 0. -1.
        -13    1    4    4    0    0  0.50686428816E+02  0.37557152948E+02 -0.35569514237E+03  0.36124602158E+03  0.00000000000E+00 0.  1.
         14    1    4    4    0    0 -0.30125008853E+02  0.27605877284E+02 -0.18114205770E+03  0.18569341854E+03  0.00000000000E+00 0. -1.
         -5    1    5    5    0  502  0.86455478949E+00 -0.12710803628E+03 -0.15375595335E+03  0.19954995247E+03  0.47000000000E+01 0.  1.
         11    1    6    6    0    0  0.13267931922E+02 -0.40140523794E+02 -0.15937712258E+03  0.16488895315E+03  0.00000000000E+00 0. -1.
        -12    1    6    6    0    0 -0.47470389224E+02  0.89427231720E+01 -0.10952589187E+03  0.11970518427E+03  0.00000000000E+00 0.  1.
</event>
<event>
12    1  0.8421768E-002  0.2176968E+03  0.7818608E-02  0.1135889E+00
         21   -1    0    0  501  502  0.00000000000E+00  0.00000000000E+00  0.11868575029E+03  0.11868575029E+03  0.00000000000E+00 0.  1.
         21   -1    0    0  502  503 -0.00000000000E+00 -0.00000000000E+00 -0.48780553569E+03  0.48780553569E+03  0.00000000000E+00 0.  1.
         -6    2    1    2    0  503 -0.48713997796E+02  0.12468737263E+03 -0.53965156330E+02  0.22428582128E+03  0.17167381004E+03 0.  0.
        -24    2    3    3    0    0 -0.77117147859E+02  0.14460291539E+03 -0.37339510195E+02  0.18553185521E+03  0.78554265589E+02 0.  0.
          6    2    1    2  501    0  0.48713997796E+02 -0.12468737263E+03 -0.31515462907E+03  0.38220546471E+03  0.16981926438E+03 0.  0.
         24    2    5    5    0    0  0.71713677057E+02 -0.88529091633E+02 -0.30873682687E+03  0.33862009198E+03  0.79780241199E+02 0.  0.
          5    1    5    5  501    0 -0.22999679261E+02 -0.36158280994E+02 -0.64178021980E+01  0.43585372725E+02  0.47000000000E+01 0. -1.
        -11    1    6    6    0    0  0.59674743421E+02 -0.31076094884E+02 -0.23460216224E+03  0.24405936409E+03  0.00000000000E+00 0.  1.
         12    1    6    6    0    0  0.12038933636E+02 -0.57452996749E+02 -0.74134664634E+02  0.94560727889E+02  0.00000000000E+00 0. -1.
         -5    1    3    3    0  503  0.28403150063E+02 -0.19915542760E+02 -0.16625646134E+02  0.38753966072E+02  0.47000000000E+01 0.  1.
         13    1    4    4    0    0 -0.37271429713E+02  0.14215237878E+02 -0.28266945330E+02  0.48890210258E+02  0.00000000000E+00 0. -1.
        -14    1    4    4    0    0 -0.39845718145E+02  0.13038767751E+03 -0.90725648653E+01  0.13664164495E+03  0.00000000000E+00 0.  1.
</event>
<event>
12    1  0.8421768E-002  0.2079043E+03  0.7818608E-02  0.1144321E+00
         21   -1    0    0  501  502  0.00000000000E+00  0.00000000000E+00  0.46991164348E+03  0.46991164348E+03  0.00000000000E+00 0. -1.
         21   -1    0    0  502  503 -0.00000000000E+00 -0.00000000000E+00 -0.97513256182E+02  0.97513256182E+02  0.00000000000E+00 0. -1.
         -6    2    1    2    0  503  0.96349289427E+02  0.66106518616E+02  0.10336698507E+03  0.22742179536E+03  0.16547713445E+03 0.  0.
        -24    2    3    3    0    0  0.64026983148E+02  0.10821730451E+03  0.71078801369E+02  0.16511074836E+03  0.79993272554E+02 0.  0.
          6    2    1    2  501    0 -0.96349289427E+02 -0.66106518616E+02  0.26903140222E+03  0.34000310430E+03  0.17196208354E+03 0.  0.
         24    2    5    5    0    0 -0.54765458994E+02  0.30079423328E+02  0.11156494874E+03  0.15079759604E+03  0.79932158605E+02 0.  0.
          5    1    5    5  501    0 -0.41583830433E+02 -0.96185941944E+02  0.15746645348E+03  0.18920550825E+03  0.47000000000E+01 0. -1.
        -11    1    6    6    0    0  0.59028405707E+01 -0.90387994208E+00 -0.98840482014E+01  0.11547940708E+02  0.00000000000E+00 0.  1.
         12    1    6    6    0    0 -0.60668299565E+02  0.30983303270E+02  0.12144899694E+03  0.13924965534E+03  0.00000000000E+00 0. -1.
         -5    1    3    3    0  503  0.32322306279E+02 -0.42110785890E+02  0.32288183705E+02  0.62311047001E+02  0.47000000000E+01 0.  1.
         11    1    4    4    0    0  0.47803150928E+01  0.58795003774E+02 -0.17470313314E+01  0.59014879477E+02  0.00000000000E+00 0. -1.
        -12    1    4    4    0    0  0.59246668056E+02  0.49422300732E+02  0.72825832701E+02  0.10609586888E+03  0.00000000000E+00 0.  1.
</event>
<event>
12    1  0.8421768E-002  0.2000245E+03  0.7818608E-02  0.1150414E+00
         21   -1    0    0  501  502  0.00000000000E+00  0.00000000000E+00  0.11061570594E+04  0.11061570594E+04  0.00000000000E+00 0.  1.
         21   -1    0    0  502  503 -0.00000000000E+00 -0.00000000000E+00 -0.47510210785E+02  0.47510210785E+02  0.00000000000E+00 0.  1.
         -6    2    1    2    0  503  0.97020436026E+02  0.12948892589E+02  0.24355495683E+03  0.31516473875E+03  0.17443955035E+03 0.  0.
        -24    2    3    3    0    0  0.51056903324E+02  0.74884721978E+02  0.12782279253E+03  0.17600757165E+03  0.80159029595E+02 0.  0.
          6    2    1    2  501    0 -0.97020436026E+02 -0.12948892589E+02  0.81509189184E+03  0.83850253149E+03  0.17067824803E+03 0.  0.
         24    2    5    5    0    0 -0.96037109871E+02  0.16101107907E+02  0.78955536806E+03  0.79952723796E+03  0.79773133679E+02 0.  0.
          5    1    5    5  501    0 -0.98332615500E+00 -0.29050000496E+02  0.25536523774E+02  0.38975293528E+02  0.47000000000E+01 0. -1.
        -11    1    6    6    0    0 -0.24584037076E+02  0.42211206724E+02  0.26196232607E+03  0.26647780608E+03  0.00000000000E+00 0.  1.
         12    1    6    6    0    0 -0.71453072795E+02 -0.26110098817E+02  0.52759304199E+03  0.53304943188E+03  0.00000000000E+00 0. -1.
         -5    1    3    3    0  503  0.45963532702E+02 -0.61935829389E+02  0.11573216430E+03  0.13915716710E+03  0.47000000000E+01 0.  1.
         13    1    4    4    0    0 -0.12817659338E+02  0.45418263569E+02  0.72540927040E+02  0.86540725398E+02  0.00000000000E+00 0. -1.
        -14    1    4    4    0    0  0.63874562662E+02  0.29466458409E+02  0.55281865485E+02  0.89466846250E+02  0.00000000000E+00 0.  1.
</event>
<event>
12    1  0.8421768E-002  0.2100762E+03  0.7818608E-02  0.1141559E+00
         21   -1    0    0  501  502  0.00000000000E+00  0.00000000000E+00  0.42264591379E+03  0.42264591379E+03  0.00000000000E+00 0.  1.
         21   -1    0    0  502  503 -0.00000000000E+00 -0.00000000000E+00 -0.11165507327E+03  0.11165507327E+03  0.00000000000E+00 0.  1.
         -6    2    1    2    0  503 -0.79454348986E+02 -0.91502314531E+02  0.86953062651E+02  0.22736064846E+03  0.17159942373E+03 0.  0.
        -24    2    3    3    0    0 -0.69601147367E+02 -0.10172958323E+03  0.84341728100E+01  0.14742949890E+03  0.80443110679E+02 0.  0.
          6    2    1    2  501    0  0.79454348986E+02  0.91502314531E+02  0.22403777786E+03  0.30694033861E+03  0.17127106707E+03 0.  0.
         24    2    5    5    0    0 -0.12617187482E+02  0.38206691660E+02  0.79519728144E+02  0.12742669584E+03  0.91078158418E+02 0.  0.
          5    1    5    5  501    0  0.92071536468E+02  0.53295622870E+02  0.14451804972E+03  0.17951364277E+03  0.47000000000E+01 0. -1.
        -11    1    6    6    0    0  0.17432205221E+02 -0.21406328633E+02  0.62502746936E+01  0.28305098802E+02  0.00000000000E+00 0.  1.
         12    1    6    6    0    0 -0.30049392703E+02  0.59613020294E+02  0.73269453451E+02  0.99121597038E+02  0.00000000000E+00 0. -1.
         -5    1    3    3    0  503 -0.98532016184E+01  0.10227268701E+02  0.78518889841E+02  0.79931149555E+02  0.47000000000E+01 0.  1.
         11    1    4    4    0    0 -0.43383378384E+02 -0.99037620456E+02  0.31273293172E+02  0.11255481621E+03  0.00000000000E+00 0. -1.
        -12    1    4    4    0    0 -0.26217768984E+02 -0.26919627757E+01 -0.22839120362E+02  0.34874682694E+02  0.00000000000E+00 0.  1.
</event>
<event>
12    1  0.8421768E-002  0.1974641E+03  0.7818608E-02  0.1152110E+00
         21   -1    0    0  503  502  0.00000000000E+00  0.00000000000E+00  0.22453110001E+04  0.22453110001E+04  0.00000000000E+00 0.  1.
         21   -1    0    0  501  503 -0.00000000000E+00 -0.00000000000E+00 -0.20356667354E+02  0.20356667354E+02  0.00000000000E+00 0. -1.
          6    2    1    2  501    0  0.96749588756E+02  0.16727951864E+02  0.67436591500E+03  0.70268160553E+03  0.17132350727E+03 0.  0.
         24    2    3    3    0    0  0.20248211948E+02  0.62063665275E+02  0.28624650536E+03  0.30447744470E+03  0.80669472956E+02 0.  0.
         -6    2    1    2    0  502 -0.96749588756E+02 -0.16727951864E+02  0.15505884177E+04  0.15629860619E+04  0.17017838056E+03 0.  0.
        -24    2    5    5    0    0 -0.42102839077E+02 -0.49484284820E+02  0.45013210001E+03  0.46067692114E+03  0.73368758408E+02 0.  0.
          5    1    3    3  501    0  0.76501376808E+02 -0.45335713411E+02  0.38811940963E+03  0.39820416082E+03  0.47000000000E+01 0. -1.
        -13    1    4    4    0    0  0.40288794641E+02  0.23513544377E+02  0.22246691765E+03  0.22730508836E+03  0.00000000000E+00 0.  1.
         14    1    4    4    0    0 -0.20040582692E+02  0.38550120898E+02  0.63779587710E+02  0.77172356348E+02  0.00000000000E+00 0. -1.
         -5    1    5    5    0  502 -0.54646749679E+02  0.32756332956E+02  0.11004563177E+04  0.11023091407E+04  0.47000000000E+01 0.  1.
         13    1    6    6    0    0 -0.25217603792E+02  0.13011304182E+00  0.40525827925E+02  0.47731406846E+02  0.00000000000E+00 0. -1.
        -14    1    6    6    0    0 -0.16885235285E+02 -0.49614397862E+02  0.40960627208E+03  0.41294551429E+03  0.00000000000E+00 0.  1.
</event>
<event>
12    1  0.8421768E-002  0.1835296E+03  0.7818608E-02  0.1164575E+00
         21   -1    0    0  503  502  0.00000000000E+00  0.00000000000E+00  0.94387683133E+02  0.94387683133E+02  0.00000000000E+00 0.  1.
         21   -1    0    0  501  503 -0.00000000000E+00 -0.00000000000E+00 -0.41844032342E+03  0.41844032342E+03  0.00000000000E+00 0.  1.
          6    2    1    2  501    0  0.10623218621E+02 -0.62239287690E+02 -0.26110792307E+03  0.31880438273E+03  0.17167499892E+03 0.  0.
         24    2    3    3    0    0 -0.22212152355E+02 -0.10104893072E+03 -0.20381377721E+03  0.24206417731E+03  0.79691555657E+02 0.  0.
         -6    2    1    2    0  502 -0.10623218621E+02  0.62239287690E+02 -0.62944717219E+02  0.19402362382E+03  0.17232686230E+03 0.  0.
        -24    2    5    5    0    0  0.11096287192E+02  0.84502084362E+02 -0.96499053924E+02  0.14803066175E+03  0.73056687295E+02 0.  0.
          5    1    3    3  501    0  0.32835370976E+02  0.38809643028E+02 -0.57294145859E+02  0.76740205426E+02  0.47000000000E+01 0. -1.
        -13    1    4    4    0    0  0.21333178823E+02 -0.12611551888E+02 -0.14735795620E+02  0.28832263738E+02  0.00000000000E+00 0.  1.
         14    1    4    4    0    0 -0.43545331178E+02 -0.88437378829E+02 -0.18907798159E+03  0.21323191357E+03  0.00000000000E+00 0. -1.
         -5    1    5    5    0  502 -0.21719505814E+02 -0.22262796673E+02  0.33554336705E+02  0.45992962072E+02  0.47000000000E+01 0.  1.
         11    1    6    6    0    0 -0.72710130370E+00  0.42424049840E+02 -0.37025546944E+00  0.42431895671E+02  0.00000000000E+00 0. -1.
        -12    1    6    6    0    0  0.11823388496E+02  0.42078034522E+02 -0.96128798455E+02  0.10559876608E+03  0.00000000000E+00 0.  1.
</event>
<event>
12    1  0.8421768E-002  0.2033086E+03  0.7818608E-02  0.1155619E+00
         21   -1    0    0  503  502  0.00000000000E+00  0.00000000000E+00  0.21831536320E+02  0.21831536320E+02  0.00000000000E+00 0. -1.
         21   -1    0    0  501  503 -0.00000000000E+00 -0.00000000000E+00 -0.15598610473E+04  0.15598610473E+04  0.00000000000E+00 0. -1.
          6    2    1    2  501    0  0.65828621436E+02 -0.27193337108E+02 -0.69965965715E+03  0.71902324618E+03  0.14965930549E+03 0.  0.
         24    2    3    3    0    0 -0.15978226161E+01 -0.44037604039E+02 -0.24435150321E+03  0.25841749314E+03  0.71624577028E+02 0.  0.
         -6    2    1    2    0  502 -0.65828621436E+02  0.27193337108E+02 -0.83836985383E+03  0.86266933744E+03  0.19042449676E+03 0.  0.
        -24    2    5    5    0    0  0.87300556846E+01  0.23133648895E+02 -0.16646917742E+03  0.18661602123E+03  0.80636051272E+02 0.  0.
          5    1    3    3  501    0  0.67426444052E+02  0.16844266932E+02 -0.45530815394E+03  0.46060575304E+03  0.47000000000E+01 0. -1.
        -13    1    4    4    0    0 -0.18035808813E+02  0.81486458422E+01 -0.13173430476E+03  0.13321267912E+03  0.00000000000E+00 0.  1.
         14    1    4    4    0    0  0.16437986197E+02 -0.52186249881E+02 -0.11261719845E+03  0.12520481402E+03  0.00000000000E+00 0. -1.
         -5    1    5    5    0  502 -0.74558677120E+02  0.40596882123E+01 -0.67190067641E+03  0.67605331621E+03  0.47000000000E+01 0.  1.
         11    1    6    6    0    0 -0.10486062584E+02  0.46276553843E+02 -0.63043684585E+02  0.78904899152E+02  0.00000000000E+00 0. -1.
        -12    1    6    6    0    0  0.19216118268E+02 -0.23142904948E+02 -0.10342549284E+03  0.10771112208E+03  0.00000000000E+00 0.  1.
</event>
<event>
12    1  0.8421768E-002  0.2064360E+03  0.7818608E-02  0.1144486E+00
         21   -1    0    0  503  502  0.00000000000E+00  0.00000000000E+00  0.41605675184E+03  0.41605675184E+03  0.00000000000E+00 0.  1.
         21   -1    0    0  501  503 -0.00000000000E+00 -0.00000000000E+00 -0.53088344728E+03  0.53088344728E+03  0.00000000000E+00 0.  1.
          6    2    1    2  501    0 -0.89138718776E+02 -0.72096694111E+02 -0.48283487442E+03  0.52498543081E+03  0.17127913511E+03 0.  0.
         24    2    3    3    0    0 -0.95620195538E+02 -0.67042056995E+02 -0.49184216887E+03  0.51191713900E+03  0.80700550938E+02 0.  0.
         -6    2    1    2    0  502  0.89138718776E+02  0.72096694111E+02  0.36800817898E+03  0.42195476830E+03  0.17167458231E+03 0.  0.
        -24    2    5    5    0    0  0.35949386450E+01  0.93880818580E+02  0.19380400527E+03  0.22660515726E+03  0.70451211174E+02 0.  0.
          5    1    3    3  501    0  0.64814767619E+01 -0.50546371167E+01  0.90072944550E+01  0.13068291809E+02  0.47000000000E+01 0. -1.
        -11    1    4    4    0    0 -0.10894790869E+02  0.98740690213E+01 -0.16439010103E+03  0.16504635417E+03  0.00000000000E+00 0.  1.
         12    1    4    4    0    0 -0.84725404669E+02 -0.76916126016E+02 -0.32745206784E+03  0.34687078483E+03  0.00000000000E+00 0. -1.
         -5    1    5    5    0  502  0.85543780131E+02 -0.21784124469E+02  0.17420417371E+03  0.19534961105E+03  0.47000000000E+01 0.  1.
         13    1    6    6    0    0  0.83015211125E+01  0.82189551574E+02  0.90490547061E+02  0.12252582074E+03  0.00000000000E+00 0. -1.
        -14    1    6    6    0    0 -0.47065824675E+01  0.11691267006E+02  0.10331345821E+03  0.10407933652E+03  0.00000000000E+00 0.  1.
</event>
<event>
12    1  0.8421768E-002  0.1937124E+03  0.7818608E-02  0.1157114E+00
         21   -1    0    0  501  502  0.00000000000E+00  0.00000000000E+00  0.41993813398E+03  0.41993813398E+03  0.00000000000E+00 0. -1.
         21   -1    0    0  502  503 -0.00000000000E+00 -0.00000000000E+00 -0.90713310736E+02  0.90713310736E+02  0.00000000000E+00 0.  1.
         -6    2    1    2    0  503  0.70318401587E+02  0.10767327290E+02  0.22287652150E+03  0.28966625095E+03  0.17079806838E+03 0.  0.
        -24    2    3    3    0    0  0.91783747389E+02 -0.34727437422E+02  0.19318206302E+03  0.23106262008E+03  0.80251939094E+02 0.  0.
          6    2    1    2  501    0 -0.70318401587E+02 -0.10767327290E+02  0.10634830174E+03  0.22098519377E+03  0.18017736163E+03 0.  0.
         24    2    5    5    0    0 -0.10721491413E+03  0.21321851048E+02  0.46953335305E+02  0.14390782977E+03  0.80964119382E+02 0.  0.
          5    1    5    5  501    0  0.36896512543E+02 -0.32089178337E+02  0.59394966440E+02  0.77077364009E+02  0.47000000000E+01 0. -1.
        -13    1    6    6    0    0 -0.43825998684E+02  0.79471733596E+01 -0.21672327289E+02  0.49533478529E+02  0.00000000000E+00 0.  1.
         14    1    6    6    0    0 -0.63388915447E+02  0.13374677688E+02  0.68625662594E+02  0.94374351236E+02  0.00000000000E+00 0. -1.
         -5    1    3    3    0  503 -0.21465345802E+02  0.45494764712E+02  0.29694458481E+02  0.58603630869E+02  0.47000000000E+01 0.  1.
         13    1    4    4    0    0  0.62257058638E+01 -0.90316173638E+01  0.10488404798E+03  0.10545611906E+03  0.00000000000E+00 0. -1.
        -14    1    4    4    0    0  0.85558041525E+02 -0.25695820058E+02  0.88298015041E+02  0.12560650102E+03  0.00000000000E+00 0.  1.
</event>
<event>
12    1  0.8421768E-002  0.2283830E+03  0.7818608E-02  0.1128026E+00
         21   -1    0    0  503  502  0.00000000000E+00  0.00000000000E+00  0.59713947803E+02  0.59713947803E+02  0.00000000000E+00 0. -1.
         21   -1    0    0  501  503 -0.00000000000E+00 -0.00000000000E+00 -0.86872216312E+03  0.86872216312E+03  0.00000000000E+00 0. -1.
          6    2    1    2  501    0 -0.47979176807E+02  0.14170823016E+03 -0.41377549986E+03  0.47196302106E+03  0.17075041747E+03 0.  0.
         24    2    3    3    0    0 -0.35172603686E+02  0.13791964247E+03 -0.19953884102E+03  0.25725904415E+03  0.78150667897E+02 0.  0.
         -6    2    1    2    0  502  0.47979176807E+02 -0.14170823016E+03 -0.39523271546E+03  0.45647308986E+03  0.17255595758E+03 0.  0.
        -24    2    5    5    0    0  0.48947318009E+02 -0.13550493476E+03 -0.19233856696E+03  0.25342742094E+03  0.80460587003E+02 0.  0.
          5    1    3    3  501    0 -0.12806573121E+02  0.37885876875E+01 -0.21423665884E+03  0.21470397692E+03  0.47000000000E+01 0. -1.
        -13    1    4    4    0    0 -0.11903201590E+02  0.37728176886E+01  0.33439107208E+01  0.12926797760E+02  0.00000000000E+00 0.  1.
         14    1    4    4    0    0 -0.23269402096E+02  0.13414682478E+03 -0.20288275174E+03  0.24433224639E+03  0.00000000000E+00 0. -1.
         -5    1    5    5    0  502 -0.96814120168E+00 -0.62032953959E+01 -0.20289414850E+03  0.20304566892E+03  0.47000000000E+01 0.  1.
         11    1    6    6    0    0  0.62328344218E+02 -0.66909202644E+02 -0.13486207889E+03  0.16294000188E+03  0.00000000000E+00 0. -1.
        -12    1    6    6    0    0 -0.13381026209E+02 -0.68595732116E+02 -0.57476488066E+02  0.90487419055E+02  0.00000000000E+00 0.  1.
</event>
<event>
12    1  0.8421768E-002  0.2219592E+03  0.7818608E-02  0.1133720E+00
         21   -1    0    0  501  502  0.00000000000E+00  0.00000000000E+00  0.17530459595E+04  0.17530459595E+04  0.00000000000E+00 0. -1.
         21   -1    0    0  502  503 -0.00000000000E+00 -0.00000000000E+00 -0.27608482502E+02  0.27608482502E+02  0.00000000000E+00 0. -1.
         -6    2    1    2    0  503 -0.10284583509E+03 -0.95721037150E+02  0.77308608530E+03  0.80431833035E+03  0.17183159925E+03 0.  0.
        -24    2    3    3    0    0 -0.95646165391E+01 -0.13289251761E+02  0.46007248101E+03  0.46742666905E+03  0.80950089932E+02 0.  0.
          6    2    1    2  501    0  0.10284583509E+03  0.95721037150E+02  0.95235139174E+03  0.97633611169E+03  0.16284731163E+03 0.  0.
         24    2    5    5    0    0  0.11774069087E+02  0.83974329268E+02  0.65866155517E+03  0.66858968716E+03  0.77374471503E+02 0.  0.
          5    1    5    5  501    0  0.91071766007E+02  0.11746707882E+02  0.29368983657E+03  0.30774642453E+03  0.47000000000E+01 0. -1.
        -11    1    6    6    0    0  0.23649322030E+02 -0.50168127345E+01  0.10943761072E+03  0.11207608791E+03  0.00000000000E+00 0.  1.
         12    1    6    6    0    0 -0.11875252942E+02  0.88991142003E+02  0.54922394445E+03  0.55651359925E+03  0.00000000000E+00 0. -1.
         -5    1    3    3    0  503 -0.93281218555E+02 -0.82431785389E+02  0.31301360430E+03  0.33689166130E+03  0.47000000000E+01 0.  1.
         11    1    4    4    0    0 -0.11280729322E+02 -0.33102172673E+02  0.42971165142E+03  0.43113236025E+03  0.00000000000E+00 0. -1.
        -12    1    4    4    0    0  0.17161127827E+01  0.19812920912E+02  0.30360829584E+02  0.36294308799E+02  0.00000000000E+00 0.  1.
</event>
<event>
12    1  0.8421768E-002  0.1933785E+03  0.7818608E-02  0.1155585E+00
         21   -1    0    0  503  502  0.00000000000E+00  0.00000000000E+00  0.17831167270E+03  0.17831167270E+03  0.00000000000E+00 0.  1.
         21   -1    0    0  501  503 -0.00000000000E+00 -0.00000000000E+00 -0.22651117324E+03  0.22651117324E+03  0.00000000000E+00 0. -1.
          6    2    1    2  501    0  0.67844344689E+02  0.55008422791E+02 -0.80331675220E+02  0.20940018720E+03  0.17252964578E+03 0.  0.
         24    2    3    3    0    0  0.62894843495E+01  0.12696949519E+02  0.23263695603E+02  0.81598182297E+02  0.76917447179E+02 0.  0.
         -6    2    1    2    0  502 -0.67844344689E+02 -0.55008422791E+02  0.32132174682E+02  0.19542265873E+03  0.17183933546E+03 0.  0.
        -24    2    5    5    0    0  0.12228533614E+02  0.18654052913E+02  0.12708148799E+02  0.84800739803E+02  0.80821765019E+02 0.  0.
          5    1    3    3  501    0  0.61554860339E+02  0.42311473272E+02 -0.10359537082E+03  0.12780200491E+03  0.47000000000E+01 0. -1.
        -11    1    4    4    0    0 -0.16802049818E+02  0.34874751729E+02  0.29884018100E+02  0.48904107435E+02  0.00000000000E+00 0.  1.
         12    1    4    4    0    0  0.23091534167E+02 -0.22177802210E+02 -0.66203224963E+01  0.32694074861E+02  0.00000000000E+00 0. -1.
         -5    1    5    5    0  502 -0.80072878303E+02 -0.73662475704E+02  0.19424025883E+02  0.11062191893E+03  0.47000000000E+01 0.  1.
         13    1    6    6    0    0 -0.25965148045E+02 -0.17318954127E+02  0.21767031176E+01  0.31286948101E+02  0.00000000000E+00 0. -1.
        -14    1    6    6    0    0  0.38193681659E+02  0.35973007040E+02  0.10531445681E+02  0.53513791701E+02  0.00000000000E+00 0.  1.
</event>
<event>
12    1  0.8421768E-002  0.2320525E+03  0.7818608E-02  0.1125689E+00
         21   -1    0    0  503  502  0.00000000000E+00  0.00000000000E+00  0.49867308768E+03  0.49867308768E+03  0.00000000000E+00 0.  1.
         21   -1    0    0  501  503 -0.00000000000E+00 -0.00000000000E+00 -0.18890901102E+03  0.18890901102E+03  0.00000000000E+00 0. -1.
          6    2    1    2  501    0 -0.84615402259E+01 -0.15450610234E+03 -0.72439969073E+02  0.24044865700E+03  0.16918709824E+03 0.  0.
         24    2    3    3    0    0  0.55026482464E+02 -0.85428203054E+02 -0.67265535174E+02  0.14636704370E+03  0.81072607031E+02 0.  0.
         -6    2    1    2    0  502  0.84615402259E+01  0.15450610234E+03  0.38220404573E+03  0.44713344170E+03  0.17292960646E+03 0.  0.
        -24    2    5    5    0    0 -0.76839764340E+01  0.18981932024E+02  0.21855705615E+03  0.23399051864E+03  0.81024803528E+02 0.  0.
          5    1    3    3  501    0 -0.63488022690E+02 -0.69077899285E+02 -0.51744338983E+01  0.94081613298E+02  0.47000000000E+01 0. -1.
        -11    1    4    4    0    0  0.12686438392E+02 -0.64596588859E+02 -0.20397821379E+01  0.65862172167E+02  0.00000000000E+00 0.  1.
         12    1    4    4    0    0  0.42340044072E+02 -0.20831614195E+02 -0.65225753036E+02  0.80504871537E+02  0.00000000000E+00 0. -1.
         -5    1    5    5    0  502  0.16145516660E+02  0.13552417032E+03  0.16364698958E+03  0.21314292305E+03  0.47000000000E+01 0.  1.
         11    1    6    6    0    0  0.20466825272E+02 -0.18632472133E+02  0.35577782985E+02  0.45075920364E+02  0.00000000000E+00 0. -1.
        -12    1    6    6    0    0 -0.28150801706E+02  0.37614404157E+02  0.18297927316E+03  0.18891459828E+03  0.00000000000E+00 0.  1.
</event>
<event>
12    1  0.8421768E-002  0.1806485E+03  0.7818608E-02  0.1167655E+00
         21   -1    0    0  503  502  0.00000000000E+00  0.00000000000E+00  0.80493239888E+02  0.80493239888E+02  0.00000000000E+00 0.  1.
         21   -1    0    0  501  503 -0.00000000000E+00 -0.00000000000E+00 -0.83275618166E+03  0.83275618166E+03  0.00000000000E+00 0.  1.
          6    2    1    2  501    0 -0.47011980268E+02 -0.13607394941E+02 -0.70392244641E+03  0.72624491477E+03  0.17184172424E+03 0.  0.
         24    2    3    3    0    0 -0.48278787085E+02  0.42406030953E+02 -0.59433120769E+03  0.60307252223E+03  0.79610111761E+02 0.  0.
         -6    2    1    2    0  502  0.47011980268E+02  0.13607394941E+02 -0.48340495368E+02  0.18700450678E+03  0.17389247994E+03 0.  0.
        -24    2    5    5    0    0  0.47360851233E+02 -0.39710761886E+02 -0.74374511848E+02  0.12748301846E+03  0.83068388348E+02 0.  0.
          5    1    3    3  501    0  0.12668068172E+01 -0.56013425894E+02 -0.10959123872E+03  0.12317239254E+03  0.47000000000E+01 0. -1.
        -11    1    4    4    0    0  0.19422408006E+02  0.12114176841E+02 -0.23835794996E+03  0.23945457925E+03  0.00000000000E+00 0.  1.
         12    1    4    4    0    0 -0.67701195091E+02  0.30291854112E+02 -0.35597325773E+03  0.36361794298E+03  0.00000000000E+00 0. -1.
         -5    1    5    5    0  502 -0.34887096501E+00  0.53318156827E+02  0.26034016480E+02  0.59521488326E+02  0.47000000000E+01 0.  1.
         11    1    6    6    0    0 -0.21872471140E+02 -0.23846667307E+02 -0.26533411949E+02  0.41846033086E+02  0.00000000000E+00 0. -1.
        -12    1    6    6    0    0  0.69233322372E+02 -0.15864094579E+02 -0.47841099900E+02  0.85636985369E+02  0.00000000000E+00 0.  1.
</event>
<event>
12    1  0.8421768E-002  0.1892005E+03  0.7818608E-02  0.1159557E+00
         21   -1    0    0  503  502  0.00000000000E+00  0.00000000000E+00  0.92817614966E+03  0.92817614966E+03  0.00000000000E+00 0.  1.
         21   -1    0    0  501  503 -0.00000000000E+00 -0.00000000000E+00 -0.38234083013E+02  0.38234083013E+02  0.00000000000E+00 0. -1.
          6    2    1    2  501    0  0.72922629106E+02  0.55351521406E+01  0.44539859172E+03  0.48391810420E+03  0.17449492348E+03 0.  0.
         24    2    3    3    0    0  0.82019144565E+02 -0.39156123131E+02  0.18641498232E+03  0.22090735039E+03  0.76086593900E+02 0.  0.
         -6    2    1    2    0  502 -0.72922629106E+02 -0.55351521406E+01  0.44454347492E+03  0.48249212847E+03  0.17271770376E+03 0.  0.
        -24    2    5    5    0    0  0.85396579746E+00 -0.42943450838E+02  0.14624141541E+03  0.17289791749E+03  0.81622723928E+02 0.  0.
          5    1    3    3  501    0 -0.90965154590E+01  0.44691275271E+02  0.25898360941E+03  0.26301075381E+03  0.47000000000E+01 0. -1.
        -13    1    4    4    0    0  0.48313174475E+01 -0.36167251951E+02  0.91661070578E+02  0.98656797037E+02  0.00000000000E+00 0.  1.
         14    1    4    4    0    0  0.77187827117E+02 -0.29888711803E+01  0.94753911737E+02  0.12225055335E+03  0.00000000000E+00 0. -1.
         -5    1    5    5    0  502 -0.73776594903E+02  0.37408298697E+02  0.29830205951E+03  0.30959421098E+03  0.47000000000E+01 0.  1.
         11    1    6    6    0    0  0.35236087646E+02 -0.12329760858E+02  0.10370234251E+03  0.11021697109E+03  0.00000000000E+00 0. -1.
        -12    1    6    6    0    0 -0.34382121849E+02 -0.30613689980E+02  0.42539072905E+02  0.62680946392E+02  0.00000000000E+00 0.  1.
</event>
<event>
12    1  0.8421768E-002  0.2058893E+03  0.7818608E-02  0.1144975E+00
         21   -1    0    0  503  502  0.00000000000E+00  0.00000000000E+00  0.73872992693E+02  0.73872992693E+02  0.00000000000E+00 0. -1.
         21   -1    0    0  501  503 -0.00000000000E+00 -0.00000000000E+00 -0.67699738022E+03  0.67699738022E+03  0.00000000000E+00 0.  1.
          6    2    1    2  501    0  0.62001850697E+02 -0.94186430389E+02 -0.44886355176E+03  0.49360240363E+03  0.17160865833E+03 0.  0.
         24    2    3    3    0    0  0.18410704602E+02 -0.12115527844E+03 -0.27322057105E+03  0.31057220543E+03  0.82389676542E+02 0.  0.
         -6    2    1    2    0  502 -0.62001850697E+02  0.94186430389E+02 -0.15426083576E+03  0.25726796928E+03  0.17226459127E+03 0.  0.
        -24    2    5    5    0    0 -0.11502799637E+02  0.11546693437E+03 -0.14309799220E+03  0.20114566458E+03  0.80731751350E+02 0.  0.
          5    1    3    3  501    0  0.43591146095E+02  0.26968848050E+02 -0.17564298071E+03  0.18303019821E+03  0.47000000000E+01 0. -1.
        -11    1    4    4    0    0  0.25982761523E+02 -0.12278485715E+03 -0.27529533900E+03  0.30255371212E+03  0.00000000000E+00 0.  1.
         12    1    4    4    0    0 -0.75720569210E+01  0.16295787102E+01  0.20747679549E+01  0.80184933032E+01  0.00000000000E+00 0. -1.
         -5    1    5    5    0  502 -0.50499051061E+02 -0.21280503980E+02 -0.11162843560E+02  0.56122304692E+02  0.47000000000E+01 0.  1.
         11    1    6    6    0    0 -0.28500294659E+02  0.71628370206E+02 -0.37867330248E+02  0.85888444590E+02  0.00000000000E+00 0. -1.
        -12    1    6    6    0    0  0.16997495022E+02  0.43838564162E+02 -0.10523066196E+03  0.11525721999E+03  0.00000000000E+00 0.  1.
</event>
<event>
12    1  0.8421768E-002  0.1895363E+03  0.7818608E-02  0.1159199E+00
         21   -1    0    0  503  502  0.00000000000E+00  0.00000000000E+00  0.20186507749E+03  0.20186507749E+03  0.00000000000E+00 0.  1.
         21   -1    0    0  501  503 -0.00000000000E+00 -0.00000000000E+00 -0.18155736513E+03  0.18155736513E+03  0.00000000000E+00 0.  1.
          6    2    1    2  501    0 -0.71893705151E+02  0.32530874413E+02 -0.21342959222E+02  0.19073422300E+03  0.17232834730E+03 0.  0.
         24    2    3    3    0    0 -0.47366987624E+01  0.16572927904E+02  0.46301857581E+02  0.93973534675E+02  0.79937881816E+02 0.  0.
         -6    2    1    2    0  502  0.71893705151E+02 -0.32530874413E+02  0.41650671583E+02  0.19268821963E+03  0.17078351475E+03 0.  0.
        -24    2    5    5    0    0  0.10326951973E+03 -0.29896521907E+02  0.68848379420E+02  0.15081714530E+03  0.80295181922E+02 0.  0.
          5    1    3    3  501    0 -0.67157006389E+02  0.15957946509E+02 -0.67644816803E+02  0.96760688321E+02  0.47000000000E+01 0. -1.
        -11    1    4    4    0    0  0.21036548003E+02  0.13226251670E+02 -0.13849349792E+02  0.28447751665E+02  0.00000000000E+00 0.  1.
         12    1    4    4    0    0 -0.25773246766E+02  0.33466762344E+01  0.60151207373E+02  0.65525783010E+02  0.00000000000E+00 0. -1.
         -5    1    5    5    0  502 -0.31375814583E+02 -0.26343525059E+01 -0.27197707836E+02  0.41871074329E+02  0.47000000000E+01 0.  1.
         13    1    6    6    0    0  0.39822340594E+02  0.20573987375E+02  0.57581719763E+00  0.44826770265E+02  0.00000000000E+00 0. -1.
        -14    1    6    6    0    0  0.63447179140E+02 -0.50470509282E+02  0.68272562222E+02  0.10599037504E+03  0.00000000000E+00 0.  1.
</event>
<event>
12    1  0.8421768E-002  0.1957814E+03  0.7818608E-02  0.1153481E+00
         21   -1    0    0  501  502  0.00000000000E+00  0.00000000000E+00  0.48077663063E+03  0.48077663063E+03  0.00000000000E+00 0.  1.
         21   -1    0    0  502  503 -0.00000000000E+00 -0.00000000000E+00 -0.10833688939E+03  0.10833688939E+03  0.00000000000E+00 0.  1.
         -6    2    1    2    0  503 -0.60358978856E+02 -0.71022664518E+02  0.34402781323E+02  0.19878105784E+03  0.17217122986E+03 0.  0.
        -24    2    3    3    0    0  0.16385968586E+01  0.43612960907E+01  0.56947062093E+02  0.98497582100E+02  0.80231539280E+02 0.  0.
          6    2    1    2  501    0  0.60358978856E+02  0.71022664518E+02  0.33803695991E+03  0.39033246218E+03  0.17147308699E+03 0.  0.
         24    2    5    5    0    0  0.37658599112E+02  0.55666458779E+01  0.29999949643E+03  0.31115711093E+03  0.73279548260E+02 0.  0.
          5    1    5    5  501    0  0.22700379745E+02  0.65456018640E+02  0.38037463479E+02  0.79175351245E+02  0.47000000000E+01 0. -1.
        -11    1    6    6    0    0  0.52360969380E+02  0.24601684585E+02  0.22898488646E+03  0.23617999964E+03  0.00000000000E+00 0.  1.
         12    1    6    6    0    0 -0.14702370269E+02 -0.19035038707E+02  0.71014609965E+02  0.74977111298E+02  0.00000000000E+00 0. -1.
         -5    1    3    3    0  503 -0.61997575715E+02 -0.75383960609E+02 -0.22544280770E+02  0.10028347574E+03  0.47000000000E+01 0.  1.
         11    1    4    4    0    0  0.38934057158E+02  0.89622243757E+01  0.16322424502E+02  0.43157893996E+02  0.00000000000E+00 0. -1.
        -12    1    4    4    0    0 -0.37295460300E+02 -0.46009282850E+01  0.40624637591E+02  0.55339688104E+02  0.00000000000E+00 0.  1.
</event>
<event>
12    1  0.8421768E-002  0.1800261E+03  0.7818608E-02  0.1168200E+00
         21   -1    0    0  501  502  0.00000000000E+00  0.00000000000E+00  0.36198566124E+03  0.36198566124E+03  0.00000000000E+00 0.  1.
         21   -1    0    0  502  503 -0.00000000000E+00 -0.00000000000E+00 -0.92001100788E+02  0.92001100788E+02  0.00000000000E+00 0. -1.
         -6    2    1    2    0  503 -0.47482829333E+02 -0.86942063847E+01  0.92436134653E+02  0.20237051603E+03  0.17343349867E+03 0.  0.
        -24    2    3    3    0    0 -0.28738955482E+02 -0.77272810415E+02  0.68664252917E+02  0.12726026307E+03  0.68435225846E+02 0.  0.
          6    2    1    2  501    0  0.47482829333E+02  0.86942063847E+01  0.17754842580E+03  0.25161624600E+03  0.17163065997E+03 0.  0.
         24    2    5    5    0    0  0.58220570503E+02  0.60558583838E+02  0.16027778891E+03  0.19570938030E+03  0.74540022900E+02 0.  0.
          5    1    5    5  501    0 -0.10737741169E+02 -0.51864377454E+02  0.17270636893E+02  0.55906865703E+02  0.47000000000E+01 0. -1.
        -11    1    6    6    0    0  0.40334529865E+02 -0.48575385950E+01  0.86098085458E+02  0.95201629714E+02  0.00000000000E+00 0.  1.
         12    1    6    6    0    0  0.17886040638E+02  0.65416122433E+02  0.74179703448E+02  0.10050775058E+03  0.00000000000E+00 0. -1.
         -5    1    3    3    0  503 -0.18743873851E+02  0.68578604031E+02  0.23771881736E+02  0.75110252955E+02  0.47000000000E+01 0.  1.
         13    1    4    4    0    0  0.16954523618E+02 -0.50371722585E+02  0.25811934566E+02  0.59084873473E+02  0.00000000000E+00 0. -1.
        -14    1    4    4    0    0 -0.45693479100E+02 -0.26901087830E+02  0.42852318352E+02  0.68175389598E+02  0.00000000000E+00 0.  1.
</event>
<event>
12    1  0.8421768E-002  0.2014457E+03  0.7818608E-02  0.1149405E+00
         21   -1    0    0  503  502  0.00000000000E+00  0.00000000000E+00  0.37346705871E+03  0.37346705871E+03  0.00000000000E+00 0. -1.
         21   -1    0    0  501  503 -0.00000000000E+00 -0.00000000000E+00 -0.17731885617E+03  0.17731885617E+03  0.00000000000E+00 0. -1.
          6    2    1    2  501    0  0.10099370666E+03 -0.11320117095E+02 -0.75440393808E+02  0.21510840789E+03  0.17393245900E+03 0.  0.
         24    2    3    3    0    0  0.15915378394E+02 -0.60654909133E+02 -0.51118603753E+02  0.11368906498E+03  0.79873491059E+02 0.  0.
         -6    2    1    2    0  502 -0.10099370666E+03  0.11320117095E+02  0.27158859634E+03  0.33567750698E+03  0.16908917528E+03 0.  0.
        -24    2    5    5    0    0 -0.21390279429E+02  0.54461501236E+02  0.18770849113E+03  0.21216294629E+03  0.79718498264E+02 0.  0.
          5    1    3    3  501    0  0.85078328270E+02  0.49334792038E+02 -0.24321790054E+02  0.10141934292E+03  0.47000000000E+01 0. -1.
        -13    1    4    4    0    0 -0.19397501370E+02 -0.29886322274E+02 -0.56236506533E+02  0.66573267800E+02  0.00000000000E+00 0.  1.
         14    1    4    4    0    0  0.35312879765E+02 -0.30768586859E+02  0.51179027802E+01  0.47115797176E+02  0.00000000000E+00 0. -1.
         -5    1    5    5    0  502 -0.79603427235E+02 -0.43141384140E+02  0.83880105207E+02  0.12351456069E+03  0.47000000000E+01 0.  1.
         13    1    6    6    0    0 -0.40863806733E+02  0.15500626361E+01  0.98238460944E+02  0.10640981441E+03  0.00000000000E+00 0. -1.
        -14    1    6    6    0    0  0.19473527304E+02  0.52911438600E+02  0.89470030188E+02  0.10575313188E+03  0.00000000000E+00 0.  1.
</event>
<event>
12    1  0.8421768E-002  0.1737373E+03  0.7818608E-02  0.1174747E+00
         21   -1    0    0  503  502  0.00000000000E+00  0.00000000000E+00  0.34652390786E+03  0.34652390786E+03  0.00000000000E+00 0. -1.
         21   -1    0    0  501  503 -0.00000000000E+00 -0.00000000000E+00 -0.13018113984E+03  0.13018113984E+03  0.00000000000E+00 0. -1.
          6    2    1    2  501    0 -0.83649250917E+01 -0.16107351284E+02 -0.31814612724E+02  0.17377479039E+03  0.16987080224E+03 0.  0.
         24    2    3    3    0    0 -0.64388339034E+02 -0.21056990683E+02  0.80940281510E+01  0.10465235223E+03  0.79355821941E+02 0.  0.
         -6    2    1    2    0  502  0.83649250917E+01  0.16107351284E+02  0.24815738075E+03  0.30293025731E+03  0.17278667899E+03 0.  0.
        -24    2    5    5    0    0  0.35128149706E+02  0.40991006203E+02  0.24933970865E+03  0.26606625898E+03  0.75542798232E+02 0.  0.
          5    1    3    3  501    0  0.56023413943E+02  0.49496393994E+01 -0.39908640875E+02  0.69122438155E+02  0.47000000000E+01 0. -1.
        -11    1    4    4    0    0 -0.19779111819E+01  0.11860492633E+02  0.28723781263E+02  0.31139027413E+02  0.00000000000E+00 0.  1.
         12    1    4    4    0    0 -0.62410427852E+02 -0.32917483317E+02 -0.20629753112E+02  0.73513324820E+02  0.00000000000E+00 0. -1.
         -5    1    5    5    0  502 -0.26763224614E+02 -0.24883654919E+02 -0.11823279006E+01  0.36863998334E+02  0.47000000000E+01 0.  1.
         11    1    6    6    0    0  0.53407435978E+02  0.37091728383E+02  0.13089849111E+03  0.14615938392E+03  0.00000000000E+00 0. -1.
        -12    1    6    6    0    0 -0.18279286272E+02  0.38992778206E+01  0.11844121754E+03  0.11990687506E+03  0.00000000000E+00 0.  1.
</event>
<event>
12    1  0.8421768E-002  0.1981551E+03  0.7818608E-02  0.1151558E+00
         21   -1    0    0  501  502  0.00000000000E+00  0.00000000000E+00  0.28671141440E+03  0.28671141440E+03  0.00000000000E+00 0. -1.
         21   -1    0    0  502  503 -0.00000000000E+00 -0.00000000000E+00 -0.19448157872E+03  0.19448157872E+03  0.00000000000E+00 0. -1.
         -6    2    1    2    0  503 -0.77040086951E+02 -0.59213818477E+02 -0.85762945346E+02  0.21483446624E+03  0.17133917764E+03 0.  0.
        -24    2    3    3    0    0 -0.23570621209E+02 -0.10310021672E+02  0.20669091665E+02  0.85991796245E+02  0.79407222216E+02 0.  0.
          6    2    1    2  501    0  0.77040086951E+02  0.59213818477E+02  0.17799278103E+03  0.26635852688E+03  0.17269621723E+03 0.  0.
         24    2    5    5    0    0  0.29331789099E+02  0.76795340312E+02  0.47368618008E+02  0.12610891526E+03  0.83077038891E+02 0.  0.
          5    1    5    5  501    0  0.47708297853E+02 -0.17581521835E+02  0.13062416303E+03  0.14024961162E+03  0.47000000000E+01 0. -1.
        -11    1    6    6    0    0 -0.97117251694E+01 -0.13463596175E+02 -0.76740586698E+00  0.16618511952E+02  0.00000000000E+00 0.  1.
         12    1    6    6    0    0  0.39043514268E+02  0.90258936487E+02  0.48136023875E+02  0.10949040331E+03  0.00000000000E+00 0. -1.
         -5    1    3    3    0  503 -0.53469465742E+02 -0.48903796805E+02 -0.10643203701E+03  0.12884266999E+03  0.47000000000E+01 0.  1.
         13    1    4    4    0    0 -0.10587236090E+02 -0.59747525719E+01 -0.30600271446E+02  0.32926643450E+02  0.00000000000E+00 0. -1.
        -14    1    4    4    0    0 -0.12983385119E+02 -0.43352690999E+01  0.51269363111E+02  0.53065152795E+02  0.00000000000E+00 0.  1.
</event>
<event>
12    1  0.8421768E-002  0.2121727E+03  0.7818608E-02  0.1140015E+00
         21   -1    0    0  501  502  0.00000000000E+00  0.00000000000E+00  0.18173157649E+03  0.18173157649E+03  0.00000000000E+00 0. -1.
         21   -1    0    0  502  503 -0.00000000000E+00 -0.00000000000E+00 -0.45520814024E+03  0.45520814024E+03  0.00000000000E+00 0. -1.
         -6    2    1    2    0  503  0.99767891331E+02 -0.71237205078E+02 -0.35238124497E+03  0.41132686606E+03  0.17317296961E+03 0.  0.
        -24    2    3    3    0    0  0.13485381184E+03 -0.79850816982E+02 -0.29934861173E+03  0.34698585024E+03  0.78916952430E+02 0.  0.
          6    2    1    2  501    0 -0.99767891331E+02  0.71237205078E+02  0.78904681227E+02  0.22561285067E+03  0.17218257212E+03 0.  0.
         24    2    5    5    0    0 -0.76522157237E+02 -0.53570452285E+01 -0.73276129163E+01  0.10786251357E+03  0.75473766577E+02 0.  0.
          5    1    5    5  501    0 -0.23245734093E+02  0.76594250307E+02  0.86232294144E+02  0.11775033710E+03  0.47000000000E+01 0. -1.
        -13    1    6    6    0    0 -0.25995995156E+02  0.28602374470E+02 -0.23030182209E+02  0.44991964639E+02  0.00000000000E+00 0.  1.
         14    1    6    6    0    0 -0.50526162081E+02 -0.33959419698E+02  0.15702569293E+02  0.62870548934E+02  0.00000000000E+00 0. -1.
         -5    1    3    3    0  503 -0.35085920506E+02  0.86136119041E+01 -0.53032633247E+02  0.64341015821E+02  0.47000000000E+01 0.  1.
         13    1    4    4    0    0  0.10445872394E+02  0.14841667947E+02 -0.43701111494E+02  0.47319958826E+02  0.00000000000E+00 0. -1.
        -14    1    4    4    0    0  0.12440793944E+03 -0.94692484929E+02 -0.25564750023E+03  0.29966589141E+03  0.00000000000E+00 0.  1.
</event>
<event>
12    1  0.8421768E-002  0.3367409E+03  0.7818608E-02  0.1068219E+00
         21   -1    0    0  501  502  0.00000000000E+00  0.00000000000E+00  0.35171083872E+03  0.35171083872E+03  0.00000000000E+00 0. -1.
         21   -1    0    0  502  503 -0.00000000000E+00 -0.00000000000E+00 -0.49236084332E+03  0.49236084332E+03  0.00000000000E+00 0.  1.
         -6    2    1    2    0  503  0.26158995510E+03 -0.12484533476E+03 -0.31846907480E+03  0.46348354235E+03  0.17140239263E+03 0.  0.
        -24    2    3    3    0    0  0.17190991270E+03 -0.20446071515E+02 -0.13422746498E+03  0.23346446278E+03  0.80731549628E+02 0.  0.
          6    2    1    2  501    0 -0.26158995510E+03  0.12484533476E+03  0.17781907020E+03  0.38058813969E+03  0.17091532444E+03 0.  0.
         24    2    5    5    0    0 -0.19300928873E+03  0.12098755620E+03  0.19446559771E+03  0.30975462267E+03  0.78996729566E+02 0.  0.
          5    1    5    5  501    0 -0.68580666373E+02  0.38577785688E+01 -0.16646527516E+02  0.70833517024E+02  0.47000000000E+01 0. -1.
        -11    1    6    6    0    0 -0.13868843296E+03  0.69637425305E+02  0.84257059508E+02  0.17658738493E+03  0.00000000000E+00 0.  1.
         12    1    6    6    0    0 -0.54320855770E+02  0.51350130890E+02  0.11020853821E+03  0.13316723774E+03  0.00000000000E+00 0. -1.
         -5    1    3    3    0  503  0.89680042402E+02 -0.10439926325E+03 -0.18424160982E+03  0.23001907956E+03  0.47000000000E+01 0.  1.
         11    1    4    4    0    0  0.86032284777E+02 -0.50462080371E+02 -0.63566220201E+02  0.11827358086E+03  0.00000000000E+00 0. -1.
        -12    1    4    4    0    0  0.85877627920E+02  0.30016008856E+02 -0.70661244775E+02  0.11519088192E+03  0.00000000000E+00 0.  1.
</event>
<event>
12    1  0.8421768E-002  0.2201953E+03  0.7818608E-02  0.1133800E+00
         21   -1    0    0  503  502  0.00000000000E+00  0.00000000000E+00  0.94525535253E+02  0.94525535253E+02  0.00000000000E+00 0. -1.
         21   -1    0    0  501  503 -0.00000000000E+00 -0.00000000000E+00 -0.15589544438E+04  0.15589544438E+04  0.00000000000E+00 0. -1.
          6    2    1    2  501    0 -0.69390107026E+02  0.11979590105E+03 -0.14094903219E+04  0.14265345974E+04  0.17079796605E+03 0.  0.
         24    2    3    3    0    0 -0.11243538555E+03  0.10505787548E+03 -0.10707817483E+04  0.10847514890E+04  0.80208273561E+02 0.  0.
         -6    2    1    2    0  502  0.69390107026E+02 -0.11979590105E+03 -0.54938586561E+02  0.22694538156E+03  0.17123058447E+03 0.  0.
        -24    2    5    5    0    0  0.11336161421E+01 -0.12762977857E+03 -0.44774009506E+02  0.15733412664E+03  0.80365851059E+02 0.  0.
          5    1    3    3  501    0  0.43045278524E+02  0.14738025569E+02 -0.33870857361E+03  0.34178310847E+03  0.47000000000E+01 0. -1.
        -13    1    4    4    0    0 -0.22747833899E+02  0.24049800068E+02 -0.79316455071E+02  0.85947407613E+02  0.00000000000E+00 0.  1.
         14    1    4    4    0    0 -0.89687551650E+02  0.81008075410E+02 -0.99146529326E+03  0.99880408136E+03  0.00000000000E+00 0. -1.
         -5    1    5    5    0  502  0.68256490884E+02  0.78338775197E+01 -0.10164577055E+02  0.69611254919E+02  0.47000000000E+01 0.  1.
         13    1    6    6    0    0  0.36671328085E+01  0.40230860418E+01  0.12580776101E+02  0.13707990795E+02  0.00000000000E+00 0. -1.
        -14    1    6    6    0    0 -0.25335166665E+01 -0.13165286461E+03 -0.57354785607E+02  0.14362613585E+03  0.00000000000E+00 0.  1.
</event>
<event>
12    1  0.8421768E-002  0.1793116E+03  0.7818608E-02  0.1169601E+00
         21   -1    0    0  501  502  0.00000000000E+00  0.00000000000E+00  0.22295912974E+03  0.22295912974E+03  0.00000000000E+00 0.  1.
         21   -1    0    0  502  503 -0.00000000000E+00 -0.00000000000E+00 -0.14055202552E+03  0.14055202552E+03  0.00000000000E+00 0.  1.
         -6    2    1    2    0  503 -0.22309000127E+02  0.47087287219E+02  0.40473910123E+02  0.18382274309E+03  0.17157435523E+03 0.  0.
        -24    2    3    3    0    0 -0.17780416397E+02 -0.19988825177E+02 -0.27616463196E+02  0.88020332562E+02  0.79178365515E+02 0.  0.
          6    2    1    2  501    0  0.22309000127E+02 -0.47087287219E+02  0.41933194098E+02  0.17968841216E+03  0.16677718248E+03 0.  0.
         24    2    5    5    0    0  0.70289013511E+02 -0.47251995596E+02  0.54999986821E+02  0.12973903894E+03  0.81448899118E+02 0.  0.
          5    1    5    5  501    0 -0.47980013384E+02  0.16470837669E+00 -0.13066792722E+02  0.49949373221E+02  0.47000000000E+01 0. -1.
        -11    1    6    6    0    0  0.26172984672E+02 -0.53819215690E+01  0.62962593843E+02  0.68397941707E+02  0.00000000000E+00 0.  1.
         12    1    6    6    0    0  0.44116028839E+02 -0.41870074027E+02 -0.79626070220E+01  0.61341097236E+02  0.00000000000E+00 0. -1.
         -5    1    3    3    0  503 -0.45285837297E+01  0.67076112397E+02  0.68090373319E+02  0.95802410531E+02  0.47000000000E+01 0.  1.
         11    1    4    4    0    0 -0.45006609206E+01 -0.50274487055E+02 -0.15510397064E+02  0.52804852186E+02  0.00000000000E+00 0. -1.
        -12    1    4    4    0    0 -0.13279755477E+02  0.30285661877E+02 -0.12106066133E+02  0.35215480376E+02  0.00000000000E+00 0.  1.
</event>
<event>
12    1  0.8421768E-002  0.3150425E+03  0.7818608E-02  0.1079233E+00
         21   -1    0    0  501  502  0.00000000000E+00  0.00000000000E+00  0.12174208624E+04  0.12174208624E+04  0.00000000000E+00 0. -1.
         21   -1    0    0  502  503 -0.00000000000E+00 -0.00000000000E+00 -0.85541309420E+02  0.85541309420E+02  0.00000000000E+00 0. -1.
         -6    2    1    2    0  503 -0.10013867706E+03 -0.22998436572E+03  0.39183305648E+03  0.50277723795E+03  0.19060756473E+03 0.  0.
        -24    2    3    3    0    0 -0.73708440103E+02 -0.23698214268E+03  0.39648444662E+03  0.47464804070E+03  0.80606302716E+02 0.  0.
          6    2    1    2  501    0  0.10013867706E+03  0.22998436572E+03  0.74004649654E+03  0.80018493391E+03  0.17235587688E+03 0.  0.
         24    2    5    5    0    0  0.78493468651E+02  0.10277055958E+03  0.54800481871E+03  0.56876764081E+03  0.80401090615E+02 0.  0.
          5    1    5    5  501    0  0.21645208410E+02  0.12721380614E+03  0.19204167783E+03  0.23141729310E+03  0.47000000000E+01 0. -1.
        -11    1    6    6    0    0  0.25733665760E+01 -0.88042272389E+00 -0.23624694214E+01  0.36025853875E+01  0.00000000000E+00 0.  1.
         12    1    6    6    0    0  0.75920102075E+02  0.10365098230E+03  0.55036728813E+03  0.56516505543E+03  0.00000000000E+00 0. -1.
         -5    1    3    3    0  503 -0.26430236959E+02  0.69977769606E+01 -0.46513901328E+01  0.28129197256E+02  0.47000000000E+01 0.  1.
         13    1    4    4    0    0  0.24628540310E+01 -0.12551267635E+03  0.17799395665E+03  0.21781034451E+03  0.00000000000E+00 0. -1.
        -14    1    4    4    0    0 -0.76171294134E+02 -0.11146946633E+03  0.21849048997E+03  0.25683769618E+03  0.00000000000E+00 0.  1.
</event>
<event>
12    1  0.8421768E-002  0.3761627E+03  0.7818608E-02  0.1052393E+00
         21   -1    0    0  503  502  0.00000000000E+00  0.00000000000E+00  0.67168093162E+03  0.67168093162E+03  0.00000000000E+00 0.  1.
         21   -1    0    0  501  503 -0.00000000000E+00 -0.00000000000E+00 -0.21723863495E+03  0.21723863495E+03  0.00000000000E+00 0. -1.
          6    2    1    2  501    0 -0.33094733413E+03 -0.50419194128E+02  0.14887225734E+03  0.40455074828E+03  0.17155210819E+03 0.  0.
         24    2    3    3    0    0 -0.18031772791E+03 -0.38959849725E+01  0.14823580434E+03  0.24682889713E+03  0.80131074310E+02 0.  0.
         -6    2    1    2    0  502  0.33094733413E+03  0.50419194128E+02  0.30557003933E+03  0.48436881829E+03  0.17079774615E+03 0.  0.
        -24    2    5    5    0    0  0.15483476839E+03  0.34133131656E+02  0.65676603633E+02  0.18628859061E+03  0.72464795232E+02 0.  0.
          5    1    3    3  501    0 -0.15062960622E+03 -0.46523209156E+02  0.63645300521E+00  0.15772185115E+03  0.47000000000E+01 0. -1.
        -11    1    4    4    0    0 -0.18529703548E+03  0.44704240584E+01  0.14783120928E+03  0.23708446276E+03  0.00000000000E+00 0.  1.
         12    1    4    4    0    0  0.49793075634E+01 -0.83664090310E+01  0.40459506130E+00  0.97444343626E+01  0.00000000000E+00 0. -1.
         -5    1    5    5    0  502  0.17611256574E+03  0.16286062473E+02  0.23989343570E+03  0.29808022768E+03  0.47000000000E+01 0.  1.
         11    1    6    6    0    0  0.15576790641E+03  0.16498891307E+02  0.57985047156E+02  0.16702730249E+03  0.00000000000E+00 0. -1.
        -12    1    6    6    0    0 -0.93313801963E+00  0.17634240349E+02  0.76915564764E+01  0.19261288126E+02  0.00000000000E+00 0.  1.
</event>
<event>
12    1  0.8421768E-002  0.2576097E+03  0.7818608E-02  0.1108751E+00
         21   -1    0    0  503  502  0.00000000000E+00  0.00000000000E+00  0.98581821085E+03  0.98581821085E+03  0.00000000000E+00 0.  1.
         21   -1    0    0  501  503 -0.00000000000E+00 -0.00000000000E+00 -0.78337364851E+02  0.78337364851E+02  0.00000000000E+00 0. -1.
          6    2    1    2  501    0  0.18247963806E+03 -0.50277871047E+02  0.25085827601E+03  0.35880748260E+03  0.17316539002E+03 0.  0.
         24    2    3    3    0    0  0.17250762964E+03 -0.58612434915E+02  0.13156851258E+03  0.23871983308E+03  0.80514504254E+02 0.  0.
         -6    2    1    2    0  502 -0.18247963806E+03  0.50277871047E+02  0.65662256999E+03  0.70534809310E+03  0.17474567348E+03 0.  0.
        -24    2    5    5    0    0 -0.19992943458E+03  0.57729428861E+02  0.49913129299E+03  0.54664833430E+03  0.79924264055E+02 0.  0.
          5    1    3    3  501    0  0.99720084268E+01  0.83345638675E+01  0.11928976343E+03  0.12008764952E+03  0.47000000000E+01 0. -1.
        -13    1    4    4    0    0  0.33270390592E+02 -0.48907476576E+02  0.46737533032E+02  0.75387380569E+02  0.00000000000E+00 0.  1.
         14    1    4    4    0    0  0.13923723904E+03 -0.97049583388E+01  0.84830979543E+02  0.16333245251E+03  0.00000000000E+00 0. -1.
         -5    1    5    5    0  502  0.17449796517E+02 -0.74515578140E+01  0.15749127700E+03  0.15869975880E+03  0.47000000000E+01 0.  1.
         13    1    6    6    0    0 -0.18398663963E+03  0.50857407336E+02  0.36983430427E+03  0.41619102832E+03  0.00000000000E+00 0. -1.
        -14    1    6    6    0    0 -0.15942794952E+02  0.68720215250E+01  0.12929698872E+03  0.13045730598E+03  0.00000000000E+00 0.  1.
</event>
<event>
12    1  0.8421768E-002  0.1970123E+03  0.7818608E-02  0.1152485E+00
         21   -1    0    0  501  502  0.00000000000E+00  0.00000000000E+00  0.12854178351E+03  0.12854178351E+03  0.00000000000E+00 0. -1.
         21   -1    0    0  502  503 -0.00000000000E+00 -0.00000000000E+00 -0.36399574510E+03  0.36399574510E+03  0.00000000000E+00 0. -1.
         -6    2    1    2    0  503  0.12140499737E+02  0.96302505209E+02 -0.22078718169E+03  0.29590681170E+03  0.17144181919E+03 0.  0.
        -24    2    3    3    0    0 -0.42832322293E+02  0.53597094061E+02 -0.61496719375E+02  0.12200653945E+03  0.79978077312E+02 0.  0.
          6    2    1    2  501    0 -0.12140499737E+02 -0.96302505209E+02 -0.14666779890E+02  0.19663071690E+03  0.17037300301E+03 0.  0.
         24    2    5    5    0    0 -0.58414583156E+02 -0.32648915808E+02  0.23453790762E+02  0.10906166902E+03  0.82862247859E+02 0.  0.
          5    1    5    5  501    0  0.46274083419E+02 -0.63653589401E+02 -0.38120570653E+02  0.87569047881E+02  0.47000000000E+01 0. -1.
        -11    1    6    6    0    0 -0.41137352162E+02  0.10687963059E+02  0.41154684327E+02  0.59162676911E+02  0.00000000000E+00 0.  1.
         12    1    6    6    0    0 -0.17277230995E+02 -0.43336878867E+02 -0.17700893565E+02  0.49898992112E+02  0.00000000000E+00 0. -1.
         -5    1    3    3    0  503  0.54972822030E+02  0.42705411148E+02 -0.15929046232E+03  0.17390027225E+03  0.47000000000E+01 0.  1.
         11    1    4    4    0    0 -0.35603173100E+02  0.40067235717E+02 -0.81039931826E+02  0.97161925996E+02  0.00000000000E+00 0. -1.
        -12    1    4    4    0    0 -0.72291491927E+01  0.13529858343E+02  0.19543212452E+02  0.24844613456E+02  0.00000000000E+00 0.  1.
</event>
<event>
12    1  0.8421768E-002  0.2445223E+03  0.7818608E-02  0.1117088E+00
         21   -1    0    0  501  502  0.00000000000E+00  0.00000000000E+00  0.49091017578E+02  0.49091017578E+02  0.00000000000E+00 0. -1.
         21   -1    0    0  502  503 -0.00000000000E+00 -0.00000000000E+00 -0.13492570821E+04  0.13492570821E+04  0.00000000000E+00 0.  1.
         -6    2    1    2    0  503  0.15515561398E+03 -0.70953200076E+02 -0.87296605519E+03  0.90611743504E+03  0.17283359455E+03 0.  0.
        -24    2    3    3    0    0  0.15780097576E+03 -0.37670945138E+02 -0.84236706013E+03  0.86058618279E+03  0.68600772214E+02 0.  0.
          6    2    1    2  501    0 -0.15515561398E+03  0.70953200076E+02 -0.42720000931E+03  0.49223066462E+03  0.17516722893E+03 0.  0.
         24    2    5    5    0    0 -0.11550688319E+03  0.11753194156E+03 -0.32333065582E+03  0.37159678213E+03  0.79911564509E+02 0.  0.
          5    1    5    5  501    0 -0.39648730785E+02 -0.46578741486E+02 -0.10386935349E+03  0.12063388250E+03  0.47000000000E+01 0. -1.
        -11    1    6    6    0    0 -0.87475405282E+02  0.51350329790E+02 -0.24564104314E+03  0.26575990099E+03  0.00000000000E+00 0.  1.
         12    1    6    6    0    0 -0.28031477913E+02  0.66181611773E+02 -0.77689612676E+02  0.10583688114E+03  0.00000000000E+00 0. -1.
         -5    1    3    3    0  503 -0.26453617816E+01 -0.33282254938E+02 -0.30598995063E+02  0.45531252252E+02  0.47000000000E+01 0.  1.
         13    1    4    4    0    0  0.23590872111E+02  0.99965276652E+01 -0.25126530782E+03  0.25256823776E+03  0.00000000000E+00 0. -1.
        -14    1    4    4    0    0  0.13421010365E+03 -0.47667472803E+02 -0.59110175231E+03  0.60801794502E+03  0.00000000000E+00 0.  1.
</event>
<event>
12    1  0.8421768E-002  0.1918126E+03  0.7818608E-02  0.1157009E+00
         21   -1    0    0  501  502  0.00000000000E+00  0.00000000000E+00  0.80469463339E+02  0.80469463339E+02  0.00000000000E+00 0.  1.
         21   -1    0    0  502  503 -0.00000000000E+00 -0.00000000000E+00 -0.52128925229E+03  0.52128925229E+03  0.00000000000E+00 0.  1.
         -6    2    1    2    0  503 -0.37813419674E+02 -0.75641570940E+02 -0.32778800378E+03  0.37978551274E+03  0.17216433516E+03 0.  0.
        -24    2    3    3    0    0 -0.17189035050E+02  0.22628646970E+02 -0.17940611851E+03  0.20056030568E+03  0.85031536889E+02 0.  0.
          6    2    1    2  501    0  0.37813419674E+02  0.75641570940E+02 -0.11303178517E+03  0.22197320289E+03  0.17130212019E+03 0.  0.
         24    2    5    5    0    0  0.77714682404E+02  0.51261211360E+02 -0.28013743326E+02  0.12483067801E+03  0.78298433616E+02 0.  0.
          5    1    5    5  501    0 -0.39901262730E+02  0.24380359580E+02 -0.85018041846E+02  0.97142524880E+02  0.47000000000E+01 0. -1.
        -11    1    6    6    0    0  0.55401769112E+02  0.71641726811E+02 -0.14463016032E+02  0.91711896033E+02  0.00000000000E+00 0.  1.
         12    1    6    6    0    0  0.22312913292E+02 -0.20380515451E+02 -0.13550727295E+02  0.33118781980E+02  0.00000000000E+00 0. -1.
         -5    1    3    3    0  503 -0.20624384624E+02 -0.98270217909E+02 -0.14838188527E+03  0.17922520706E+03  0.47000000000E+01 0.  1.
         11    1    4    4    0    0 -0.44968547076E+02  0.28930974852E+02 -0.15159846350E+03  0.16075218713E+03  0.00000000000E+00 0. -1.
        -12    1    4    4    0    0  0.27779512025E+02 -0.63023278827E+01 -0.27807655007E+02  0.39808118545E+02  0.00000000000E+00 0.  1.
</event>
<event>
12    1  0.8421768E-002  0.3010011E+03  0.7818608E-02  0.1085599E+00
         21   -1    0    0  501  502  0.00000000000E+00  0.00000000000E+00  0.75164544990E+02  0.75164544990E+02  0.00000000000E+00 0.  1.
         21   -1    0    0  502  503 -0.00000000000E+00 -0.00000000000E+00 -0.11886396311E+04  0.11886396311E+04  0.00000000000E+00 0. -1.
         -6    2    1    2    0  503  0.22448695417E+02  0.23737171396E+03 -0.50398593047E+03  0.58702934609E+03  0.18371815518E+03 0.  0.
        -24    2    3    3    0    0  0.27567730247E+02  0.25660846116E+02 -0.17584076914E+03  0.19645408703E+03  0.79093447553E+02 0.  0.
          6    2    1    2  501    0 -0.22448695417E+02 -0.23737171396E+03 -0.60948915568E+03  0.67677483005E+03  0.17233068553E+03 0.  0.
         24    2    5    5    0    0  0.56504064631E+01 -0.13877157554E+03 -0.20768606300E+03  0.26207088491E+03  0.79108600548E+02 0.  0.
          5    1    5    5  501    0 -0.28099101880E+02 -0.98600138415E+02 -0.40180309268E+03  0.41470394514E+03  0.47000000000E+01 0. -1.
        -13    1    6    6    0    0  0.24162949146E+02 -0.15310123603E+02 -0.73104589416E+02  0.78501776985E+02  0.00000000000E+00 0.  1.
         14    1    6    6    0    0 -0.18512542683E+02 -0.12346145194E+03 -0.13458147358E+03  0.18356910792E+03  0.00000000000E+00 0. -1.
         -5    1    3    3    0  503 -0.51190348293E+01  0.21171086784E+03 -0.32814516133E+03  0.39057525905E+03  0.47000000000E+01 0.  1.
         11    1    4    4    0    0  0.54716333722E+02  0.88519450391E+01 -0.10437887857E+03  0.11818284308E+03  0.00000000000E+00 0. -1.
        -12    1    4    4    0    0 -0.27148603475E+02  0.16808901077E+02 -0.71461890572E+02  0.78271243955E+02  0.00000000000E+00 0.  1.
</event>
<event>
12    1  0.8421768E-002  0.1906439E+03  0.7818608E-02  0.1160023E+00
         21   -1    0    0  503  502  0.00000000000E+00  0.00000000000E+00  0.26087034154E+03  0.26087034154E+03  0.00000000000E+00 0.  1.
         21   -1    0    0  501  503 -0.00000000000E+00 -0.00000000000E+00 -0.24885030194E+03  0.24885030194E+03  0.00000000000E+00 0. -1.
          6    2    1    2  501    0  0.32053974832E+02  0.74686852489E+02 -0.16806051972E+03  0.25414449182E+03  0.17245144591E+03 0.  0.
         24    2    3    3    0    0 -0.46831947059E+02  0.59483753517E+02 -0.91249432416E+02  0.14289631869E+03  0.79758076594E+02 0.  0.
         -6    2    1    2    0  502 -0.32053974832E+02 -0.74686852489E+02  0.18008055932E+03  0.25557615166E+03  0.16212519303E+03 0.  0.
        -24    2    5    5    0    0  0.18736702787E+02 -0.95344725295E+02  0.13778752833E+03  0.18616987592E+03  0.78943898206E+02 0.  0.
          5    1    3    3  501    0  0.78885921891E+02  0.15203098972E+02 -0.76811087307E+02  0.11124817313E+03  0.47000000000E+01 0. -1.
        -11    1    4    4    0    0 -0.29945216219E+02 -0.12560498964E+01 -0.70367365801E+02  0.76484376218E+02  0.00000000000E+00 0.  1.
         12    1    4    4    0    0 -0.16886730840E+02  0.60739803413E+02 -0.20882066615E+02  0.66411942474E+02  0.00000000000E+00 0. -1.
         -5    1    5    5    0  502 -0.50790677619E+02  0.20657872806E+02  0.42293030998E+02  0.69406275746E+02  0.47000000000E+01 0.  1.
         11    1    6    6    0    0 -0.26489001369E+02 -0.96252776372E+01  0.28097763473E+02  0.39796953091E+02  0.00000000000E+00 0. -1.
        -12    1    6    6    0    0  0.45225704157E+02 -0.85719447657E+02  0.10968976485E+03  0.14637292283E+03  0.00000000000E+00 0.  1.
</event>
<event>
12    1  0.8421768E-002  0.1740543E+03  0.7818608E-02  0.1174083E+00
         21   -1    0    0  501  502  0.00000000000E+00  0.00000000000E+00  0.61150558248E+02  0.61150558248E+02  0.00000000000E+00 0.  1.
         21   -1    0    0  502  503 -0.00000000000E+00 -0.00000000000E+00 -0.10291193989E+04  0.10291193989E+04  0.00000000000E+00 0.  1.
         -6    2    1    2    0  503 -0.53792047985E+01 -0.19511681918E+02 -0.87714639322E+03  0.89394466766E+03  0.17129399325E+03 0.  0.
        -24    2    3    3    0    0 -0.53626332295E+02 -0.24857249768E+02 -0.76957866221E+03  0.77583765194E+03  0.78607114563E+02 0.  0.
          6    2    1    2  501    0  0.53792047985E+01  0.19511681918E+02 -0.90822447401E+02  0.19632528946E+03  0.17287353977E+03 0.  0.
         24    2    5    5    0    0 -0.25604709376E+02  0.67879478247E+02 -0.87760246646E+02  0.13861122070E+03  0.79044195879E+02 0.  0.
          5    1    5    5  501    0  0.30983914174E+02 -0.48367796329E+02 -0.30622007542E+01  0.57714068759E+02  0.47000000000E+01 0. -1.
        -13    1    6    6    0    0 -0.18197432002E+02  0.22102609409E+02  0.10068162144E+02  0.30348636923E+02  0.00000000000E+00 0.  1.
         14    1    6    6    0    0 -0.74072773739E+01  0.45776868838E+02 -0.97828408790E+02  0.10826258377E+03  0.00000000000E+00 0. -1.
         -5    1    3    3    0  503  0.48247127497E+02  0.53455678496E+01 -0.10756773101E+03  0.11810701572E+03  0.47000000000E+01 0.  1.
         13    1    4    4    0    0  0.44702139723E+00  0.11408714560E+01  0.17734613491E+01  0.21555929498E+01  0.00000000000E+00 0. -1.
        -14    1    4    4    0    0 -0.54073353692E+02 -0.25998121224E+02 -0.77135212356E+03  0.77368205899E+03  0.00000000000E+00 0.  1.
</event>
<event>
12    1  0.8421768E-002  0.2565459E+03  0.7818608E-02  0.1109340E+00
         21   -1    0    0  501  502  0.00000000000E+00  0.00000000000E+00  0.57761817019E+03  0.57761817019E+03  0.00000000000E+00 0. -1.
         21   -1    0    0  502  503 -0.00000000000E+00 -0.00000000000E+00 -0.11654008639E+03  0.11654008639E+03  0.00000000000E+00 0.  1.
         -6    2    1    2    0  503 -0.18931581056E+03  0.20776991840E+02  0.28496194649E+03  0.38297869806E+03  0.17087191900E+03 0.  0.
        -24    2    3    3    0    0 -0.15377564829E+03 -0.44699913084E+02  0.17691902494E+03  0.25165584739E+03  0.79908021513E+02 0.  0.
          6    2    1    2  501    0  0.18931581056E+03 -0.20776991840E+02  0.17611613731E+03  0.31117955852E+03  0.17188270507E+03 0.  0.
         24    2    5    5    0    0  0.19875897795E+03 -0.44150584858E+02  0.12089562034E+03  0.25029529327E+03  0.81102264819E+02 0.  0.
          5    1    5    5  501    0 -0.94431673842E+01  0.23373593018E+02  0.55220516973E+02  0.60884265255E+02  0.47000000000E+01 0. -1.
        -13    1    6    6    0    0  0.88819597695E+01  0.17402724385E+02  0.98506615211E+01  0.21881031918E+02  0.00000000000E+00 0.  1.
         14    1    6    6    0    0  0.18987701818E+03 -0.61553309244E+02  0.11104495882E+03  0.22841426135E+03  0.00000000000E+00 0. -1.
         -5    1    3    3    0  503 -0.35540162277E+02  0.65476904924E+02  0.10804292155E+03  0.13132285068E+03  0.47000000000E+01 0.  1.
         11    1    4    4    0    0 -0.61498194783E+02  0.13415275200E+02  0.32950735644E+02  0.71047509102E+02  0.00000000000E+00 0. -1.
        -12    1    4    4    0    0 -0.92277453503E+02 -0.58115188284E+02  0.14396828930E+03  0.18060833828E+03  0.00000000000E+00 0.  1.
</event>
<event>
12    1  0.8421768E-002  0.2310927E+03  0.7818608E-02  0.1126357E+00
         21   -1    0    0  503  502  0.00000000000E+00  0.00000000000E+00  0.50444104788E+03  0.50444104788E+03  0.00000000000E+00 0.  1.
         21   -1    0    0  501  503 -0.00000000000E+00 -0.00000000000E+00 -0.15082613819E+03  0.15082613819E+03  0.00000000000E+00 0. -1.
          6    2    1    2  501    0  0.81393049233E+01 -0.15411475787E+03 -0.52868581683E+01  0.22840148190E+03  0.16829046077E+03 0.  0.
         24    2    3    3    0    0  0.18364964555E+02 -0.13286987361E+02 -0.13264730645E+02  0.86899674455E+02  0.82835888267E+02 0.  0.
         -6    2    1    2    0  502 -0.81393049233E+01  0.15411475787E+03  0.35890176786E+03  0.42686570418E+03  0.17200652184E+03 0.  0.
        -24    2    5    5    0    0  0.42353806579E+02  0.15520469244E+03  0.29070818586E+03  0.34187631136E+03  0.80534597856E+02 0.  0.
          5    1    3    3  501    0 -0.10225659632E+02 -0.14082777051E+03  0.79778724772E+01  0.14150180744E+03  0.47000000000E+01 0. -1.
        -13    1    4    4    0    0  0.32095074080E+02  0.27838005457E+02 -0.78746324327E+01  0.43209468452E+02  0.00000000000E+00 0.  1.
         14    1    4    4    0    0 -0.13730109525E+02 -0.41124992818E+02 -0.53900982127E+01  0.43690206002E+02  0.00000000000E+00 0. -1.
         -5    1    5    5    0  502 -0.50493111502E+02 -0.10899345781E+01  0.68193581996E+02  0.84989392821E+02  0.47000000000E+01 0.  1.
         11    1    6    6    0    0  0.54166511415E+01 -0.65574382275E+01  0.42316488651E+02  0.43162776989E+02  0.00000000000E+00 0. -1.
        -12    1    6    6    0    0  0.36937155437E+02  0.16176213067E+03  0.24839169721E+03  0.29871353437E+03  0.00000000000E+00 0.  1.
</event>
<event>
12    1  0.8421768E-002  0.2073279E+03  0.7818608E-02  0.1143994E+00
         21   -1    0    0  503  502  0.00000000000E+00  0.00000000000E+00  0.66134779432E+03  0.66134779432E+03  0.00000000000E+00 0. -1.
         21   -1    0    0  501  503 -0.00000000000E+00 -0.00000000000E+00 -0.81464918726E+02  0.81464918726E+02  0.00000000000E+00 0. -1.
          6    2    1    2  501    0  0.49901684308E+02  0.10232903126E+03  0.46004420188E+03  0.50460432450E+03  0.17327275576E+03 0.  0.
         24    2    3    3    0    0  0.11650082297E+02  0.12948504069E+03  0.40130096139E+03  0.42928173687E+03  0.79613113359E+02 0.  0.
         -6    2    1    2    0  502 -0.49901684308E+02 -0.10232903126E+03  0.11983867372E+03  0.23820838855E+03  0.17152410886E+03 0.  0.
        -24    2    5    5    0    0 -0.70936218148E+02 -0.13140801802E+03  0.81913180095E+02  0.18578251563E+03  0.74198111801E+02 0.  0.
          5    1    3    3  501    0  0.38251602010E+02 -0.27156009424E+02  0.58743240485E+02  0.75322587627E+02  0.47000000000E+01 0. -1.
        -11    1    4    4    0    0  0.49142308950E+01 -0.75860894462E+01  0.60326401537E+01  0.10866975918E+02  0.00000000000E+00 0.  1.
         12    1    4    4    0    0  0.67358514023E+01  0.13707113013E+03  0.39526832124E+03  0.41841476095E+03  0.00000000000E+00 0. -1.
         -5    1    5    5    0  502  0.21034533840E+02  0.29078986758E+02  0.37925493622E+02  0.52425872918E+02  0.47000000000E+01 0.  1.
         11    1    6    6    0    0 -0.64636444625E+02 -0.48507561085E+02  0.57333451007E+02  0.99085710678E+02  0.00000000000E+00 0. -1.
        -12    1    6    6    0    0 -0.62997735221E+01 -0.82900456935E+02  0.24579729088E+02  0.86696804950E+02  0.00000000000E+00 0.  1.
</event>
<event>
12    1  0.8421768E-002  0.1786835E+03  0.7818608E-02  0.1169962E+00
         21   -1    0    0  503  502  0.00000000000E+00  0.00000000000E+00  0.22298666375E+03  0.22298666375E+03  0.00000000000E+00 0. -1.
         21   -1    0    0  501  503 -0.00000000000E+00 -0.00000000000E+00 -0.14034585913E+03  0.14034585913E+03  0.00000000000E+00 0. -1.
          6    2    1    2  501    0  0.28089350615E+02  0.18673600945E+02  0.41531608714E+02  0.18344667498E+03  0.17547106043E+03 0.  0.
         24    2    3    3    0    0  0.44510882424E+02 -0.45623297307E+02  0.54165462671E+02  0.11573063480E+03  0.79981113852E+02 0.  0.
         -6    2    1    2    0  502 -0.28089350615E+02 -0.18673600945E+02  0.41109195909E+02  0.17988584791E+03  0.17184655160E+03 0.  0.
        -24    2    5    5    0    0 -0.54068884025E+02 -0.50794391221E+01  0.83594618534E+02  0.12805112472E+03  0.80372790008E+02 0.  0.
          5    1    3    3  501    0 -0.16421531810E+02  0.64296898252E+02 -0.12633853957E+02  0.67716040180E+02  0.47000000000E+01 0. -1.
        -13    1    4    4    0    0  0.22871392444E+02 -0.16452076293E+02 -0.19043887331E+02  0.34006485430E+02  0.00000000000E+00 0.  1.
         14    1    4    4    0    0  0.21639489981E+02 -0.29171221014E+02  0.73209350002E+02  0.81724149368E+02  0.00000000000E+00 0. -1.
         -5    1    5    5    0  502  0.25979533410E+02 -0.13594161823E+02 -0.42485422625E+02  0.51834723183E+02  0.47000000000E+01 0.  1.
         13    1    6    6    0    0 -0.88905610676E+01  0.32427307853E+02  0.12568789339E+02  0.35896334578E+02  0.00000000000E+00 0. -1.
        -14    1    6    6    0    0 -0.45178322957E+02 -0.37506746975E+02  0.71025829194E+02  0.92154790145E+02  0.00000000000E+00 0.  1.
</event>
<event>
12    1  0.8421768E-002  0.1740431E+03  0.7818608E-02  0.1174029E+00
         21   -1    0    0  503  502  0.00000000000E+00  0.00000000000E+00  0.12641134009E+03  0.12641134009E+03  0.00000000000E+00 0.  1.
         21   -1    0    0  501  503 -0.00000000000E+00 -0.00000000000E+00 -0.30707769942E+03  0.30707769942E+03  0.00000000000E+00 0.  1.
          6    2    1    2  501    0  0.14439266109E+02 -0.34750367371E+01 -0.19300132924E+03  0.25900939823E+03  0.17209237924E+03 0.  0.
         24    2    3    3    0    0 -0.15460339666E+02 -0.54694960170E+02 -0.16780571407E+03  0.19439998710E+03  0.80012727364E+02 0.  0.
         -6    2    1    2    0  502 -0.14439266109E+02  0.34750367371E+01  0.12334969912E+02  0.17447964129E+03  0.17340826237E+03 0.  0.
        -24    2    5    5    0    0  0.25434977674E+02  0.61317106411E+02  0.42556772870E+01  0.10360633665E+03  0.79431961938E+02 0.  0.
          5    1    3    3  501    0  0.29899605775E+02  0.51219923433E+02 -0.25195615174E+02  0.64609411125E+02  0.47000000000E+01 0. -1.
        -11    1    4    4    0    0  0.19877372868E+02 -0.12889755800E+02 -0.11812426428E+03  0.12047654364E+03  0.00000000000E+00 0.  1.
         12    1    4    4    0    0 -0.35337712534E+02 -0.41805204370E+02 -0.49681449791E+02  0.73923443459E+02  0.00000000000E+00 0. -1.
         -5    1    5    5    0  502 -0.39874243783E+02 -0.57842069674E+02  0.80792926251E+01  0.70873304641E+02  0.47000000000E+01 0.  1.
         11    1    6    6    0    0 -0.60895115873E+01  0.22002002752E+02 -0.33569587212E+02  0.40596643482E+02  0.00000000000E+00 0. -1.
        -12    1    6    6    0    0  0.31524489261E+02  0.39315103659E+02  0.37825264499E+02  0.63009693169E+02  0.00000000000E+00 0.  1.
</event>
<event>
12    1  0.8421768E-002  0.1834205E+03  0.7818608E-02  0.1165066E+00
         21   -1    0    0  501  502  0.00000000000E+00  0.00000000000E+00  0.77553512999E+03  0.77553512999E+03  0.00000000000E+00 0. -1.
         21   -1    0    0  502  503 -0.00000000000E+00 -0.00000000000E+00 -0.44707178189E+02  0.44707178189E+02  0.00000000000E+00 0. -1.
         -6    2    1    2    0  503  0.24817407792E+02 -0.57820405670E+02  0.28401489414E+03  0.33809396252E+03  0.17229034899E+03 0.  0.
        -24    2    3    3    0    0  0.32087649081E+02  0.25814995705E+02  0.20229760072E+03  0.22084404646E+03  0.78433043886E+02 0.  0.
          6    2    1    2  501    0 -0.24817407792E+02  0.57820405670E+02  0.44681305766E+03  0.48214834566E+03  0.16990001673E+03 0.  0.
         24    2    5    5    0    0  0.45149134010E+02  0.48564031130E+02  0.19509815789E+03  0.22068424065E+03  0.79002110344E+02 0.  0.
          5    1    5    5  501    0 -0.69966541801E+02  0.92563745397E+01  0.25171489977E+03  0.26146410501E+03  0.47000000000E+01 0. -1.
        -11    1    6    6    0    0  0.17312871998E+02  0.61312012059E+02  0.83896093730E+02  0.10534444885E+03  0.00000000000E+00 0.  1.
         12    1    6    6    0    0  0.27836262011E+02 -0.12747980929E+02  0.11120206416E+03  0.11533979180E+03  0.00000000000E+00 0. -1.
         -5    1    3    3    0  503 -0.72702412892E+01 -0.83635401375E+02  0.81717293419E+02  0.11724991606E+03  0.47000000000E+01 0.  1.
         11    1    4    4    0    0  0.34946560061E+00  0.69562892964E+01 -0.60652850777E+01  0.92357874627E+01  0.00000000000E+00 0. -1.
        -12    1    4    4    0    0  0.31738183480E+02  0.18858706409E+02  0.20836288580E+03  0.21160825900E+03  0.00000000000E+00 0.  1.
</event>
<event>
12    1  0.8421768E-002  0.2039560E+03  0.7818608E-02  0.1146487E+00
         21   -1    0    0  501  502  0.00000000000E+00  0.00000000000E+00  0.33429458708E+03  0.33429458708E+03  0.00000000000E+00 0.  1.
         21   -1    0    0  502  503 -0.00000000000E+00 -0.00000000000E+00 -0.54309985071E+03  0.54309985071E+03  0.00000000000E+00 0.  1.
         -6    2    1    2    0  503 -0.86593639452E+02 -0.64878386367E+02 -0.48962442768E+03  0.53032460966E+03  0.17263964788E+03 0.  0.
        -24    2    3    3    0    0  0.14874490136E+02 -0.52017815572E+02 -0.17980218139E+03  0.20402246455E+03  0.79807506024E+02 0.  0.
          6    2    1    2  501    0  0.86593639452E+02  0.64878386367E+02  0.28081916405E+03  0.34706982813E+03  0.17288840126E+03 0.  0.
         24    2    5    5    0    0  0.37816585494E+02 -0.26697172781E+02  0.89151591248E+02  0.12907021233E+03  0.81044927760E+02 0.  0.
          5    1    5    5  501    0  0.48777053958E+02  0.91575559149E+02  0.19166757280E+03  0.21799961580E+03  0.47000000000E+01 0. -1.
        -13    1    6    6    0    0  0.62591262173E+02 -0.25629984001E+02  0.72781765236E+02  0.99356668277E+02  0.00000000000E+00 0.  1.
         14    1    6    6    0    0 -0.24774676679E+02 -0.10671887800E+01  0.16369826012E+02  0.29713544052E+02  0.00000000000E+00 0. -1.
         -5    1    3    3    0  503 -0.10146812959E+03 -0.12860570796E+02 -0.30982224629E+03  0.32630214511E+03  0.47000000000E+01 0.  1.
         11    1    4    4    0    0 -0.82068626627E+01 -0.50158147069E+02 -0.17236360700E+03  0.17970087737E+03  0.00000000000E+00 0. -1.
        -12    1    4    4    0    0  0.23081352799E+02 -0.18596685022E+01 -0.74385743887E+01  0.24321587179E+02  0.00000000000E+00 0.  1.
</event>
<event>
12    1  0.8421768E-002  0.1926404E+03  0.7818608E-02  0.1156239E+00
         21   -1    0    0  503  502  0.00000000000E+00  0.00000000000E+00  0.51900935249E+02  0.51900935249E+02  0.00000000000E+00 0. -1.
         21   -1    0    0  501  503 -0.00000000000E+00 -0.00000000000E+00 -0.71272031250E+03  0.71272031250E+03  0.00000000000E+00 0. -1.
          6    2    1    2  501    0 -0.61170278589E+02 -0.63173424592E+02 -0.33096271521E+03  0.38294472124E+03  0.17139911350E+03 0.  0.
         24    2    3    3    0    0 -0.91658123162E+02 -0.46838580322E+02 -0.15159641882E+03  0.20021351404E+03  0.80677833740E+02 0.  0.
         -6    2    1    2    0  502  0.61170278589E+02  0.63173424592E+02 -0.32985666203E+03  0.38167652650E+03  0.17070110966E+03 0.  0.
        -24    2    5    5    0    0  0.69532081286E+02  0.53379665520E+02 -0.34287611641E+03  0.36277061067E+03  0.79714401117E+02 0.  0.
          5    1    3    3  501    0  0.30487844573E+02 -0.16334844270E+02 -0.17936629639E+03  0.18273120720E+03  0.47000000000E+01 0. -1.
        -11    1    4    4    0    0  0.19984146960E+01  0.81499906030E+01  0.49047244336E+01  0.97196877468E+01  0.00000000000E+00 0.  1.
         12    1    4    4    0    0 -0.93656537858E+02 -0.54988570925E+02 -0.15650114326E+03  0.19049382630E+03  0.00000000000E+00 0. -1.
         -5    1    5    5    0  502 -0.83618026967E+01  0.97937590725E+01  0.13019454376E+02  0.18905915830E+02  0.47000000000E+01 0.  1.
         11    1    6    6    0    0  0.37034366291E+02  0.11387605894E+02 -0.41590674960E+02  0.56841939606E+02  0.00000000000E+00 0. -1.
        -12    1    6    6    0    0  0.32497714995E+02  0.41992059626E+02 -0.30128544145E+03  0.30592867107E+03  0.00000000000E+00 0.  1.
</event>
<event>
12    1  0.8421768E-002  0.2240675E+03  0.7818608E-02  0.1130899E+00
         21   -1    0    0  501  502  0.00000000000E+00  0.00000000000E+00  0.59271919134E+02  0.59271919134E+02  0.00000000000E+00 0.  1.
         21   -1    0    0  502  503 -0.00000000000E+00 -0.00000000000E+00 -0.84806207948E+03  0.84806207948E+03  0.00000000000E+00 0.  1.
         -6    2    1    2    0  503  0.12887366872E+03 -0.63071437639E+02 -0.37680628497E+03  0.43839389157E+03  0.17210403552E+03 0.  0.
        -24    2    3    3    0    0 -0.20666420367E+01 -0.25059538853E+02 -0.96277222878E+02  0.12645012403E+03  0.78026141299E+02 0.  0.
          6    2    1    2  501    0 -0.12887366872E+03  0.63071437639E+02 -0.41198387538E+03  0.46894010704E+03  0.17201070225E+03 0.  0.
         24    2    5    5    0    0 -0.87668226561E+02  0.62793470463E+02 -0.40546304483E+03  0.42695705141E+03  0.79141045904E+02 0.  0.
          5    1    5    5  501    0 -0.41205442154E+02  0.27796717539E+00 -0.65208305462E+01  0.41983055628E+02  0.47000000000E+01 0. -1.
        -13    1    6    6    0    0 -0.35870350439E+02  0.47030323116E+02 -0.95742186647E+02  0.11253932485E+03  0.00000000000E+00 0.  1.
         14    1    6    6    0    0 -0.51797876122E+02  0.15763147347E+02 -0.30972085818E+03  0.31441772657E+03  0.00000000000E+00 0. -1.
         -5    1    3    3    0  503  0.13094031075E+03 -0.38011898785E+02 -0.28052906209E+03  0.31194376754E+03  0.47000000000E+01 0.  1.
         11    1    4    4    0    0  0.29113288849E+01  0.27232175804E+02 -0.20334110234E+02  0.34110750122E+02  0.00000000000E+00 0. -1.
        -12    1    4    4    0    0 -0.49779709215E+01 -0.52291714657E+02 -0.75943112644E+02  0.92339373911E+02  0.00000000000E+00 0.  1.
</event>
<event>
12    1  0.8421768E-002  0.1717981E+03  0.7818608E-02  0.1179290E+00
         21   -1    0    0  501  502  0.00000000000E+00  0.00000000000E+00  0.98759650533E+03  0.98759650533E+03  0.00000000000E+00 0.  1.
         21   -1    0    0  502  503 -0.00000000000E+00 -0.00000000000E+00 -0.34779800580E+02  0.34779800580E+02  0.00000000000E+00 0.  1.
         -6    2    1    2    0  503 -0.37938903066E+02 -0.52791754605E+01  0.71986318496E+03  0.74007946112E+03  0.16747350131E+03 0.  0.
        -24    2    3    3    0    0  0.11489807998E+02  0.52462352340E+02  0.38468630633E+03  0.39636022762E+03  0.78952907831E+02 0.  0.
          6    2    1    2  501    0  0.37938903066E+02  0.52791754605E+01  0.23295351978E+03  0.28229684479E+03  0.15478028343E+03 0.  0.
         24    2    5    5    0    0  0.68588632028E+02  0.93612832797E+01  0.22694147816E+03  0.25044870302E+03  0.80187806217E+02 0.  0.
          5    1    5    5  501    0 -0.30649728962E+02 -0.40821078192E+01  0.60120416220E+01  0.31848141769E+02  0.47000000000E+01 0. -1.
        -13    1    6    6    0    0  0.19387906623E+02 -0.14313425104E+02  0.89242936360E+01  0.25698406143E+02  0.00000000000E+00 0.  1.
         14    1    6    6    0    0  0.49200725405E+02  0.23674708383E+02  0.21801718453E+03  0.22475029688E+03  0.00000000000E+00 0. -1.
         -5    1    3    3    0  503 -0.49428711063E+02 -0.57741527800E+02  0.33517687863E+03  0.34371923350E+03  0.47000000000E+01 0.  1.
         11    1    4    4    0    0  0.11880147369E+02 -0.19096266561E+02  0.65597815637E+02  0.69346079301E+02  0.00000000000E+00 0. -1.
        -12    1    4    4    0    0 -0.39033937162E+00  0.71558618900E+02  0.31908849070E+03  0.32701414831E+03  0.00000000000E+00 0.  1.
</event>
<event>
12    1  0.8421768E-002  0.1880244E+03  0.7818608E-02  0.1163860E+00
         21   -1    0    0  503  502  0.00000000000E+00  0.00000000000E+00  0.37786991016E+03  0.37786991016E+03  0.00000000000E+00 0. -1.
         21   -1    0    0  501  503 -0.00000000000E+00 -0.00000000000E+00 -0.19814704200E+03  0.19814704200E+03  0.00000000000E+00 0. -1.
          6    2    1    2  501    0 -0.28667092094E+01 -0.13607707571E+02 -0.12816438048E+03  0.21525701552E+03  0.17238354498E+03 0.  0.
         24    2    3    3    0    0 -0.10692045022E+02  0.28944877119E+02 -0.68844471504E+01  0.86404888754E+02  0.80413204450E+02 0.  0.
         -6    2    1    2    0  502  0.28667092094E+01  0.13607707571E+02  0.30788724863E+03  0.36075993665E+03  0.18750942988E+03 0.  0.
        -24    2    5    5    0    0 -0.38225103330E+02  0.65628959144E+02  0.25418605602E+03  0.27531606173E+03  0.73621083730E+02 0.  0.
          5    1    3    3  501    0  0.78253358130E+01 -0.42552584690E+02 -0.12127993332E+03  0.12885212676E+03  0.47000000000E+01 0. -1.
        -13    1    4    4    0    0 -0.30362402322E+01  0.56431558501E+02  0.19158588813E+01  0.56545645853E+02  0.00000000000E+00 0.  1.
         14    1    4    4    0    0 -0.76558047902E+01 -0.27486681382E+02 -0.88003060317E+01  0.29859242901E+02  0.00000000000E+00 0. -1.
         -5    1    5    5    0  502  0.41091812539E+02 -0.52021251573E+02  0.53701192615E+02  0.85443874919E+02  0.47000000000E+01 0.  1.
         13    1    6    6    0    0 -0.59998186664E+02  0.43648602442E+02  0.16494551006E+03  0.18086460181E+03  0.00000000000E+00 0. -1.
        -14    1    6    6    0    0  0.21773083334E+02  0.21980356702E+02  0.89240545952E+02  0.94451459917E+02  0.00000000000E+00 0.  1.
</event>
<event>
12    1  0.8421768E-002  0.1922233E+03  0.7818608E-02  0.1157083E+00
         21   -1    0    0  501  502  0.00000000000E+00  0.00000000000E+00  0.10484428422E+04  0.10484428422E+04  0.00000000000E+00 0.  1.
         21   -1    0    0  502  503 -0.00000000000E+00 -0.00000000000E+00 -0.40392500407E+02  0.40392500407E+02  0.00000000000E+00 0.  1.
         -6    2    1    2    0  503  0.16438390684E+02 -0.79067525677E+02  0.30352900457E+03  0.35927659612E+03  0.17443601004E+03 0.  0.
        -24    2    3    3    0    0 -0.49352371148E+02 -0.58706294111E+02  0.12396759605E+03  0.16690353792E+03  0.81281858939E+02 0.  0.
          6    2    1    2  501    0 -0.16438390684E+02  0.79067525677E+02  0.70452133718E+03  0.72955874645E+03  0.17141690601E+03 0.  0.
         24    2    5    5    0    0 -0.76532697479E+02  0.61658902261E+02  0.46782941444E+03  0.48469237029E+03  0.80020364869E+02 0.  0.
          5    1    5    5  501    0  0.60094306795E+02  0.17408623415E+02  0.23669192274E+03  0.24486637615E+03  0.47000000000E+01 0. -1.
        -11    1    6    6    0    0  0.56064459351E+01 -0.28845559479E+01  0.10813976057E+01  0.63970555587E+01  0.00000000000E+00 0.  1.
         12    1    6    6    0    0 -0.82139143414E+02  0.64543458209E+02  0.46674801683E+03  0.47829531473E+03  0.00000000000E+00 0. -1.
         -5    1    3    3    0  503  0.65790761832E+02 -0.20361231566E+02  0.17956140851E+03  0.19237305820E+03  0.47000000000E+01 0.  1.
         13    1    4    4    0    0  0.22024886315E+02 -0.10035564977E+02  0.17892436926E+02  0.30098961456E+02  0.00000000000E+00 0. -1.
        -14    1    4    4    0    0 -0.71377257463E+02 -0.48670729134E+02  0.10607515913E+03  0.13680457646E+03  0.00000000000E+00 0.  1.
</event>
<event>
12    1  0.8421768E-002  0.2273852E+03  0.7818608E-02  0.1128639E+00
         21   -1    0    0  503  502  0.00000000000E+00  0.00000000000E+00  0.47428143374E+03  0.47428143374E+03  0.00000000000E+00 0. -1.
         21   -1    0    0  501  503 -0.00000000000E+00 -0.00000000000E+00 -0.18758617253E+03  0.18758617253E+03  0.00000000000E+00 0. -1.
          6    2    1    2  501    0  0.78801337524E+02  0.12630212194E+03 -0.71207950726E+02  0.23827420456E+03  0.17187829273E+03 0.  0.
         24    2    3    3    0    0  0.82659458502E+02  0.11970349438E+03  0.79328805553E+00  0.16571598402E+03  0.79370305566E+02 0.  0.
         -6    2    1    2    0  502 -0.78801337524E+02 -0.12630212194E+03  0.35790321193E+03  0.42359340171E+03  0.17080627640E+03 0.  0.
        -24    2    5    5    0    0  0.21695172953E+02 -0.83982973044E+02  0.20844736964E+03  0.23852693317E+03  0.76947850190E+02 0.  0.
          5    1    3    3  501    0 -0.38581209777E+01  0.65986275631E+01 -0.72001238781E+02  0.72558220549E+02  0.47000000000E+01 0. -1.
        -11    1    4    4    0    0  0.36490558900E+02  0.10992716407E+03 -0.12990279787E+02  0.11655166090E+03  0.00000000000E+00 0.  1.
         12    1    4    4    0    0  0.46168899602E+02  0.97763303065E+01  0.13783567843E+02  0.49164323114E+02  0.00000000000E+00 0. -1.
         -5    1    5    5    0  502 -0.10049651048E+03 -0.42319148898E+02  0.14945584229E+03  0.18506646854E+03  0.47000000000E+01 0.  1.
         11    1    6    6    0    0 -0.22535895074E+02 -0.50094926018E+02  0.13919202240E+03  0.14963885618E+03  0.00000000000E+00 0. -1.
        -12    1    6    6    0    0  0.44231068027E+02 -0.33888047026E+02  0.69255347237E+02  0.88888076990E+02  0.00000000000E+00 0.  1.
</event>
<event>
12    1  0.8421768E-002  0.2122523E+03  0.7818608E-02  0.1139929E+00
         21   -1    0    0  501  502  0.00000000000E+00  0.00000000000E+00  0.51832400692E+03  0.51832400692E+03  0.00000000000E+00 0. -1.
         21   -1    0    0  502  503 -0.00000000000E+00 -0.00000000000E+00 -0.26795777044E+03  0.26795777044E+03  0.00000000000E+00 0.  1.
         -6    2    1    2    0  503  0.58018363010E+01 -0.12421743570E+03 -0.19815116801E+03  0.29037031235E+03  0.17200988424E+03 0.  0.
        -24    2    3    3    0    0  0.58612003071E+01 -0.11305688891E+02 -0.26659769955E+02  0.84991502110E+02  0.79690901780E+02 0.  0.
          6    2    1    2  501    0 -0.58018363010E+01  0.12421743570E+03  0.44851740448E+03  0.49591146501E+03  0.17116274818E+03 0.  0.
         24    2    5    5    0    0 -0.10660866017E+02  0.98486291552E+01  0.28434544119E+03  0.29571566682E+03  0.79904794084E+02 0.  0.
          5    1    5    5  501    0  0.48590297163E+01  0.11436880654E+03  0.16417196330E+03  0.20019579819E+03  0.47000000000E+01 0. -1.
        -11    1    6    6    0    0 -0.13997833515E+02  0.16469288057E+02  0.28702092968E+03  0.28783361664E+03  0.00000000000E+00 0.  1.
         12    1    6    6    0    0  0.33369674974E+01 -0.66206589018E+01 -0.26754884934E+01  0.78820501807E+01  0.00000000000E+00 0. -1.
         -5    1    3    3    0  503 -0.59364006085E-01 -0.11291174680E+03 -0.17149139805E+03  0.20537881024E+03  0.47000000000E+01 0.  1.
         11    1    4    4    0    0 -0.21622164578E+02  0.24861380264E+02 -0.21342069734E+02  0.39256721338E+02  0.00000000000E+00 0. -1.
        -12    1    4    4    0    0  0.27483364885E+02 -0.36167069155E+02 -0.53177002217E+01  0.45734780773E+02  0.00000000000E+00 0.  1.
</event>
<event>
12    1  0.8421768E-002  0.1939135E+03  0.7818608E-02  0.1157364E+00
         21   -1    0    0  503  502  0.00000000000E+00  0.00000000000E+00  0.30996381977E+04  0.30996381977E+04  0.00000000000E+00 0. -1.
         21   -1    0    0  501  503 -0.00000000000E+00 -0.00000000000E+00 -0.11983964985E+02  0.11983964985E+02  0.00000000000E+00 0. -1.
          6    2    1    2  501    0 -0.70617518974E+02  0.90835528415E+01  0.11837444625E+04  0.11978628063E+04  0.16898226329E+03 0.  0.
         24    2    3    3    0    0 -0.61198008647E+02 -0.31016769101E+02  0.41282017810E+03  0.42582452664E+03  0.78732406352E+02 0.  0.
         -6    2    1    2    0  502  0.70617518974E+02 -0.90835528415E+01  0.19039097702E+04  0.19137593564E+04  0.18036938793E+03 0.  0.
        -24    2    5    5    0    0  0.28711343823E+01  0.37216815125E+02  0.14169191460E+04  0.14198815833E+04  0.83728785207E+02 0.  0.
          5    1    3    3  501    0 -0.94195103272E+01  0.40100321943E+02  0.77092428440E+03  0.77203827966E+03  0.47000000000E+01 0. -1.
        -11    1    4    4    0    0  0.36448181675E+01  0.15967451134E+02  0.15480859787E+03  0.15567256075E+03  0.00000000000E+00 0.  1.
         12    1    4    4    0    0 -0.64842826814E+02 -0.46984220235E+02  0.25801158023E+03  0.27015196589E+03  0.00000000000E+00 0. -1.
         -5    1    5    5    0  502  0.67746384592E+02 -0.46300367967E+02  0.48699062419E+03  0.49387777309E+03  0.47000000000E+01 0.  1.
         13    1    6    6    0    0 -0.35514737789E+00 -0.19025009256E+01  0.11582132504E+04  0.11582148674E+04  0.00000000000E+00 0. -1.
        -14    1    6    6    0    0  0.32262817602E+01  0.39119316051E+02  0.25870589556E+03  0.26166671584E+03  0.00000000000E+00 0.  1.
</event>
<event>
12    1  0.8421768E-002  0.1771120E+03  0.7818608E-02  0.1170801E+00
         21   -1    0    0  503  502  0.00000000000E+00  0.00000000000E+00  0.16432889196E+04  0.16432889196E+04  0.00000000000E+00 0. -1.
         21   -1    0    0  501  503 -0.00000000000E+00 -0.00000000000E+00 -0.47260992379E+02  0.47260992379E+02  0.00000000000E+00 0. -1.
          6    2    1    2  501    0  0.38621919810E+02 -0.16574023516E+02  0.14516513569E+03  0.22900122610E+03  0.17205317198E+03 0.  0.
         24    2    3    3    0    0 -0.26930664645E+02  0.12613142024E+02  0.26511534248E+02  0.90257580851E+02  0.80988995567E+02 0.  0.
         -6    2    1    2    0  502 -0.38621919810E+02  0.16574023516E+02  0.14508627915E+04  0.14615486859E+04  0.17133409003E+03 0.  0.
        -24    2    5    5    0    0  0.77205487285E+01 -0.41230743279E+02  0.10564616694E+04  0.10602216988E+04  0.78735065519E+02 0.  0.
          5    1    3    3  501    0  0.65552584454E+02 -0.29187165541E+02  0.11865360144E+03  0.13874364525E+03  0.47000000000E+01 0. -1.
        -13    1    4    4    0    0 -0.33341869278E+02  0.43018885797E+02  0.11002487517E+02  0.55528006570E+02  0.00000000000E+00 0.  1.
         14    1    4    4    0    0  0.64112046328E+01 -0.30405743772E+02  0.15509046731E+02  0.34729574280E+02  0.00000000000E+00 0. -1.
         -5    1    5    5    0  502 -0.46342468538E+02  0.57804766795E+02  0.39440112206E+03  0.40132698705E+03  0.47000000000E+01 0.  1.
         11    1    6    6    0    0 -0.33663700005E+02 -0.22919368547E+02  0.64360741891E+03  0.64489460521E+03  0.00000000000E+00 0. -1.
        -12    1    6    6    0    0  0.41384248734E+02 -0.18311374732E+02  0.41285425053E+03  0.41532709359E+03  0.00000000000E+00 0.  1.
</event>
<event>
12    1  0.8421768E-002  0.2175066E+03  0.7818608E-02  0.1135867E+00
         21   -1    0    0  501  502  0.00000000000E+00  0.00000000000E+00  0.60379179540E+03  0.60379179540E+03  0.00000000000E+00 0.  1.
         21   -1    0    0  502  503 -0.00000000000E+00 -0.00000000000E+00 -0.13585479174E+03  0.13585479174E+03  0.00000000000E+00 0. -1.
         -6    2    1    2    0  503 -0.13115827351E+03 -0.23836214633E+02 -0.72573750704E+01  0.21703889576E+03  0.17112146253E+03 0.  0.
        -24    2    3    3    0    0 -0.42142477718E+02  0.31713832287E+02 -0.78267436125E+01  0.11200540684E+03  0.98499734311E+02 0.  0.
          6    2    1    2  501    0  0.13115827351E+03  0.23836214633E+02  0.47519437873E+03  0.52260769138E+03  0.17186751781E+03 0.  0.
         24    2    5    5    0    0  0.14678124139E+03  0.37598905123E+02  0.30118965993E+03  0.34729876138E+03  0.83323513584E+02 0.  0.
          5    1    5    5  501    0 -0.15622967877E+02 -0.13762690490E+02  0.17400471880E+03  0.17530893000E+03  0.47000000000E+01 0. -1.
        -11    1    6    6    0    0  0.21398063701E+02  0.16687606210E+02  0.13695867593E+03  0.13962103081E+03  0.00000000000E+00 0.  1.
         12    1    6    6    0    0  0.12538317769E+03  0.20911298913E+02  0.16423098400E+03  0.20767773057E+03  0.00000000000E+00 0. -1.
         -5    1    3    3    0  503 -0.89015795794E+02 -0.55550046919E+02  0.56936854208E+00  0.10503348892E+03  0.47000000000E+01 0.  1.
         11    1    4    4    0    0 -0.62850181950E+01 -0.16815943084E+02 -0.39840932372E+02  0.43698710368E+02  0.00000000000E+00 0. -1.
        -12    1    4    4    0    0 -0.35857459523E+02  0.48529775371E+02  0.32014188760E+02  0.68306696472E+02  0.00000000000E+00 0.  1.
</event>
<event>
12    1  0.8421768E-002  0.1768033E+03  0.7818608E-02  0.1170936E+00
         21   -1    0    0  501  502  0.00000000000E+00  0.00000000000E+00  0.12492928925E+04  0.12492928925E+04  0.00000000000E+00 0. -1.
         21   -1    0    0  502  503 -0.00000000000E+00 -0.00000000000E+00 -0.37449279877E+02  0.37449279877E+02  0.00000000000E+00 0. -1.
         -6    2    1    2    0  503 -0.63927589301E+01 -0.38498712375E+02  0.23528547670E+03  0.29431051501E+03  0.17244247006E+03 0.  0.
        -24    2    3    3    0    0 -0.21798685891E+02 -0.80119313634E+02  0.21868677842E+03  0.24669514125E+03  0.78360057001E+02 0.  0.
          6    2    1    2  501    0  0.63927589301E+01  0.38498712375E+02  0.97655813594E+03  0.99243165738E+03  0.17242906796E+03 0.  0.
         24    2    5    5    0    0 -0.59934562841E+02  0.17391905014E+02  0.46197221392E+03  0.47313831825E+03  0.80912987664E+02 0.  0.
          5    1    5    5  501    0  0.66327321771E+02  0.21106807361E+02  0.51458592202E+03  0.51929333914E+03  0.47000000000E+01 0. -1.
        -11    1    6    6    0    0 -0.62813771431E+02  0.39163567859E+02  0.27170266954E+03  0.28160556736E+03  0.00000000000E+00 0.  1.
         12    1    6    6    0    0  0.28792085904E+01 -0.21771662844E+02  0.19026954438E+03  0.19153275089E+03  0.00000000000E+00 0. -1.
         -5    1    3    3    0  503  0.15405926961E+02  0.41620601259E+02  0.16598698277E+02  0.47615373769E+02  0.47000000000E+01 0.  1.
         13    1    4    4    0    0  0.25312853895E+02 -0.21135137127E+02  0.10639190764E+03  0.11138524411E+03  0.00000000000E+00 0. -1.
        -14    1    4    4    0    0 -0.47111539786E+02 -0.58984176507E+02  0.11229487078E+03  0.13530989714E+03  0.00000000000E+00 0.  1.
</event>
<event>
12    1  0.8421768E-002  0.2560299E+03  0.7818608E-02  0.1109721E+00
         21   -1    0    0  503  502  0.00000000000E+00  0.00000000000E+00  0.20583995969E+04  0.20583995969E+04  0.00000000000E+00 0.  1.
         21   -1    0    0  501  503 -0.00000000000E+00 -0.00000000000E+00 -0.53617296513E+02  0.53617296513E+02  0.00000000000E+00 0. -1.
          6    2    1    2  501    0  0.15319007683E+03  0.10940252266E+03  0.32609412426E+03  0.41391639459E+03  0.17191071005E+03 0.  0.
         24    2    3    3    0    0  0.17784214565E+03  0.10945559537E+03  0.31558077563E+03  0.38670706139E+03  0.79641504584E+02 0.  0.
         -6    2    1    2    0  502 -0.15319007683E+03 -0.10940252266E+03  0.16786881762E+04  0.16981004989E+04  0.17353731538E+03 0.  0.
        -24    2    5    5    0    0 -0.39456328045E+02 -0.81875018121E+02  0.10876651688E+04  0.10955862547E+04  0.95044209529E+02 0.  0.
          5    1    3    3  501    0 -0.24652068823E+02 -0.53072705878E-01  0.10513348630E+02  0.27209333204E+02  0.47000000000E+01 0. -1.
        -13    1    4    4    0    0  0.10699281581E+03  0.10632715971E+03  0.23625452228E+03  0.28030184949E+03  0.00000000000E+00 0.  1.
         14    1    4    4    0    0  0.70849329849E+02  0.31284356532E+01  0.79326253346E+02  0.10640521190E+03  0.00000000000E+00 0. -1.
         -5    1    5    5    0  502 -0.11373374879E+03 -0.27527504541E+02  0.59102300738E+03  0.60251424413E+03  0.47000000000E+01 0.  1.
         13    1    6    6    0    0  0.17612417464E+02 -0.36813407391E+02  0.16169413285E+03  0.16676455502E+03  0.00000000000E+00 0. -1.
        -14    1    6    6    0    0 -0.57068745509E+02 -0.45061610730E+02  0.92597103594E+03  0.92882169972E+03  0.00000000000E+00 0.  1.
</event>
<event>
12    1  0.8421768E-002  0.2612649E+03  0.7818608E-02  0.1106547E+00
         21   -1    0    0  503  502  0.00000000000E+00  0.00000000000E+00  0.15947234819E+04  0.15947234819E+04  0.00000000000E+00 0. -1.
         21   -1    0    0  501  503 -0.00000000000E+00 -0.00000000000E+00 -0.70446094255E+02  0.70446094255E+02  0.00000000000E+00 0.  1.
          6    2    1    2  501    0  0.18688740400E+03  0.60705969933E+02  0.23988509304E+03  0.35468891793E+03  0.17218377996E+03 0.  0.
         24    2    3    3    0    0  0.94718076778E+02  0.56308205521E+02  0.54336070370E+02  0.14740878134E+03  0.81454356512E+02 0.  0.
         -6    2    1    2    0  502 -0.18688740400E+03 -0.60705969933E+02  0.12843922946E+04  0.13104806582E+04  0.17053994425E+03 0.  0.
        -24    2    5    5    0    0 -0.61919130548E+02 -0.78464823708E+02  0.76556168531E+03  0.77649588560E+03  0.82888232272E+02 0.  0.
          5    1    3    3  501    0  0.92169327218E+02  0.43977644124E+01  0.18554902267E+03  0.20728013659E+03  0.47000000000E+01 0. -1.
        -13    1    4    4    0    0 -0.64352454910E+01 -0.53469062411E+01 -0.96484763585E+01  0.12770860853E+02  0.00000000000E+00 0.  1.
         14    1    4    4    0    0  0.10115332227E+03  0.61655111762E+02  0.63984546729E+02  0.13463792049E+03  0.00000000000E+00 0. -1.
         -5    1    5    5    0  502 -0.12496827345E+03  0.17758853775E+02  0.51883060927E+03  0.53398477260E+03  0.47000000000E+01 0.  1.
         13    1    6    6    0    0 -0.23475494043E+02 -0.53255603814E+02  0.18094794266E+03  0.19007739505E+03  0.00000000000E+00 0. -1.
        -14    1    6    6    0    0 -0.38443636506E+02 -0.25209219894E+02  0.58461374266E+03  0.58641849055E+03  0.00000000000E+00 0.  1.
</event>
<event>
12    1  0.8421768E-002  0.2004264E+03  0.7818608E-02  0.1149810E+00
         21   -1    0    0  501  502  0.00000000000E+00  0.00000000000E+00  0.62862106372E+03  0.62862106372E+03  0.00000000000E+00 0.  1.
         21   -1    0    0  502  503 -0.00000000000E+00 -0.00000000000E+00 -0.27794613896E+03  0.27794613896E+03  0.00000000000E+00 0.  1.
         -6    2    1    2    0  503 -0.87252310607E+02  0.54034681264E+02 -0.22283603983E+03  0.29971093921E+03  0.17215700377E+03 0.  0.
        -24    2    3    3    0    0 -0.47468561715E+00  0.70494940609E+01 -0.17042764742E+03  0.18787760960E+03  0.78755904485E+02 0.  0.
          6    2    1    2  501    0  0.87252310607E+02 -0.54034681264E+02  0.57351096459E+03  0.60685626348E+03  0.16978511576E+03 0.  0.
         24    2    5    5    0    0  0.56847765011E+02 -0.17938013159E+02  0.53916055050E+03  0.54829478476E+03  0.79872592782E+02 0.  0.
          5    1    5    5  501    0  0.30404545596E+02 -0.36096668104E+02  0.34350414084E+02  0.58561478712E+02  0.47000000000E+01 0. -1.
        -11    1    6    6    0    0 -0.13253916598E+02  0.87608679903E+01  0.21420456255E+03  0.21479295550E+03  0.00000000000E+00 0.  1.
         12    1    6    6    0    0  0.70101681609E+02 -0.26698881150E+02  0.32495598795E+03  0.33350182927E+03  0.00000000000E+00 0. -1.
         -5    1    3    3    0  503 -0.86777624990E+02  0.46985187203E+02 -0.52408392406E+02  0.11183332960E+03  0.47000000000E+01 0.  1.
         13    1    4    4    0    0  0.10595707370E+02 -0.25264484251E+02 -0.20792111372E+02  0.34392950942E+02  0.00000000000E+00 0. -1.
        -14    1    4    4    0    0 -0.11070392987E+02  0.32313978312E+02 -0.14963553605E+03  0.15348465866E+03  0.00000000000E+00 0.  1.
</event>
<event>
12    1  0.8421768E-002  0.1787267E+03  0.7818608E-02  0.1169405E+00
         21   -1    0    0  503  502  0.00000000000E+00  0.00000000000E+00  0.26558165298E+03  0.26558165298E+03  0.00000000000E+00 0. -1.
         21   -1    0    0  501  503 -0.00000000000E+00 -0.00000000000E+00 -0.73746819333E+03  0.73746819333E+03  0.00000000000E+00 0. -1.
          6    2    1    2  501    0 -0.13477753137E+02  0.29371370632E+02 -0.69528004759E+03  0.71788409677E+03  0.17578084248E+03 0.  0.
         24    2    3    3    0    0  0.55440623349E+02 -0.75941368410E+01 -0.44730463858E+03  0.45782624776E+03  0.79950608579E+02 0.  0.
         -6    2    1    2    0  502  0.13477753137E+02 -0.29371370632E+02  0.22339350724E+03  0.28516574953E+03  0.17427139292E+03 0.  0.
        -24    2    5    5    0    0 -0.37093140610E+02 -0.57248396692E+02  0.19549299695E+03  0.22086122131E+03  0.76869286563E+02 0.  0.
          5    1    3    3  501    0 -0.68918376486E+02  0.36965507473E+02 -0.24797540901E+03  0.26005784901E+03  0.47000000000E+01 0. -1.
        -11    1    4    4    0    0 -0.13617263004E+02 -0.21699892968E+02 -0.87059136777E+02  0.90750253459E+02  0.00000000000E+00 0.  1.
         12    1    4    4    0    0  0.69057886353E+02  0.14105756127E+02 -0.36024550180E+03  0.36707599430E+03  0.00000000000E+00 0. -1.
         -5    1    5    5    0  502  0.50570893747E+02  0.27877026061E+02  0.27900510289E+02  0.64304528229E+02  0.47000000000E+01 0.  1.
         11    1    6    6    0    0 -0.12195435142E+02  0.13109380116E+02  0.89224037558E+02  0.91002820634E+02  0.00000000000E+00 0. -1.
        -12    1    6    6    0    0 -0.24897705468E+02 -0.70357776808E+02  0.10626895939E+03  0.12985840067E+03  0.00000000000E+00 0.  1.
</event>
<event>
12    1  0.8421768E-002  0.2675346E+03  0.7818608E-02  0.1102725E+00
         21   -1    0    0  501  502  0.00000000000E+00  0.00000000000E+00  0.18077546008E+03  0.18077546008E+03  0.00000000000E+00 0.  1.
         21   -1    0    0  502  503 -0.00000000000E+00 -0.00000000000E+00 -0.48858735420E+03  0.48858735420E+03  0.00000000000E+00 0.  1.
         -6    2    1    2    0  503 -0.67281799011E+02  0.19421782854E+03 -0.29981889086E+03  0.40170886582E+03  0.17097146009E+03 0.  0.
        -24    2    3    3    0    0 -0.67632574365E+01  0.18925898487E+03 -0.21402166385E+03  0.29649319129E+03  0.78982497287E+02 0.  0.
          6    2    1    2  501    0  0.67281799011E+02 -0.19421782854E+03 -0.79930032548E+01  0.26765394845E+03  0.17125227771E+03 0.  0.
         24    2    5    5    0    0  0.74559736879E+02 -0.57039481878E+02  0.27612053174E+02  0.12566564888E+03  0.78846515283E+02 0.  0.
          5    1    5    5  501    0 -0.72779378677E+01 -0.13717834666E+03 -0.35605056429E+02  0.14198829957E+03  0.47000000000E+01 0. -1.
        -11    1    6    6    0    0  0.58950031644E+02 -0.76234918618E+02  0.29687395668E+02  0.10083754514E+03  0.00000000000E+00 0.  1.
         12    1    6    6    0    0  0.15609705235E+02  0.19195436740E+02 -0.20753424942E+01  0.24828103746E+02  0.00000000000E+00 0. -1.
         -5    1    3    3    0  503 -0.60518541575E+02  0.49588436632E+01 -0.85797227010E+02  0.10521567453E+03  0.47000000000E+01 0.  1.
         13    1    4    4    0    0 -0.62225377934E+01 -0.65962434941E+01 -0.12846390838E+02  0.15724508336E+02  0.00000000000E+00 0. -1.
        -14    1    4    4    0    0 -0.54071964315E+00  0.19585522837E+03 -0.20117527301E+03  0.28076868295E+03  0.00000000000E+00 0.  1.
</event>
<event>
12    1  0.8421768E-002  0.2379709E+03  0.7818608E-02  0.1121197E+00
         21   -1    0    0  503  502  0.00000000000E+00  0.00000000000E+00  0.15923542161E+04  0.15923542161E+04  0.00000000000E+00 0.  1.
         21   -1    0    0  501  503 -0.00000000000E+00 -0.00000000000E+00 -0.35682120144E+02  0.35682120144E+02  0.00000000000E+00 0.  1.
          6    2    1    2  501    0  0.81621545564E+02  0.14363738035E+03  0.83304034507E+03  0.86636386621E+03  0.17127859885E+03 0.  0.
         24    2    3    3    0    0 -0.66856783321E+01  0.12056110304E+03  0.46529583850E+03  0.48743274783E+03  0.80689456965E+02 0.  0.
         -6    2    1    2    0  502 -0.81621545564E+02 -0.14363738035E+03  0.72363175085E+03  0.76167247000E+03  0.17090426262E+03 0.  0.
        -24    2    5    5    0    0  0.15050022973E+02 -0.41312769419E+02  0.20153203779E+03  0.22090827135E+03  0.79069930981E+02 0.  0.
          5    1    3    3  501    0  0.88307223896E+02  0.23076277306E+02  0.36774450657E+03  0.37893111838E+03  0.47000000000E+01 0. -1.
        -13    1    4    4    0    0  0.20024387898E+02  0.38969260734E+02  0.67460807384E+02  0.80439666370E+02  0.00000000000E+00 0.  1.
         14    1    4    4    0    0 -0.26710066230E+02  0.81591842310E+02  0.39783503112E+03  0.40699308146E+03  0.00000000000E+00 0. -1.
         -5    1    5    5    0  502 -0.96671568537E+02 -0.10232461093E+03  0.52209971306E+03  0.54076419865E+03  0.47000000000E+01 0.  1.
         11    1    6    6    0    0 -0.13154143037E+02  0.74644383488E+01  0.42100921256E+01  0.15699496636E+02  0.00000000000E+00 0. -1.
        -12    1    6    6    0    0  0.28204166010E+02 -0.48777207768E+02  0.19732194567E+03  0.20520877471E+03  0.00000000000E+00 0.  1.
</event>
<event>
12    1  0.8421768E-002  0.1887901E+03  0.7818608E-02  0.1159815E+00
         21   -1    0    0  503  502  0.00000000000E+00  0.00000000000E+00  0.19518089970E+03  0.19518089970E+03  0.00000000000E+00 0. -1.
         21   -1    0    0  501  503 -0.00000000000E+00 -0.00000000000E+00 -0.18265870547E+03  0.18265870547E+03  0.00000000000E+00 0. -1.
          6    2    1    2  501    0  0.70271894154E+02  0.27385962195E+02  0.21226002789E+02  0.18997962428E+03  0.17307103863E+03 0.  0.
         24    2    3    3    0    0  0.84310964035E+01 -0.18738336371E+01  0.69315565566E+02  0.10622333516E+03  0.80025962439E+02 0.  0.
         -6    2    1    2    0  502 -0.70271894154E+02 -0.27385962195E+02 -0.87038085637E+01  0.18785998089E+03  0.17183563688E+03 0.  0.
        -24    2    5    5    0    0 -0.30028406516E+02 -0.58227555073E+02 -0.56654520007E+02  0.11791641166E+03  0.80014949435E+02 0.  0.
          5    1    3    3  501    0  0.61840797750E+02  0.29259795832E+02 -0.48089562778E+02  0.83756289117E+02  0.47000000000E+01 0. -1.
        -11    1    4    4    0    0 -0.53858229658E+01 -0.35682295355E+02  0.57408871649E+02  0.67808641300E+02  0.00000000000E+00 0.  1.
         12    1    4    4    0    0  0.13816919369E+02  0.33808461718E+02  0.11906693917E+02  0.38414693864E+02  0.00000000000E+00 0. -1.
         -5    1    5    5    0  502 -0.40243487638E+02  0.30841592877E+02  0.47950711444E+02  0.69943569228E+02  0.47000000000E+01 0.  1.
         11    1    6    6    0    0 -0.47387937936E+02 -0.52342157985E+02 -0.14683665299E+02  0.72117461068E+02  0.00000000000E+00 0. -1.
        -12    1    6    6    0    0  0.17359531420E+02 -0.58853970881E+01 -0.41970854709E+02  0.45798950588E+02  0.00000000000E+00 0.  1.
</event>
<event>
12    1  0.8421768E-002  0.1770022E+03  0.7818608E-02  0.1170821E+00
         21   -1    0    0  503  502  0.00000000000E+00  0.00000000000E+00  0.55391569205E+03  0.55391569205E+03  0.00000000000E+00 0. -1.
         21   -1    0    0  501  503 -0.00000000000E+00 -0.00000000000E+00 -0.82415340576E+02  0.82415340576E+02  0.00000000000E+00 0. -1.
          6    2    1    2  501    0 -0.41187339670E+02  0.34563339295E+01  0.57326072317E+02  0.18605389311E+03  0.17210877194E+03 0.  0.
         24    2    3    3    0    0  0.35859190816E+02  0.20658662660E+02  0.52381832935E+02  0.10681612764E+03  0.83385651001E+02 0.  0.
         -6    2    1    2    0  502  0.41187339670E+02 -0.34563339295E+01  0.41417427915E+03  0.45027713952E+03  0.17175804396E+03 0.  0.
        -24    2    5    5    0    0  0.76258550906E+02  0.25162928791E+02  0.36887455170E+03  0.38606493379E+03  0.80803209359E+02 0.  0.
          5    1    3    3  501    0 -0.77046530486E+02 -0.17202328731E+02  0.49442393818E+01  0.79237765471E+02  0.47000000000E+01 0. -1.
        -11    1    4    4    0    0 -0.23330321324E+02  0.23785714312E+02  0.13615139131E+02  0.35992167370E+02  0.00000000000E+00 0.  1.
         12    1    4    4    0    0  0.59189512140E+02 -0.31270516522E+01  0.38766693804E+02  0.70823960267E+02  0.00000000000E+00 0. -1.
         -5    1    5    5    0  502 -0.35071211236E+02 -0.28619262721E+02  0.45299727459E+02  0.64212205725E+02  0.47000000000E+01 0.  1.
         11    1    6    6    0    0 -0.43485825988E+01  0.11464250830E+02  0.17792050861E+03  0.17834249803E+03  0.00000000000E+00 0. -1.
        -12    1    6    6    0    0  0.80607133505E+02  0.13698677961E+02  0.19095404308E+03  0.20772243576E+03  0.00000000000E+00 0.  1.
</event>
<event>
12    1  0.8421768E-002  0.1772647E+03  0.7818608E-02  0.1170526E+00
         21   -1    0    0  501  502  0.00000000000E+00  0.00000000000E+00  0.22452654448E+03  0.22452654448E+03  0.00000000000E+00 0.  1.
         21   -1    0    0  502  503 -0.00000000000E+00 -0.00000000000E+00 -0.15982186476E+03  0.15982186476E+03  0.00000000000E+00 0.  1.
         -6    2    1    2    0  503 -0.19611397569E+02  0.38044050596E+02 -0.35658070575E+02  0.18081560358E+03  0.17201984711E+03 0.  0.
        -24    2    3    3    0    0  0.21302963199E+01  0.86817508037E+02 -0.26394373587E+01  0.11785631877E+03  0.79632451806E+02 0.  0.
          6    2    1    2  501    0  0.19611397569E+02 -0.38044050596E+02  0.10036275030E+03  0.20353280567E+03  0.17181665995E+03 0.  0.
         24    2    5    5    0    0  0.36831806302E+02 -0.62878900045E+02  0.11765331376E+03  0.16839926317E+03  0.95946191015E+02 0.  0.
          5    1    5    5  501    0 -0.17220408732E+02  0.24834849449E+02 -0.17290563460E+02  0.35133542503E+02  0.47000000000E+01 0. -1.
        -13    1    6    6    0    0  0.43385997529E+02  0.12232520404E+02  0.43079843896E+02  0.62352644588E+02  0.00000000000E+00 0.  1.
         14    1    6    6    0    0 -0.65541912268E+01 -0.75111420450E+02  0.74573469861E+02  0.10604661858E+03  0.00000000000E+00 0. -1.
         -5    1    3    3    0  503 -0.21741693889E+02 -0.48773457441E+02 -0.33018633217E+02  0.62959284807E+02  0.47000000000E+01 0.  1.
         11    1    4    4    0    0  0.32747844858E+02  0.97214616566E+01  0.51162585630E+01  0.34541341335E+02  0.00000000000E+00 0. -1.
        -12    1    4    4    0    0 -0.30617548538E+02  0.77096046380E+02 -0.77556959216E+01  0.83314977436E+02  0.00000000000E+00 0.  1.
</event>
<event>
12    1  0.8421768E-002  0.1998858E+03  0.7818608E-02  0.1150160E+00
         21   -1    0    0  503  502  0.00000000000E+00  0.00000000000E+00  0.34077001797E+03  0.34077001797E+03  0.00000000000E+00 0. -1.
         21   -1    0    0  501  503 -0.00000000000E+00 -0.00000000000E+00 -0.12324038665E+03  0.12324038665E+03  0.00000000000E+00 0. -1.
          6    2    1    2  501    0 -0.46468150166E+02 -0.87111882912E+02  0.53513775721E+02  0.20544602424E+03  0.17203655297E+03 0.  0.
         24    2    3    3    0    0 -0.33160487896E+02 -0.65647941139E+02  0.10351182627E+03  0.14923490674E+03  0.78403374141E+02 0.  0.
         -6    2    1    2    0  502  0.46468150166E+02  0.87111882912E+02  0.16401585560E+03  0.25856438038E+03  0.17380037050E+03 0.  0.
        -24    2    5    5    0    0  0.60548804053E+02  0.84835107186E+02  0.18886942645E+03  0.22952581111E+03  0.78404621249E+02 0.  0.
          5    1    3    3  501    0 -0.13307662270E+02 -0.21463941773E+02 -0.49998050553E+02  0.56211117500E+02  0.47000000000E+01 0. -1.
        -13    1    4    4    0    0  0.20430026478E+02  0.15710703815E+01  0.12314102749E+02  0.23905885688E+02  0.00000000000E+00 0.  1.
         14    1    4    4    0    0 -0.53590514374E+02 -0.67219011520E+02  0.91197723525E+02  0.12532902105E+03  0.00000000000E+00 0. -1.
         -5    1    5    5    0  502 -0.14080653887E+02  0.22767757253E+01 -0.24853570846E+02  0.29038569272E+02  0.47000000000E+01 0.  1.
         11    1    6    6    0    0 -0.16256067389E+02  0.35738328852E+02  0.55858316439E+02  0.68276199304E+02  0.00000000000E+00 0. -1.
        -12    1    6    6    0    0  0.76804871442E+02  0.49096778334E+02  0.13301111001E+03  0.16124961180E+03  0.00000000000E+00 0.  1.
</event>
<event>
12    1  0.8421768E-002  0.3568831E+03  0.7818608E-02  0.1059852E+00
         21   -1    0    0  501  502  0.00000000000E+00  0.00000000000E+00  0.76007293895E+02  0.76007293895E+02  0.00000000000E+00 0. -1.
         21   -1    0    0  502  503 -0.00000000000E+00 -0.00000000000E+00 -0.16744401769E+04  0.16744401769E+04  0.00000000000E+00 0.  1.
         -6    2    1    2    0  503  0.11675388013E+03  0.28995011408E+03 -0.79694840426E+03  0.87320807222E+03  0.17222961753E+03 0.  0.
        -24    2    3    3    0    0  0.85923762959E+02  0.23188530054E+03 -0.44675477407E+03  0.51686597911E+03  0.80043279276E+02 0.  0.
          6    2    1    2  501    0 -0.11675388013E+03 -0.28995011408E+03 -0.80148447871E+03  0.87723939854E+03  0.17166553399E+03 0.  0.
         24    2    5    5    0    0  0.50772536330E+01 -0.13547932115E+03 -0.29923154540E+03  0.33780993138E+03  0.78712178307E+02 0.  0.
          5    1    5    5  501    0 -0.12183113376E+03 -0.15447079294E+03 -0.50225293331E+03  0.53942946716E+03  0.47000000000E+01 0. -1.
        -13    1    6    6    0    0  0.32396618791E+01 -0.22205798988E+02 -0.14342794218E+03  0.14517288836E+03  0.00000000000E+00 0.  1.
         14    1    6    6    0    0  0.18375917539E+01 -0.11327352216E+03 -0.15580360322E+03  0.19263704302E+03  0.00000000000E+00 0. -1.
         -5    1    3    3    0  503  0.30830117168E+02  0.58064813542E+02 -0.35019363019E+03  0.35634209311E+03  0.47000000000E+01 0.  1.
         11    1    4    4    0    0 -0.21412556357E+01  0.10113592456E+03 -0.15161064627E+03  0.18226038591E+03  0.00000000000E+00 0. -1.
        -12    1    4    4    0    0  0.88065018595E+02  0.13074937598E+03 -0.29514412780E+03  0.33460559319E+03  0.00000000000E+00 0.  1.
</event>
<event>
12    1  0.8421768E-002  0.1746238E+03  0.7818608E-02  0.1173287E+00
         21   -1    0    0  501  502  0.00000000000E+00  0.00000000000E+00  0.19633429394E+03  0.19633429394E+03  0.00000000000E+00 0. -1.
         21   -1    0    0  502  503 -0.00000000000E+00 -0.00000000000E+00 -0.32289230336E+03  0.32289230336E+03  0.00000000000E+00 0. -1.
         -6    2    1    2    0  503 -0.28392816614E+02 -0.14951278646E+02 -0.25059414415E+03  0.30503410570E+03  0.17093474717E+03 0.  0.
        -24    2    3    3    0    0 -0.47089996065E+02 -0.12384911975E+01 -0.52605358266E+02  0.10563682790E+03  0.78567258448E+02 0.  0.
          6    2    1    2  501    0  0.28392816614E+02  0.14951278646E+02  0.12403613473E+03  0.21419249161E+03  0.17165013246E+03 0.  0.
         24    2    5    5    0    0 -0.24721478668E+02 -0.38767342712E+02  0.88570813739E+02  0.13060602358E+03  0.84256073852E+02 0.  0.
          5    1    5    5  501    0  0.53114295283E+02  0.53718621359E+02  0.35465320990E+02  0.83586468026E+02  0.47000000000E+01 0. -1.
        -11    1    6    6    0    0 -0.17250094126E+02  0.25096434427E+02  0.38631833305E+02  0.49191618319E+02  0.00000000000E+00 0.  1.
         12    1    6    6    0    0 -0.74713845423E+01 -0.63863777140E+02  0.49938980435E+02  0.81414405264E+02  0.00000000000E+00 0. -1.
         -5    1    3    3    0  503  0.18697179451E+02 -0.13712787449E+02 -0.19798878588E+03  0.19939727780E+03  0.47000000000E+01 0.  1.
         11    1    4    4    0    0 -0.73921963463E+01  0.22098296678E+02  0.12070248793E+02  0.26242526342E+02  0.00000000000E+00 0. -1.
        -12    1    4    4    0    0 -0.39697799719E+02 -0.23336787876E+02 -0.64675607059E+02  0.79394301555E+02  0.00000000000E+00 0.  1.
</event>
<event>
12    1  0.8421768E-002  0.1797205E+03  0.7818608E-02  0.1168470E+00
         21   -1    0    0  503  502  0.00000000000E+00  0.00000000000E+00  0.24494987562E+03  0.24494987562E+03  0.00000000000E+00 0. -1.
         21   -1    0    0  501  503 -0.00000000000E+00 -0.00000000000E+00 -0.21036426990E+03  0.21036426990E+03  0.00000000000E+00 0. -1.
          6    2    1    2  501    0  0.47515964752E+02  0.71546019872E+01 -0.12277812776E+03  0.21765554751E+03  0.17317769333E+03 0.  0.
         24    2    3    3    0    0 -0.28629099792E+00 -0.45429731571E+02 -0.35657983611E+02  0.10512920700E+03  0.87844839899E+02 0.  0.
         -6    2    1    2    0  502 -0.47515964752E+02 -0.71546019872E+01  0.15736373348E+03  0.23765859801E+03  0.17149142648E+03 0.  0.
        -24    2    5    5    0    0 -0.60966572962E+02  0.49581071699E+02  0.68491857310E+02  0.13126237672E+03  0.79771369150E+02 0.  0.
          5    1    3    3  501    0  0.47802255750E+02  0.52584333558E+02 -0.87120144146E+02  0.11252634050E+03  0.47000000000E+01 0. -1.
        -13    1    4    4    0    0 -0.64765576928E+01  0.25484536472E+02 -0.17757383805E+02  0.31729041560E+02  0.00000000000E+00 0.  1.
         14    1    4    4    0    0  0.61902666949E+01 -0.70914268042E+02 -0.17900599807E+02  0.73400165444E+02  0.00000000000E+00 0. -1.
         -5    1    5    5    0  502  0.13450608210E+02 -0.56735673686E+02  0.88871876170E+02  0.10639622129E+03  0.47000000000E+01 0.  1.
         11    1    6    6    0    0 -0.30274810664E+02 -0.16426146528E+02  0.40761581426E+02  0.53365615998E+02  0.00000000000E+00 0. -1.
        -12    1    6    6    0    0 -0.30691762298E+02  0.66007218227E+02  0.27730275884E+02  0.77896760726E+02  0.00000000000E+00 0.  1.
</event>
<event>
12    1  0.8421768E-002  0.1743408E+03  0.7818608E-02  0.1173643E+00
         21   -1    0    0  501  502  0.00000000000E+00  0.00000000000E+00  0.11149947553E+03  0.11149947553E+03  0.00000000000E+00 0.  1.
         21   -1    0    0  502  503 -0.00000000000E+00 -0.00000000000E+00 -0.36196579074E+03  0.36196579074E+03  0.00000000000E+00 0.  1.
         -6    2    1    2    0  503  0.20764785227E+02 -0.18293886433E+02 -0.24359825930E+03  0.29898926976E+03  0.17113920915E+03 0.  0.
        -24    2    3    3    0    0  0.39945046825E+02  0.49584190460E+02 -0.15256629694E+03  0.18373206205E+03  0.80167306010E+02 0.  0.
          6    2    1    2  501    0 -0.20764785227E+02  0.18293886433E+02 -0.68680559013E+01  0.17447599651E+03  0.17213035926E+03 0.  0.
         24    2    5    5    0    0 -0.28569935919E+01  0.36431319582E+02  0.56872952649E+02  0.10566711879E+03  0.81213322740E+02 0.  0.
          5    1    5    5  501    0 -0.17907791635E+02 -0.18137433149E+02 -0.63741008551E+02  0.68808877723E+02  0.47000000000E+01 0. -1.
        -11    1    6    6    0    0 -0.11944689841E+02  0.60276129492E+02  0.29228158302E+02  0.68045371919E+02  0.00000000000E+00 0.  1.
         12    1    6    6    0    0  0.90876962492E+01 -0.23844809909E+02  0.27644794348E+02  0.37621746866E+02  0.00000000000E+00 0. -1.
         -5    1    3    3    0  503 -0.19180261598E+02 -0.67878076893E+02 -0.91031962365E+02  0.11525720771E+03  0.47000000000E+01 0.  1.
         11    1    4    4    0    0  0.21298106245E+02  0.22603204402E+02 -0.36774000874E+01  0.31273590300E+02  0.00000000000E+00 0. -1.
        -12    1    4    4    0    0  0.18646940580E+02  0.26980986058E+02 -0.14888889685E+03  0.15245847175E+03  0.00000000000E+00 0.  1.
</event>
<event>
12    1  0.8421768E-002  0.1946170E+03  0.7818608E-02  0.1155205E+00
         21   -1    0    0  501  502  0.00000000000E+00  0.00000000000E+00  0.47469702623E+03  0.47469702623E+03  0.00000000000E+00 0. -1.
         21   -1    0    0  502  503 -0.00000000000E+00 -0.00000000000E+00 -0.77005203690E+03  0.77005203690E+03  0.00000000000E+00 0.  1.
         -6    2    1    2    0  503  0.22657114137E+02  0.81399209696E+02 -0.73743960747E+03  0.76172259601E+03  0.17107005130E+03 0.  0.
        -24    2    3    3    0    0  0.25151337330E+02 -0.34556872289E+00 -0.17690795384E+03  0.19523671387E+03  0.78665374361E+02 0.  0.
          6    2    1    2  501    0 -0.22657114137E+02 -0.81399209696E+02  0.44208459680E+03  0.48302646712E+03  0.17531857018E+03 0.  0.
         24    2    5    5    0    0 -0.35461258523E+02 -0.32043915903E+02  0.41495732661E+03  0.42507933668E+03  0.78857759027E+02 0.  0.
          5    1    5    5  501    0  0.12804144386E+02 -0.49355293794E+02  0.27127270190E+02  0.57947130446E+02  0.47000000000E+01 0. -1.
        -13    1    6    6    0    0 -0.52116466195E+01  0.17361917878E+02  0.25212373283E+02  0.31052555764E+02  0.00000000000E+00 0.  1.
         14    1    6    6    0    0 -0.30249611904E+02 -0.49405833781E+02  0.38974495333E+03  0.39402678091E+03  0.00000000000E+00 0. -1.
         -5    1    3    3    0  503 -0.24942231931E+01  0.81744778419E+02 -0.56053165362E+03  0.56648588214E+03  0.47000000000E+01 0.  1.
         11    1    4    4    0    0 -0.11471148149E+02  0.58363316117E+01  0.15421536414E+01  0.12962570902E+02  0.00000000000E+00 0. -1.
        -12    1    4    4    0    0  0.36622485478E+02 -0.61819003346E+01 -0.17845010748E+03  0.18227414297E+03  0.00000000000E+00 0.  1.
</event>
<event>
12    1  0.8421768E-002  0.1744343E+03  0.7818608E-02  0.1173354E+00
         21   -1    0    0  503  502  0.00000000000E+00  0.00000000000E+00  0.29240416051E+03  0.29240416051E+03  0.00000000000E+00 0.  1.
         21   -1    0    0  501  503 -0.00000000000E+00 -0.00000000000E+00 -0.10865851359E+03  0.10865851359E+03  0.00000000000E+00 0.  1.
          6    2    1    2  501    0 -0.11579010496E+02  0.26260503268E+02  0.13373750984E+03  0.21980228889E+03  0.17205707526E+03 0.  0.
         24    2    3    3    0    0 -0.39790363919E+02 -0.17660429625E+02  0.24198145404E+02  0.98369627844E+02  0.84828471669E+02 0.  0.
         -6    2    1    2    0  502  0.11579010496E+02 -0.26260503268E+02  0.50008137081E+02  0.18126038521E+03  0.17184535477E+03 0.  0.
        -24    2    5    5    0    0  0.40156591275E+02 -0.61984012853E+02  0.74561797777E+02  0.12912767462E+03  0.75232472989E+02 0.  0.
          5    1    3    3  501    0  0.28211353423E+02  0.43920932893E+02  0.10953936443E+03  0.12143266105E+03  0.47000000000E+01 0. -1.
        -11    1    4    4    0    0  0.21113187797E+02  0.14418025113E+02  0.50649057573E+00  0.25571520874E+02  0.00000000000E+00 0.  1.
         12    1    4    4    0    0 -0.60903551716E+02 -0.32078454738E+02  0.23691654828E+02  0.72798106970E+02  0.00000000000E+00 0. -1.
         -5    1    5    5    0  502 -0.28577580779E+02  0.35723509585E+02 -0.24553660696E+02  0.52132710594E+02  0.47000000000E+01 0.  1.
         13    1    6    6    0    0 -0.40792729799E+00 -0.59287966122E+02  0.23303313158E+02  0.63704581748E+02  0.00000000000E+00 0. -1.
        -14    1    6    6    0    0  0.40564518573E+02 -0.26960467307E+01  0.51258484619E+02  0.65423092869E+02  0.00000000000E+00 0.  1.
</event>
<event>
12    1  0.8421768E-002  0.2682305E+03  0.7818608E-02  0.1102430E+00
         21   -1    0    0  501  502  0.00000000000E+00  0.00000000000E+00  0.80772549462E+03  0.80772549462E+03  0.00000000000E+00 0. -1.
         21   -1    0    0  502  503 -0.00000000000E+00 -0.00000000000E+00 -0.98336312469E+02  0.98336312469E+02  0.00000000000E+00 0.  1.
         -6    2    1    2    0  503 -0.10025974481E+03  0.17809820994E+03  0.21282163379E+03  0.34167988854E+03  0.17228206410E+03 0.  0.
        -24    2    3    3    0    0 -0.96807613237E+02  0.44674122023E+02  0.10389824180E+03  0.16934213942E+03  0.80711984090E+02 0.  0.
          6    2    1    2  501    0  0.10025974481E+03 -0.17809820994E+03  0.49656754836E+03  0.56438191855E+03  0.17371422247E+03 0.  0.
         24    2    5    5    0    0  0.67428408532E+01 -0.13451451381E+03  0.36651659466E+03  0.39830877065E+03  0.78586527408E+02 0.  0.
          5    1    5    5  501    0  0.93516903956E+02 -0.43583696122E+02  0.13005095370E+03  0.16607314789E+03  0.47000000000E+01 0. -1.
        -11    1    6    6    0    0  0.24070296011E+02 -0.85090506872E+01  0.96741315569E+02  0.10005331195E+03  0.00000000000E+00 0.  1.
         12    1    6    6    0    0 -0.17327455158E+02 -0.12600546313E+03  0.26977527909E+03  0.29825545871E+03  0.00000000000E+00 0. -1.
         -5    1    3    3    0  503 -0.34521315721E+01  0.13342408791E+03  0.10892339199E+03  0.17233774912E+03  0.47000000000E+01 0.  1.
         13    1    4    4    0    0 -0.45244811971E+02  0.79016471651E+01  0.94826039253E+02  0.10536368805E+03  0.00000000000E+00 0. -1.
        -14    1    4    4    0    0 -0.51562801266E+02  0.36772474858E+02  0.90722025492E+01  0.63978451378E+02  0.00000000000E+00 0.  1.
</event>
<event>
12    1  0.8421768E-002  0.2804923E+03  0.7818608E-02  0.1095772E+00
         21   -1    0    0  501  502  0.00000000000E+00  0.00000000000E+00  0.34823158116E+03  0.34823158116E+03  0.00000000000E+00 0.  1.
         21   -1    0    0  502  503 -0.00000000000E+00 -0.00000000000E+00 -0.22535212664E+03  0.22535212664E+03  0.00000000000E+00 0. -1.
         -6    2    1    2    0  503  0.21675869856E+03 -0.25766271535E+02  0.84437942054E+02  0.29046948075E+03  0.17203057587E+03 0.  0.
        -24    2    3    3    0    0  0.20613691966E+03  0.11148138525E+02  0.28678801981E+02  0.22259704482E+03  0.78168152331E+02 0.  0.
          6    2    1    2  501    0 -0.21675869856E+03  0.25766271535E+02  0.38441512465E+02  0.28311422705E+03  0.17614676134E+03 0.  0.
         24    2    5    5    0    0 -0.17624665949E+03 -0.10210220175E+01  0.88948843883E+02  0.21288698923E+03  0.79655796320E+02 0.  0.
          5    1    5    5  501    0 -0.40512039070E+02  0.26787293552E+02 -0.50507331418E+02  0.70227237825E+02  0.47000000000E+01 0. -1.
        -11    1    6    6    0    0 -0.11288843415E+03  0.34495303980E+02  0.72118913895E+02  0.13832881950E+03  0.00000000000E+00 0.  1.
         12    1    6    6    0    0 -0.63358225341E+02 -0.35516325997E+02  0.16829929988E+02  0.74558169734E+02  0.00000000000E+00 0. -1.
         -5    1    3    3    0  503  0.10621778901E+02 -0.36914410060E+02  0.55759140073E+02  0.67872435928E+02  0.47000000000E+01 0.  1.
         13    1    4    4    0    0  0.20241955905E+03 -0.61578036923E+01  0.22109108901E+02  0.20371649204E+03  0.00000000000E+00 0. -1.
        -14    1    4    4    0    0  0.37173606062E+01  0.17305942217E+02  0.65696930798E+01  0.18880552775E+02  0.00000000000E+00 0.  1.
</event>
<event>
12    1  0.8421768E-002  0.1904610E+03  0.7818608E-02  0.1158178E+00
         21   -1    0    0  503  502  0.00000000000E+00  0.00000000000E+00  0.14251094606E+04  0.14251094606E+04  0.00000000000E+00 0. -1.
         21   -1    0    0  501  503 -0.00000000000E+00 -0.00000000000E+00 -0.41846718978E+02  0.41846718978E+02  0.00000000000E+00 0. -1.
          6    2    1    2  501    0  0.63727655568E+02 -0.48066167455E+02  0.23082684163E+03  0.29888773748E+03  0.17228255357E+03 0.  0.
         24    2    3    3    0    0  0.42076012864E+01 -0.22295794453E+02  0.21706958580E+03  0.23241893973E+03  0.79903392350E+02 0.  0.
         -6    2    1    2    0  502 -0.63727655568E+02  0.48066167455E+02  0.11524359000E+04  0.11680684421E+04  0.17292718491E+03 0.  0.
        -24    2    5    5    0    0  0.11107314240E+02  0.51016144715E+02  0.88883556308E+03  0.89399508934E+03  0.80452110631E+02 0.  0.
          5    1    3    3  501    0  0.59520054281E+02 -0.25770373003E+02  0.13757255827E+02  0.66468797749E+02  0.47000000000E+01 0. -1.
        -13    1    4    4    0    0  0.34247426423E+02  0.12462711172E+02  0.11093915779E+03  0.11677200913E+03  0.00000000000E+00 0.  1.
         14    1    4    4    0    0 -0.30039825136E+02 -0.34758505625E+02  0.10613042801E+03  0.11564693060E+03  0.00000000000E+00 0. -1.
         -5    1    5    5    0  502 -0.74834969807E+02 -0.29499772600E+01  0.26360033692E+03  0.27407335277E+03  0.47000000000E+01 0.  1.
         11    1    6    6    0    0  0.30066915277E+01 -0.16949225596E+02  0.40235012013E+03  0.40271818386E+03  0.00000000000E+00 0. -1.
        -12    1    6    6    0    0  0.81006227118E+01  0.67965370311E+02  0.48648544295E+03  0.49127690548E+03  0.00000000000E+00 0.  1.
</event>
<event>
12    1  0.8421768E-002  0.2619412E+03  0.7818608E-02  0.1106102E+00
         21   -1    0    0  503  502  0.00000000000E+00  0.00000000000E+00  0.27046738662E+03  0.27046738662E+03  0.00000000000E+00 0.  1.
         21   -1    0    0  501  503 -0.00000000000E+00 -0.00000000000E+00 -0.33698844055E+03  0.33698844055E+03  0.00000000000E+00 0. -1.
          6    2    1    2  501    0  0.30332532086E+02  0.19445307564E+03 -0.18493856771E+03  0.31999120995E+03  0.17163927140E+03 0.  0.
         24    2    3    3    0    0 -0.10508145033E+02  0.24943054762E+02 -0.79193564894E+02  0.11601644752E+03  0.80346862306E+02 0.  0.
         -6    2    1    2    0  502 -0.30332532086E+02 -0.19445307564E+03  0.11841751378E+03  0.28746461723E+03  0.17286161361E+03 0.  0.
        -24    2    5    5    0    0 -0.84911507362E+02 -0.12166148936E+03  0.96789364965E+02  0.19383050808E+03  0.78680382658E+02 0.  0.
          5    1    3    3  501    0  0.40840677118E+02  0.16951002088E+03 -0.10574500282E+03  0.20397476242E+03  0.47000000000E+01 0. -1.
        -13    1    4    4    0    0  0.19902730800E+02 -0.20427321303E+02 -0.16828920423E+02  0.33115052643E+02  0.00000000000E+00 0.  1.
         14    1    4    4    0    0 -0.30410875833E+02  0.45370376065E+02 -0.62364644471E+02  0.82901394881E+02  0.00000000000E+00 0. -1.
         -5    1    5    5    0  502  0.54578975276E+02 -0.72791586277E+02  0.21628148813E+02  0.93634109149E+02  0.47000000000E+01 0.  1.
         13    1    6    6    0    0 -0.71731525072E+01 -0.39839954410E+02 -0.63061394085E+01  0.40968811046E+02  0.00000000000E+00 0. -1.
        -14    1    6    6    0    0 -0.77738354855E+02 -0.81821534950E+02  0.10309550437E+03  0.15286169703E+03  0.00000000000E+00 0.  1.
</event>
<event>
12    1  0.8421768E-002  0.1968895E+03  0.7818608E-02  0.1152397E+00
         21   -1    0    0  503  502  0.00000000000E+00  0.00000000000E+00  0.68593372176E+03  0.68593372176E+03  0.00000000000E+00 0. -1.
         21   -1    0    0  501  503 -0.00000000000E+00 -0.00000000000E+00 -0.68623884774E+02  0.68623884774E+02  0.00000000000E+00 0. -1.
          6    2    1    2  501    0 -0.91215678696E+02 -0.25627583598E+02  0.15009226462E+03  0.24754900842E+03  0.17255651418E+03 0.  0.
         24    2    3    3    0    0 -0.65354682801E+02 -0.76847833311E+02  0.63943576037E+02  0.14393437801E+03  0.80321231359E+02 0.  0.
         -6    2    1    2    0  502  0.91215678696E+02  0.25627583598E+02  0.46721757236E+03  0.50700859812E+03  0.17259312142E+03 0.  0.
        -24    2    5    5    0    0 -0.13358746757E+01  0.56949083889E+02  0.29444272214E+03  0.30846372843E+03  0.72169054427E+02 0.  0.
          5    1    3    3  501    0 -0.25860995895E+02  0.51220249714E+02  0.86148688588E+02  0.10361463041E+03  0.47000000000E+01 0. -1.
        -13    1    4    4    0    0 -0.15040276739E+02  0.12433437580E+02 -0.53374945179E+01  0.20230895733E+02  0.00000000000E+00 0.  1.
         14    1    4    4    0    0 -0.50314406062E+02 -0.89281270891E+02  0.69281070555E+02  0.12370348227E+03  0.00000000000E+00 0. -1.
         -5    1    5    5    0  502  0.92551553372E+02 -0.31321500291E+02  0.17277485022E+03  0.19854486969E+03  0.47000000000E+01 0.  1.
         13    1    6    6    0    0  0.20591754052E+02  0.60654506695E+02  0.16266028242E+03  0.17481806828E+03  0.00000000000E+00 0. -1.
        -14    1    6    6    0    0 -0.21927628728E+02 -0.37054228061E+01  0.13178243971E+03  0.13364566015E+03  0.00000000000E+00 0.  1.
</event>
<event>
12    1  0.8421768E-002  0.2232703E+03  0.7818608E-02  0.1132095E+00
         21   -1    0    0  501  502  0.00000000000E+00  0.00000000000E+00  0.40196105962E+04  0.40196105962E+04  0.00000000000E+00 0.  1.
         21   -1    0    0  502  503 -0.00000000000E+00 -0.00000000000E+00 -0.29089369390E+02  0.29089369390E+02  0.00000000000E+00 0. -1.
         -6    2    1    2    0  503 -0.11355574911E+03 -0.83982846275E+02  0.44697214952E+03  0.49812399727E+03  0.16850931008E+03 0.  0.
        -24    2    3    3    0    0 -0.14332894527E+03 -0.91763481680E+02  0.39822861948E+03  0.44028799450E+03  0.79396231651E+02 0.  0.
          6    2    1    2  501    0  0.11355574911E+03  0.83982846275E+02  0.35435490773E+04  0.35505759683E+04  0.17292084031E+03 0.  0.
         24    2    5    5    0    0  0.54629805645E+02  0.52977786564E+02  0.31025580561E+04  0.31045616733E+04  0.81520737605E+02 0.  0.
          5    1    5    5  501    0  0.58925943470E+02  0.31005059711E+02  0.44099102117E+03  0.44601429495E+03  0.47000000000E+01 0. -1.
        -11    1    6    6    0    0 -0.20067770798E+02  0.53134415101E+00  0.62924554102E+03  0.62956568255E+03  0.00000000000E+00 0.  1.
         12    1    6    6    0    0  0.74697576443E+02  0.52446442413E+02  0.24733125151E+04  0.24749959908E+04  0.00000000000E+00 0. -1.
         -5    1    3    3    0  503  0.29773196153E+02  0.77806354049E+01  0.48743530036E+02  0.57836002774E+02  0.47000000000E+01 0.  1.
         11    1    4    4    0    0 -0.13050479631E+03 -0.67389197850E+02  0.25362103575E+03  0.29308093698E+03  0.00000000000E+00 0. -1.
        -12    1    4    4    0    0 -0.12824148955E+02 -0.24374283829E+02  0.14460758374E+03  0.14720705752E+03  0.00000000000E+00 0.  1.
</event>
<event>
12    1  0.8421768E-002  0.1795243E+03  0.7818608E-02  0.1168430E+00
         21   -1    0    0  503  502  0.00000000000E+00  0.00000000000E+00  0.71065850319E+02  0.71065850319E+02  0.00000000000E+00 0. -1.
         21   -1    0    0  501  503 -0.00000000000E+00 -0.00000000000E+00 -0.78104195327E+03  0.78104195327E+03  0.00000000000E+00 0.  1.
          6    2    1    2  501    0  0.14078011950E+02 -0.48636044834E+02 -0.63200680082E+03  0.65700957692E+03  0.17223626970E+03 0.  0.
         24    2    3    3    0    0 -0.49128324125E+01 -0.17168846394E+02 -0.60745624419E+03  0.61256121837E+03  0.76871662073E+02 0.  0.
         -6    2    1    2    0  502 -0.14078011950E+02  0.48636044834E+02 -0.77969302126E+02  0.19509822667E+03  0.17152390707E+03 0.  0.
        -24    2    5    5    0    0  0.46520784060E+02  0.71293817296E+02 -0.37078895889E+02  0.11841899836E+03  0.73493012724E+02 0.  0.
          5    1    3    3  501    0  0.18990844363E+02 -0.31467198440E+02 -0.24550556630E+02  0.44448358554E+02  0.47000000000E+01 0. -1.
        -11    1    4    4    0    0  0.15764066372E+02 -0.32864488545E+02 -0.14985321790E+03  0.15422246046E+03  0.00000000000E+00 0.  1.
         12    1    4    4    0    0 -0.20676898784E+02  0.15695642151E+02 -0.45760302630E+03  0.45833875791E+03  0.00000000000E+00 0. -1.
         -5    1    5    5    0  502 -0.60598796010E+02 -0.22657772462E+02 -0.40890406237E+02  0.76679228302E+02  0.47000000000E+01 0.  1.
         13    1    6    6    0    0 -0.16865780612E+02  0.30210905237E+02 -0.23094963939E+02  0.41599647959E+02  0.00000000000E+00 0. -1.
        -14    1    6    6    0    0  0.63386564672E+02  0.41082912058E+02 -0.13983931949E+02  0.76819350406E+02  0.00000000000E+00 0.  1.
</event>
<event>
12    1  0.8421768E-002  0.1747935E+03  0.7818608E-02  0.1173164E+00
         21   -1    0    0  501  502  0.00000000000E+00  0.00000000000E+00  0.54485038601E+02  0.54485038601E+02  0.00000000000E+00 0. -1.
         21   -1    0    0  502  503 -0.00000000000E+00 -0.00000000000E+00 -0.55884615988E+03  0.55884615988E+03  0.00000000000E+00 0. -1.
         -6    2    1    2    0  503 -0.19807915810E+02  0.20462365497E+02 -0.26546430813E+03  0.31784284312E+03  0.17245785601E+03 0.  0.
        -24    2    3    3    0    0 -0.14699545909E+02  0.64163631639E+02 -0.90505194517E+02  0.13737490264E+03  0.79671986073E+02 0.  0.
          6    2    1    2  501    0  0.19807915810E+02 -0.20462365497E+02 -0.23889681315E+03  0.29548835536E+03  0.17155354526E+03 0.  0.
         24    2    5    5    0    0  0.77279975090E+02  0.74198068110E+01 -0.15708503216E+03  0.19158594615E+03  0.77473991458E+02 0.  0.
          5    1    5    5  501    0 -0.57472059280E+02 -0.27882172308E+02 -0.81811780992E+02  0.10390240921E+03  0.47000000000E+01 0. -1.
        -11    1    6    6    0    0 -0.13342197481E+01 -0.14642189878E+02 -0.72672508534E+02  0.74144907873E+02  0.00000000000E+00 0.  1.
         12    1    6    6    0    0  0.78614194838E+02  0.22061996689E+02 -0.84412523621E+02  0.11744103828E+03  0.00000000000E+00 0. -1.
         -5    1    3    3    0  503 -0.51083699010E+01 -0.43701266143E+02 -0.17495911362E+03  0.18046794049E+03  0.47000000000E+01 0.  1.
         11    1    4    4    0    0 -0.10043881602E+02 -0.43294255819E+01 -0.62139076298E+02  0.63094280935E+02  0.00000000000E+00 0. -1.
        -12    1    4    4    0    0 -0.46556643077E+01  0.68493057221E+02 -0.28366118219E+02  0.74280621702E+02  0.00000000000E+00 0.  1.
</event>
<event>
12    1  0.8421768E-002  0.1831032E+03  0.7818608E-02  0.1165075E+00
         21   -1    0    0  503  502  0.00000000000E+00  0.00000000000E+00  0.38474333482E+03  0.38474333482E+03  0.00000000000E+00 0. -1.
         21   -1    0    0  501  503 -0.00000000000E+00 -0.00000000000E+00 -0.13515890877E+03  0.13515890877E+03  0.00000000000E+00 0. -1.
          6    2    1    2  501    0  0.45542715099E+02 -0.35361586973E+02 -0.31153919670E+02  0.18472943959E+03  0.17271311012E+03 0.  0.
         24    2    3    3    0    0  0.57851826523E+02 -0.68891524994E+02  0.20488109445E+02  0.12176309827E+03  0.79458249561E+02 0.  0.
         -6    2    1    2    0  502 -0.45542715099E+02  0.35361586973E+02  0.28073834572E+03  0.33517280401E+03  0.17378782771E+03 0.  0.
        -24    2    5    5    0    0 -0.14163670873E+01  0.65144155727E+02  0.25607401517E+03  0.27631233177E+03  0.80801214862E+02 0.  0.
          5    1    3    3  501    0 -0.12309111424E+02  0.33529938021E+02 -0.51642029115E+02  0.62966341317E+02  0.47000000000E+01 0. -1.
        -11    1    4    4    0    0  0.20986004206E+02 -0.38323259561E+01 -0.26061876701E+02  0.33679675057E+02  0.00000000000E+00 0.  1.
         12    1    4    4    0    0  0.36865822317E+02 -0.65059199038E+02  0.46549986145E+02  0.88083423212E+02  0.00000000000E+00 0. -1.
         -5    1    5    5    0  502 -0.44126348012E+02 -0.29782568754E+02  0.24664330544E+02  0.58860472234E+02  0.47000000000E+01 0.  1.
         13    1    6    6    0    0 -0.40656016854E+02  0.34171193383E+02  0.11583693244E+03  0.12743146033E+03  0.00000000000E+00 0. -1.
        -14    1    6    6    0    0  0.39239649766E+02  0.30972962344E+02  0.14023708273E+03  0.14888087145E+03  0.00000000000E+00 0.  1.
</event>
<event>
12    1  0.8421768E-002  0.2582062E+03  0.7818608E-02  0.1108593E+00
         21   -1    0    0  503  502  0.00000000000E+00  0.00000000000E+00  0.10006284315E+03  0.10006284315E+03  0.00000000000E+00 0.  1.
         21   -1    0    0  501  503 -0.00000000000E+00 -0.00000000000E+00 -0.66824574297E+03  0.66824574297E+03  0.00000000000E+00 0. -1.
          6    2    1    2  501    0 -0.77516179719E+02  0.17348744318E+03 -0.32523119763E+03  0.41377231296E+03  0.17124702627E+03 0.  0.
         24    2    3    3    0    0 -0.64302363912E+02  0.20028451968E+03 -0.27496421013E+03  0.35510760237E+03  0.79040556547E+02 0.  0.
         -6    2    1    2    0  502  0.77516179719E+02 -0.17348744318E+03 -0.24295170219E+03  0.35453627315E+03  0.17482502202E+03 0.  0.
        -24    2    5    5    0    0  0.93263561789E+02 -0.10353328318E+03 -0.86569968810E+02  0.18243484643E+03  0.79817798831E+02 0.  0.
          5    1    3    3  501    0 -0.13213815807E+02 -0.26797076502E+02 -0.50266987498E+02  0.58664710596E+02  0.47000000000E+01 0. -1.
        -13    1    4    4    0    0 -0.55585653540E+01  0.10790989704E+03 -0.92090456381E+02  0.14197216518E+03  0.00000000000E+00 0.  1.
         14    1    4    4    0    0 -0.58743798558E+02  0.92374622635E+02 -0.18287375375E+03  0.21313543719E+03  0.00000000000E+00 0. -1.
         -5    1    5    5    0  502 -0.15747382070E+02 -0.69954159999E+02 -0.15638173338E+03  0.17210142672E+03  0.47000000000E+01 0.  1.
         11    1    6    6    0    0  0.60660371787E+02 -0.63735769491E+02 -0.95899576599E+02  0.13014859895E+03  0.00000000000E+00 0. -1.
        -12    1    6    6    0    0  0.32603190002E+02 -0.39797513687E+02  0.93296077886E+01  0.52286247479E+02  0.00000000000E+00 0.  1.
</event>
<event>
12    1  0.8421768E-002  0.2159005E+03  0.7818608E-02  0.1137655E+00
         21   -1    0    0  501  502  0.00000000000E+00  0.00000000000E+00  0.24689921066E+04  0.24689921066E+04  0.00000000000E+00 0.  1.
         21   -1    0    0  502  503 -0.00000000000E+00 -0.00000000000E+00 -0.18577501748E+02  0.18577501748E+02  0.00000000000E+00 0.  1.
         -6    2    1    2    0  503 -0.65471233884E+02  0.10588824588E+03  0.11952877557E+04  0.12140090674E+04  0.17206508531E+03 0.  0.
        -24    2    3    3    0    0 -0.71731359826E+01  0.20102637681E+02  0.22582819833E+03  0.23900559958E+03  0.75297619773E+02 0.  0.
          6    2    1    2  501    0  0.65471233884E+02 -0.10588824588E+03  0.12551268491E+04  0.12735605409E+04  0.17639229308E+03 0.  0.
         24    2    5    5    0    0  0.49754956083E+02 -0.43708838403E+02  0.32031978571E+03  0.33654420392E+03  0.79191021369E+02 0.  0.
          5    1    5    5  501    0  0.15716277801E+02 -0.62179407477E+02  0.93480706336E+03  0.93701633700E+03  0.47000000000E+01 0. -1.
        -13    1    6    6    0    0 -0.18919200104E+01 -0.50511483058E+02  0.13975125548E+03  0.14861158330E+03  0.00000000000E+00 0.  1.
         14    1    6    6    0    0  0.51646876093E+02  0.68026446550E+01  0.18056853024E+03  0.18793262063E+03  0.00000000000E+00 0. -1.
         -5    1    3    3    0  503 -0.58298097901E+02  0.85785608199E+02  0.96945955740E+03  0.97500346781E+03  0.47000000000E+01 0.  1.
         13    1    4    4    0    0 -0.18905103427E+02 -0.62437779372E-01  0.20991725928E+03  0.21076684411E+03  0.00000000000E+00 0. -1.
        -14    1    4    4    0    0  0.11731967445E+02  0.20165075460E+02  0.15910939057E+02  0.28238755464E+02  0.00000000000E+00 0.  1.
</event>
<event>
12    1  0.8421768E-002  0.1997696E+03  0.7818608E-02  0.1149967E+00
         21   -1    0    0  503  502  0.00000000000E+00  0.00000000000E+00  0.82416372296E+03  0.82416372296E+03  0.00000000000E+00 0. -1.
         21   -1    0    0  501  503 -0.00000000000E+00 -0.00000000000E+00 -0.49620664128E+02  0.49620664128E+02  0.00000000000E+00 0.  1.
          6    2    1    2  501    0  0.33321242030E+02 -0.95633159683E+02  0.31843657462E+03  0.37591188956E+03  0.17219724230E+03 0.  0.
         24    2    3    3    0    0 -0.45474860091E+02 -0.72998269829E+02  0.16844082025E+03  0.20490902328E+03  0.78858655805E+02 0.  0.
         -6    2    1    2    0  502 -0.33321242030E+02  0.95633159683E+02  0.45610648421E+03  0.49787249752E+03  0.17201131490E+03 0.  0.
        -24    2    5    5    0    0 -0.41818396390E+02 -0.12701803531E+02  0.21943421004E+03  0.23740268882E+03  0.79363404874E+02 0.  0.
          5    1    3    3  501    0  0.78796102121E+02 -0.22634889854E+02  0.14999575437E+03  0.17100286628E+03  0.47000000000E+01 0. -1.
        -11    1    4    4    0    0 -0.16380812698E+02 -0.69109742132E+02  0.61299288859E+02  0.93819455854E+02  0.00000000000E+00 0.  1.
         12    1    4    4    0    0 -0.29094047393E+02 -0.38885276975E+01  0.10714153139E+03  0.11108956742E+03  0.00000000000E+00 0. -1.
         -5    1    5    5    0  502  0.84971543597E+01  0.10833496321E+03  0.23667227417E+03  0.26046980870E+03  0.47000000000E+01 0.  1.
         13    1    6    6    0    0 -0.36652287417E+02 -0.14126236940E+02  0.22573733899E+03  0.22912941094E+03  0.00000000000E+00 0. -1.
        -14    1    6    6    0    0 -0.51661089731E+01  0.14244334088E+01 -0.63031289453E+01  0.82732778848E+01  0.00000000000E+00 0.  1.
</event>
<event>
12    1  0.8421768E-002  0.2228918E+03  0.7818608E-02  0.1132016E+00
         21   -1    0    0  501  502  0.00000000000E+00  0.00000000000E+00  0.15250808345E+03  0.15250808345E+03  0.00000000000E+00 0.  1.
         21   -1    0    0  502  503 -0.00000000000E+00 -0.00000000000E+00 -0.87814094629E+03  0.87814094629E+03  0.00000000000E+00 0.  1.
         -6    2    1    2    0  503 -0.14138856933E+03  0.14218865115E+02 -0.77187963256E+03  0.80301005835E+03  0.16980601576E+03 0.  0.
        -24    2    3    3    0    0 -0.83887909779E+02 -0.22230229659E+02 -0.67706949400E+03  0.68619432853E+03  0.70058491924E+02 0.  0.
          6    2    1    2  501    0  0.14138856933E+03 -0.14218865115E+02  0.46246769722E+02  0.22763897138E+03  0.17172021989E+03 0.  0.
         24    2    5    5    0    0  0.14302584730E+03  0.35756241856E+02  0.16748507947E+02  0.16939440559E+03  0.81725456870E+02 0.  0.
          5    1    5    5  501    0 -0.16372779641E+01 -0.49975106972E+02  0.29498261775E+02  0.58244565787E+02  0.47000000000E+01 0. -1.
        -11    1    6    6    0    0  0.10559756437E+03  0.31514619716E+02  0.48240752327E+02  0.12029624699E+03  0.00000000000E+00 0.  1.
         12    1    6    6    0    0  0.37428282930E+02  0.42416221403E+01 -0.31492244380E+02  0.49098158597E+02  0.00000000000E+00 0. -1.
         -5    1    3    3    0  503 -0.57500659552E+02  0.36449094775E+02 -0.94810138567E+02  0.11681572982E+03  0.47000000000E+01 0.  1.
         13    1    4    4    0    0 -0.15070968399E+02 -0.13267121342E+02 -0.34726455550E+02  0.40113305925E+02  0.00000000000E+00 0. -1.
        -14    1    4    4    0    0 -0.68816941381E+02 -0.89631083173E+01 -0.64234303845E+03  0.64608102261E+03  0.00000000000E+00 0.  1.
</event>
<event>
12    1  0.8421768E-002  0.2646553E+03  0.7818608E-02  0.1104454E+00
         21   -1    0    0  503  502  0.00000000000E+00  0.00000000000E+00  0.83633108294E+02  0.83633108294E+02  0.00000000000E+00 0.  1.
         21   -1    0    0  501  503 -0.00000000000E+00 -0.00000000000E+00 -0.88485863444E+03  0.88485863444E+03  0.00000000000E+00 0.  1.
          6    2    1    2  501    0  0.34048912998E+02  0.19778417188E+03 -0.28629973174E+03  0.38953490020E+03  0.17173233522E+03 0.  0.
         24    2    3    3    0    0  0.41907871394E+02  0.10152223755E+03 -0.25299259222E+03  0.28726281814E+03  0.80322105070E+02 0.  0.
         -6    2    1    2    0  502 -0.34048912998E+02 -0.19778417188E+03 -0.51492579441E+03  0.57895684253E+03  0.17252404077E+03 0.  0.
        -24    2    5    5    0    0  0.47350215288E+02 -0.92723497238E+02 -0.23230461871E+03  0.26661026837E+03  0.79220638061E+02 0.  0.
          5    1    3    3  501    0 -0.78589583955E+01  0.96261934327E+02 -0.33307139520E+02  0.10227208207E+03  0.47000000000E+01 0. -1.
        -13    1    4    4    0    0 -0.12960580182E+02  0.46956847577E+02 -0.49031357757E+02  0.69115817412E+02  0.00000000000E+00 0.  1.
         14    1    4    4    0    0  0.54868451575E+02  0.54565389978E+02 -0.20396123446E+03  0.21814700072E+03  0.00000000000E+00 0. -1.
         -5    1    5    5    0  502 -0.81399128287E+02 -0.10506067464E+03 -0.28262117569E+03  0.31234657416E+03  0.47000000000E+01 0.  1.
         11    1    6    6    0    0 -0.17004939668E+01  0.12535406592E+02 -0.40103820138E+02  0.42051688287E+02  0.00000000000E+00 0. -1.
        -12    1    6    6    0    0  0.49050709255E+02 -0.10525890383E+03 -0.19220079858E+03  0.22455858008E+03  0.00000000000E+00 0.  1.
</event>
<event>
12    1  0.8421768E-002  0.2243533E+03  0.7818608E-02  0.1131176E+00
         21   -1    0    0  503  502  0.00000000000E+00  0.00000000000E+00  0.14780273079E+03  0.14780273079E+03  0.00000000000E+00 0.  1.
         21   -1    0    0  501  503 -0.00000000000E+00 -0.00000000000E+00 -0.36552956056E+03  0.36552956056E+03  0.00000000000E+00 0.  1.
          6    2    1    2  501    0 -0.75528170891E+02  0.12345016990E+03 -0.18066653386E+03  0.28593864725E+03  0.16785727415E+03 0.  0.
         24    2    3    3    0    0 -0.39341337782E+02  0.15014917058E+03 -0.16787748186E+03  0.23894957002E+03  0.69437265305E+02 0.  0.
         -6    2    1    2    0  502  0.75528170891E+02 -0.12345016990E+03 -0.37060295911E+02  0.22739364410E+03  0.17143498709E+03 0.  0.
        -24    2    5    5    0    0 -0.25060442929E+01 -0.11915799033E+03 -0.30546676457E+02  0.14882979247E+03  0.83739481528E+02 0.  0.
          5    1    3    3  501    0 -0.36186833110E+02 -0.26699000681E+02 -0.12789052004E+02  0.46989077231E+02  0.47000000000E+01 0. -1.
        -13    1    4    4    0    0 -0.44704844176E+02  0.72487094938E+02 -0.12136867505E+03  0.14826751940E+03  0.00000000000E+00 0.  1.
         14    1    4    4    0    0  0.53635063943E+01  0.77662075639E+02 -0.46508806804E+02  0.90682050615E+02  0.00000000000E+00 0. -1.
         -5    1    5    5    0  502  0.78034215184E+02 -0.42921795667E+01 -0.65136194547E+01  0.78563851632E+02  0.47000000000E+01 0.  1.
         13    1    6    6    0    0 -0.35316684415E+02 -0.21563597103E+02 -0.17931789690E+02  0.45097738298E+02  0.00000000000E+00 0. -1.
        -14    1    6    6    0    0  0.32810640122E+02 -0.97594393226E+02 -0.12614886766E+02  0.10373205417E+03  0.00000000000E+00 0.  1.
</event>
<event>
12    1  0.8421768E-002  0.3583763E+03  0.7818608E-02  0.1059296E+00
         21   -1    0    0  501  502  0.00000000000E+00  0.00000000000E+00  0.22415971447E+03  0.22415971447E+03  0.00000000000E+00 0.  1.
         21   -1    0    0  502  503 -0.00000000000E+00 -0.00000000000E+00 -0.97085935806E+03  0.97085935806E+03  0.00000000000E+00 0. -1.
         -6    2    1    2    0  503  0.18176589244E+03 -0.25616146217E+03 -0.75618079508E+03  0.83651742738E+03  0.17115629435E+03 0.  0.
        -24    2    3    3    0    0  0.14263094737E+03 -0.27024462148E+03 -0.67335899008E+03  0.74371968664E+03  0.79566954129E+02 0.  0.
          6    2    1    2  501    0 -0.18176589244E+03  0.25616146217E+03  0.94811514963E+01  0.35850164516E+03  0.17255724555E+03 0.  0.
         24    2    5    5    0    0 -0.10807746960E+03  0.22426839893E+03 -0.38689198518E+02  0.26474865180E+03  0.81350724365E+02 0.  0.
          5    1    5    5  501    0 -0.73688422835E+02  0.31893063244E+02  0.48170350015E+02  0.93752993358E+02  0.47000000000E+01 0. -1.
        -13    1    6    6    0    0 -0.44827103182E+02  0.14116113163E+03  0.12126875179E+02  0.14860348369E+03  0.00000000000E+00 0.  1.
         14    1    6    6    0    0 -0.63250366419E+02  0.83107267302E+02 -0.50816073697E+02  0.11614516812E+03  0.00000000000E+00 0. -1.
         -5    1    3    3    0  503  0.39134945066E+02  0.14083159309E+02 -0.82821805008E+02  0.92797740739E+02  0.47000000000E+01 0.  1.
         11    1    4    4    0    0  0.74332131190E+02 -0.98225543642E+02 -0.35125301492E+03  0.37222601150E+03  0.00000000000E+00 0. -1.
        -12    1    4    4    0    0  0.68298816180E+02 -0.17201907784E+03 -0.32210597516E+03  0.37149367514E+03  0.00000000000E+00 0.  1.
</event>
<event>
12    1  0.8421768E-002  0.2187871E+03  0.7818608E-02  0.1134841E+00
         21   -1    0    0  503  502  0.00000000000E+00  0.00000000000E+00  0.15731411441E+04  0.15731411441E+04  0.00000000000E+00 0. -1.
         21   -1    0    0  501  503 -0.00000000000E+00 -0.00000000000E+00 -0.17312341857E+03  0.17312341857E+03  0.00000000000E+00 0. -1.
          6    2    1    2  501    0 -0.45305364871E+02  0.12589610550E+03 -0.92866708978E+02  0.23743332060E+03  0.17276559446E+03 0.  0.
         24    2    3    3    0    0 -0.71264249496E+02  0.20555523390E+02 -0.25987459829E+02  0.10989734177E+03  0.76817672845E+02 0.  0.
         -6    2    1    2    0  502  0.45305364871E+02 -0.12589610550E+03  0.14928844345E+04  0.15088312420E+04  0.17310510323E+03 0.  0.
        -24    2    5    5    0    0  0.14370278712E+02 -0.15298383750E+03  0.12886823701E+04  0.13004774615E+04  0.83239517819E+02 0.  0.
          5    1    3    3  501    0  0.25958884626E+02  0.10534058211E+03 -0.66879249150E+02  0.12753597883E+03  0.47000000000E+01 0. -1.
        -13    1    4    4    0    0 -0.26692520268E+02 -0.24137425252E+02  0.98529117617E+01  0.37312006194E+02  0.00000000000E+00 0.  1.
         14    1    4    4    0    0 -0.44571729228E+02  0.44692948642E+02 -0.35840371590E+02  0.72585335574E+02  0.00000000000E+00 0. -1.
         -5    1    5    5    0  502  0.30935086158E+02  0.27087732002E+02  0.20420206436E+03  0.20835378055E+03  0.47000000000E+01 0.  1.
         11    1    6    6    0    0 -0.21090960504E+01 -0.50091657481E+02  0.75830305738E+03  0.75995864970E+03  0.00000000000E+00 0. -1.
        -12    1    6    6    0    0  0.16479374763E+02 -0.10289218002E+03  0.53037931273E+03  0.54051881177E+03  0.00000000000E+00 0.  1.
</event>
<event>
12    1  0.8421768E-002  0.2205646E+03  0.7818608E-02  0.1135042E+00
         21   -1    0    0  501  502  0.00000000000E+00  0.00000000000E+00  0.27842745123E+03  0.27842745123E+03  0.00000000000E+00 0. -1.
         21   -1    0    0  502  503 -0.00000000000E+00 -0.00000000000E+00 -0.30747139478E+03  0.30747139478E+03  0.00000000000E+00 0.  1.
         -6    2    1    2    0  503  0.18196700085E+02  0.12389061006E+03 -0.21182208324E+03  0.30580606664E+03  0.18157299439E+03 0.  0.
        -24    2    3    3    0    0 -0.61496594663E+02  0.63218895206E+02 -0.12861379440E+03  0.17550722727E+03  0.80515953988E+02 0.  0.
          6    2    1    2  501    0 -0.18196700085E+02 -0.12389061006E+03  0.18277813969E+03  0.28009277937E+03  0.17135960304E+03 0.  0.
         24    2    5    5    0    0 -0.10636132816E+02 -0.10091264877E+03  0.20818983026E+03  0.24469513962E+03  0.78969715235E+02 0.  0.
          5    1    5    5  501    0 -0.75605672695E+01 -0.22977961291E+02 -0.25411690574E+02  0.35397639757E+02  0.47000000000E+01 0. -1.
        -11    1    6    6    0    0 -0.19899004961E+02 -0.83853369824E+01  0.64193897457E+01  0.22527601724E+02  0.00000000000E+00 0.  1.
         12    1    6    6    0    0  0.92628721446E+01 -0.92527311789E+02  0.20177044052E+03  0.22216753789E+03  0.00000000000E+00 0. -1.
         -5    1    3    3    0  503  0.79693294748E+02  0.60671714856E+02 -0.83208288836E+02  0.13029883937E+03  0.47000000000E+01 0.  1.
         11    1    4    4    0    0 -0.18547970850E+02 -0.27357640032E+01 -0.81822202137E+02  0.83942744713E+02  0.00000000000E+00 0. -1.
        -12    1    4    4    0    0 -0.42948623813E+02  0.65954659209E+02 -0.46791592262E+02  0.91564482553E+02  0.00000000000E+00 0.  1.
</event>
<event>
12    1  0.8421768E-002  0.2089679E+03  0.7818608E-02  0.1142434E+00
         21   -1    0    0  503  502  0.00000000000E+00  0.00000000000E+00  0.56231443797E+02  0.56231443797E+02  0.00000000000E+00 0. -1.
         21   -1    0    0  501  503 -0.00000000000E+00 -0.00000000000E+00 -0.77974038599E+03  0.77974038599E+03  0.00000000000E+00 0. -1.
          6    2    1    2  501    0 -0.11543281715E+03 -0.26651658678E+02 -0.33177436253E+03  0.39209925713E+03  0.17214108641E+03 0.  0.
         24    2    3    3    0    0 -0.70257868043E+02  0.45800957451E+02 -0.23997190785E+03  0.26664034635E+03  0.80477711315E+02 0.  0.
         -6    2    1    2    0  502  0.11543281715E+03  0.26651658678E+02 -0.39173457967E+03  0.44387257266E+03  0.17184828677E+03 0.  0.
        -24    2    5    5    0    0  0.59960105734E+02  0.78140633080E+02 -0.19094748186E+03  0.22924292688E+03  0.79938763324E+02 0.  0.
          5    1    3    3  501    0 -0.45174949103E+02 -0.72452616130E+02 -0.91802454676E+02  0.12545891078E+03  0.47000000000E+01 0. -1.
        -11    1    4    4    0    0  0.11491004859E+01 -0.14689789737E+02 -0.79663607776E+02  0.81014818141E+02  0.00000000000E+00 0.  1.
         12    1    4    4    0    0 -0.71406968529E+02  0.60490747189E+02 -0.16030830007E+03  0.18562552821E+03  0.00000000000E+00 0. -1.
         -5    1    5    5    0  502  0.55472711412E+02 -0.51488974401E+02 -0.20078709781E+03  0.21462964577E+03  0.47000000000E+01 0.  1.
         11    1    6    6    0    0  0.10204802025E+02 -0.36859820876E+00  0.57292991306E+01  0.11708916156E+02  0.00000000000E+00 0. -1.
        -12    1    6    6    0    0  0.49755303709E+02  0.78509231288E+02 -0.19667678099E+03  0.21753401073E+03  0.00000000000E+00 0.  1.
</event>
<event>
12    1  0.8421768E-002  0.2930132E+03  0.7818608E-02  0.1089152E+00
         21   -1    0    0  501  502  0.00000000000E+00  0.00000000000E+00  0.71347264306E+02  0.71347264306E+02  0.00000000000E+00 0.  1.
         21   -1    0    0  502  503 -0.00000000000E+00 -0.00000000000E+00 -0.18351657912E+04  0.18351657912E+04  0.00000000000E+00 0.  1.
         -6    2    1    2    0  503  0.14238399136E+03  0.19180929293E+03 -0.14491024109E+04  0.14784297611E+04  0.16968428101E+03 0.  0.
        -24    2    3    3    0    0  0.67637273494E+02  0.11122757034E+03 -0.49494147887E+03  0.51794776743E+03  0.79727342305E+02 0.  0.
          6    2    1    2  501    0 -0.14238399136E+03 -0.19180929293E+03 -0.31471611598E+03  0.42808329444E+03  0.16475760218E+03 0.  0.
         24    2    5    5    0    0 -0.95873156243E+02 -0.94819801774E+02 -0.90190278729E+02  0.17907694760E+03  0.75840687546E+02 0.  0.
          5    1    5    5  501    0 -0.46510835121E+02 -0.96989491152E+02 -0.22452583725E+03  0.24900634685E+03  0.47000000000E+01 0. -1.
        -11    1    6    6    0    0 -0.57602249652E+02 -0.99068074223E+02 -0.78241625373E+02  0.13875970033E+03  0.00000000000E+00 0.  1.
         12    1    6    6    0    0 -0.38270906591E+02  0.42482724493E+01 -0.11948653356E+02  0.40317247266E+02  0.00000000000E+00 0. -1.
         -5    1    3    3    0  503  0.74746717870E+02  0.80581722585E+02 -0.95416093208E+03  0.96048199366E+03  0.47000000000E+01 0.  1.
         13    1    4    4    0    0 -0.88066617460E+01 -0.62183451513E+01 -0.19463942805E+02  0.22250172517E+02  0.00000000000E+00 0. -1.
        -14    1    4    4    0    0  0.76443935240E+02  0.11744591549E+03 -0.47547753607E+03  0.49569759492E+03  0.00000000000E+00 0.  1.
</event>
<event>
12    1  0.8421768E-002  0.2069788E+03  0.7818608E-02  0.1145579E+00
         21   -1    0    0  501  502  0.00000000000E+00  0.00000000000E+00  0.20178135741E+03  0.20178135741E+03  0.00000000000E+00 0.  1.
         21   -1    0    0  502  503 -0.00000000000E+00 -0.00000000000E+00 -0.22989536226E+03  0.22989536226E+03  0.00000000000E+00 0. -1.
         -6    2    1    2    0  503  0.85497334560E+02  0.46835445253E+02 -0.86125208232E+02  0.22418250042E+03  0.18258392277E+03 0.  0.
        -24    2    3    3    0    0  0.11028347161E+03 -0.30882095874E+00 -0.18107363798E+02  0.13766399611E+03  0.80380095299E+02 0.  0.
          6    2    1    2  501    0 -0.85497334560E+02 -0.46835445253E+02  0.58011203385E+02  0.20749421924E+03  0.17373887922E+03 0.  0.
         24    2    5    5    0    0 -0.16626703382E+02  0.36272221084E+02  0.38556312635E+02  0.97718853985E+02  0.80437950573E+02 0.  0.
          5    1    5    5  501    0 -0.68870631178E+02 -0.83107666337E+02  0.19454890750E+02  0.10977536525E+03  0.47000000000E+01 0. -1.
        -11    1    6    6    0    0 -0.49236561870E+02  0.19889604698E+02  0.25998418931E+02  0.59124894813E+02  0.00000000000E+00 0.  1.
         12    1    6    6    0    0  0.32609858488E+02  0.16382616386E+02  0.12557893704E+02  0.38593959172E+02  0.00000000000E+00 0. -1.
         -5    1    3    3    0  503 -0.24786137055E+02  0.47144266211E+02 -0.68017844434E+02  0.86518504311E+02  0.47000000000E+01 0.  1.
         13    1    4    4    0    0  0.10893250575E+03 -0.11379317733E+02 -0.37100674341E+02  0.11563840071E+03  0.00000000000E+00 0. -1.
        -14    1    4    4    0    0  0.13509658622E+01  0.11070496775E+02  0.18993310543E+02  0.22025595406E+02  0.00000000000E+00 0.  1.
</event>
<event>
12    1  0.8421768E-002  0.1948420E+03  0.7818608E-02  0.1154437E+00
         21   -1    0    0  503  502  0.00000000000E+00  0.00000000000E+00  0.45316206032E+03  0.45316206032E+03  0.00000000000E+00 0.  1.
         21   -1    0    0  501  503 -0.00000000000E+00 -0.00000000000E+00 -0.23687573674E+03  0.23687573674E+03  0.00000000000E+00 0.  1.
          6    2    1    2  501    0  0.59229416389E+01  0.89737434347E+02 -0.16983696913E+03  0.25753971644E+03  0.17144742954E+03 0.  0.
         24    2    3    3    0    0  0.33857779658E+02  0.96212191350E+02 -0.58237481020E+02  0.14221923517E+03  0.80197080047E+02 0.  0.
         -6    2    1    2    0  502 -0.59229416389E+01 -0.89737434347E+02  0.38612329271E+03  0.43249808063E+03  0.17284531875E+03 0.  0.
        -24    2    5    5    0    0  0.62801853325E+02 -0.41205044948E+02  0.24296611584E+03  0.26638198402E+03  0.79277357758E+02 0.  0.
          5    1    3    3  501    0 -0.27934838019E+02 -0.64747570034E+01 -0.11159948811E+03  0.11532048127E+03  0.47000000000E+01 0. -1.
        -11    1    4    4    0    0  0.11406662676E+02  0.93529976608E+02 -0.69381093104E+02  0.11701155737E+03  0.00000000000E+00 0.  1.
         12    1    4    4    0    0  0.22451116982E+02  0.26822147427E+01  0.11143612085E+02  0.25207677798E+02  0.00000000000E+00 0. -1.
         -5    1    5    5    0  502 -0.68724794963E+02 -0.48532389399E+02  0.14315717687E+03  0.16611609661E+03  0.47000000000E+01 0.  1.
         13    1    6    6    0    0  0.21694501673E+02 -0.65062284238E+01  0.18840409727E+03  0.18976060255E+03  0.00000000000E+00 0. -1.
        -14    1    6    6    0    0  0.41107351652E+02 -0.34698816524E+02  0.54562018569E+02  0.76621381470E+02  0.00000000000E+00 0.  1.
</event>
<event>
12    1  0.8421768E-002  0.1779013E+03  0.7818608E-02  0.1170295E+00
         21   -1    0    0  503  502  0.00000000000E+00  0.00000000000E+00  0.15444821115E+03  0.15444821115E+03  0.00000000000E+00 0. -1.
         21   -1    0    0  501  503 -0.00000000000E+00 -0.00000000000E+00 -0.33249123833E+03  0.33249123833E+03  0.00000000000E+00 0. -1.
          6    2    1    2  501    0 -0.28149590393E+02  0.28523637951E+02 -0.24132967789E+03  0.29981472340E+03  0.17332875576E+03 0.  0.
         24    2    3    3    0    0  0.25157464178E+02  0.57751890428E+02 -0.20446795421E+03  0.22856299021E+03  0.80409684375E+02 0.  0.
         -6    2    1    2    0  502  0.28149590393E+02 -0.28523637951E+02  0.63286650712E+02  0.18712472608E+03  0.17147730343E+03 0.  0.
        -24    2    5    5    0    0  0.71081156112E+02 -0.40933112482E+02  0.64580761162E+01  0.11467687391E+03  0.79881338315E+02 0.  0.
          5    1    3    3  501    0 -0.53307054571E+02 -0.29228252476E+02 -0.36861723680E+02  0.71251733189E+02  0.47000000000E+01 0. -1.
        -13    1    4    4    0    0 -0.11841292852E+02  0.24902131582E+02 -0.15897851079E+03  0.16135209718E+03  0.00000000000E+00 0.  1.
         14    1    4    4    0    0  0.36998757030E+02  0.32849758846E+02 -0.45489443427E+02  0.67210893025E+02  0.00000000000E+00 0. -1.
         -5    1    5    5    0  502 -0.42931565719E+02  0.12409474530E+02  0.56828574596E+02  0.72447852168E+02  0.47000000000E+01 0.  1.
         13    1    6    6    0    0  0.58034894763E+02 -0.33708063859E+02  0.39887086923E+02  0.78072160739E+02  0.00000000000E+00 0. -1.
        -14    1    6    6    0    0  0.13046261349E+02 -0.72250486229E+01 -0.33429010807E+02  0.36604713171E+02  0.00000000000E+00 0.  1.
</event>
<event>
12    1  0.8421768E-002  0.3054818E+03  0.7818608E-02  0.1082711E+00
         21   -1    0    0  501  502  0.00000000000E+00  0.00000000000E+00  0.16137410345E+03  0.16137410345E+03  0.00000000000E+00 0. -1.
         21   -1    0    0  502  503 -0.00000000000E+00 -0.00000000000E+00 -0.68179352997E+03  0.68179352997E+03  0.00000000000E+00 0.  1.
         -6    2    1    2    0  503 -0.23327298752E+03  0.98940309433E+02 -0.42719341006E+03  0.52517931324E+03  0.17062716642E+03 0.  0.
        -24    2    3    3    0    0 -0.68382907785E+02 -0.92739881179E+01 -0.11130576317E+03  0.15274654340E+03  0.78614913818E+02 0.  0.
          6    2    1    2  501    0  0.23327298752E+03 -0.98940309433E+02 -0.93226016459E+02  0.31798832018E+03  0.16798812485E+03 0.  0.
         24    2    5    5    0    0  0.18552977414E+03 -0.13787601491E+03 -0.59233840160E+02  0.24746909135E+03  0.65583616658E+02 0.  0.
          5    1    5    5  501    0  0.47743213379E+02  0.38935705481E+02 -0.33992176299E+02  0.70519228829E+02  0.47000000000E+01 0. -1.
        -11    1    6    6    0    0  0.92939916847E+02 -0.10016912712E+03 -0.55323975580E+02  0.14741921328E+03  0.00000000000E+00 0.  1.
         12    1    6    6    0    0  0.92589857294E+02 -0.37706887797E+02 -0.39098645802E+01  0.10004987807E+03  0.00000000000E+00 0. -1.
         -5    1    3    3    0  503 -0.16489007974E+03  0.10821429755E+03 -0.31588764690E+03  0.37243276984E+03  0.47000000000E+01 0.  1.
         13    1    4    4    0    0 -0.64334461978E+02  0.25786474899E+02 -0.74316214996E+02  0.10162069227E+03  0.00000000000E+00 0. -1.
        -14    1    4    4    0    0 -0.40484458071E+01 -0.35060463017E+02 -0.36989548173E+02  0.51125851137E+02  0.00000000000E+00 0.  1.
</event>
<event>
12    1  0.8421768E-002  0.1821307E+03  0.7818608E-02  0.1165803E+00
         21   -1    0    0  503  502  0.00000000000E+00  0.00000000000E+00  0.14402208055E+03  0.14402208055E+03  0.00000000000E+00 0.  1.
         21   -1    0    0  501  503 -0.00000000000E+00 -0.00000000000E+00 -0.25872727402E+03  0.25872727402E+03  0.00000000000E+00 0. -1.
          6    2    1    2  501    0 -0.37546901524E+02  0.45829076827E+02 -0.12433846893E+03  0.22036405446E+03  0.17201798611E+03 0.  0.
         24    2    3    3    0    0 -0.90851065525E+02  0.29390723149E+02 -0.10198576308E+03  0.16008730247E+03  0.78160845875E+02 0.  0.
         -6    2    1    2    0  502  0.37546901524E+02 -0.45829076827E+02  0.96332754574E+01  0.18238530010E+03  0.17222521186E+03 0.  0.
        -24    2    5    5    0    0 -0.43381815962E+02 -0.47579653215E+02 -0.71920928549E+01  0.99574039693E+02  0.75613873231E+02 0.  0.
          5    1    3    3  501    0  0.53304164000E+02  0.16438353678E+02 -0.22352705849E+02  0.60276751988E+02  0.47000000000E+01 0. -1.
        -13    1    4    4    0    0 -0.16304440240E+02 -0.11403170475E+02  0.77001794173E+01  0.21334475187E+02  0.00000000000E+00 0.  1.
         14    1    4    4    0    0 -0.74546625284E+02  0.40793893624E+02 -0.10968594250E+03  0.13875282729E+03  0.00000000000E+00 0. -1.
         -5    1    5    5    0  502  0.80928717486E+02  0.17505763878E+01  0.16825368312E+02  0.82811260409E+02  0.47000000000E+01 0.  1.
         13    1    6    6    0    0  0.19772548643E+02 -0.39621833574E+01  0.73360778677E+01  0.21458579060E+02  0.00000000000E+00 0. -1.
        -14    1    6    6    0    0 -0.63154364605E+02 -0.43617469858E+02 -0.14528170723E+02  0.78115460633E+02  0.00000000000E+00 0.  1.
</event>
<event>
12    1  0.8421768E-002  0.1758302E+03  0.7818608E-02  0.1172230E+00
         21   -1    0    0  503  502  0.00000000000E+00  0.00000000000E+00  0.64140562911E+02  0.64140562911E+02  0.00000000000E+00 0.  1.
         21   -1    0    0  501  503 -0.00000000000E+00 -0.00000000000E+00 -0.13872678365E+04  0.13872678365E+04  0.00000000000E+00 0.  1.
          6    2    1    2  501    0  0.20119319486E+02 -0.26866528650E+02 -0.12480970788E+04  0.12602388986E+04  0.17125760106E+03 0.  0.
         24    2    3    3    0    0  0.24536757690E+02 -0.23948534509E+02 -0.30087006883E+03  0.31298543359E+03  0.79129631241E+02 0.  0.
         -6    2    1    2    0  502 -0.20119319486E+02  0.26866528650E+02 -0.75030194728E+02  0.19116950080E+03  0.17259678600E+03 0.  0.
        -24    2    5    5    0    0 -0.16104137507E+02 -0.37918066344E+02  0.30912194199E+00  0.91614149008E+02  0.81828685325E+02 0.  0.
          5    1    3    3  501    0 -0.44174382041E+01 -0.29179941409E+01 -0.94722700999E+03  0.94725346497E+03  0.47000000000E+01 0. -1.
        -13    1    4    4    0    0 -0.53865603622E+01 -0.28437362042E+01 -0.25121612555E+03  0.25128995922E+03  0.00000000000E+00 0.  1.
         14    1    4    4    0    0  0.29923318052E+02 -0.21104798305E+02 -0.49653943274E+02  0.61695474367E+02  0.00000000000E+00 0. -1.
         -5    1    5    5    0  502 -0.40151819789E+01  0.64784594994E+02 -0.75339316670E+02  0.99555351795E+02  0.47000000000E+01 0.  1.
         13    1    6    6    0    0 -0.22207686683E+02  0.13708488397E+02 -0.22864320700E+02  0.34696990691E+02  0.00000000000E+00 0. -1.
        -14    1    6    6    0    0  0.61035491761E+01 -0.51626554741E+02  0.23173442642E+02  0.56917158317E+02  0.00000000000E+00 0.  1.
</event>
<event>
12    1  0.8421768E-002  0.1997885E+03  0.7818608E-02  0.1150266E+00
         21   -1    0    0  503  502  0.00000000000E+00  0.00000000000E+00  0.87529424749E+02  0.87529424749E+02  0.00000000000E+00 0. -1.
         21   -1    0    0  501  503 -0.00000000000E+00 -0.00000000000E+00 -0.84417197919E+03  0.84417197919E+03  0.00000000000E+00 0.  1.
          6    2    1    2  501    0 -0.88465121029E+02  0.43828914426E+02 -0.69488777101E+03  0.72258634436E+03  0.17179918327E+03 0.  0.
         24    2    3    3    0    0  0.17801820176E+02 -0.22400392701E+01 -0.27800285812E+03  0.28988537154E+03  0.80162440881E+02 0.  0.
         -6    2    1    2    0  502  0.88465121029E+02 -0.43828914426E+02 -0.61754783429E+02  0.20911505958E+03  0.17369053943E+03 0.  0.
        -24    2    5    5    0    0  0.94894371911E+02  0.23774831237E+02 -0.62915981640E+02  0.14103393095E+03  0.79761923951E+02 0.  0.
          5    1    3    3  501    0 -0.10626694120E+03  0.46068953696E+02 -0.41688491289E+03  0.43270097282E+03  0.47000000000E+01 0. -1.
        -13    1    4    4    0    0  0.37398548536E+01  0.35383232782E+02 -0.18785048236E+03  0.19119038522E+03  0.00000000000E+00 0.  1.
         14    1    4    4    0    0  0.14061965322E+02 -0.37623272052E+02 -0.90152375762E+02  0.98694986317E+02  0.00000000000E+00 0. -1.
         -5    1    5    5    0  502 -0.64292508824E+01 -0.67603745663E+02  0.11611982111E+01  0.68081128632E+02  0.47000000000E+01 0.  1.
         13    1    6    6    0    0  0.51350773109E+01 -0.23941414143E+02 -0.14255742399E+02  0.28333487634E+02  0.00000000000E+00 0. -1.
        -14    1    6    6    0    0  0.89759294600E+02  0.47716245380E+02 -0.48660239241E+02  0.11270044331E+03  0.00000000000E+00 0.  1.
</event>
<event>
12    1  0.8421768E-002  0.1725567E+03  0.7818608E-02  0.1175300E+00
         21   -1    0    0  503  502  0.00000000000E+00  0.00000000000E+00  0.44258110437E+02  0.44258110437E+02  0.00000000000E+00 0.  1.
         21   -1    0    0  501  503 -0.00000000000E+00 -0.00000000000E+00 -0.67146398711E+03  0.67146398711E+03  0.00000000000E+00 0.  1.
          6    2    1    2  501    0  0.96158557768E+01 -0.14416508513E+02 -0.31746541483E+03  0.36115905456E+03  0.17132213131E+03 0.  0.
         24    2    3    3    0    0  0.10271351721E+02 -0.40070183310E+02 -0.60695513518E+02  0.10306718540E+03  0.72303382274E+02 0.  0.
         -6    2    1    2    0  502 -0.96158557768E+01  0.14416508513E+02 -0.30974046184E+03  0.35456304299E+03  0.17168429559E+03 0.  0.
        -24    2    5    5    0    0  0.55345005570E+02 -0.51683507145E+01 -0.12767053207E+03  0.16020504972E+03  0.79221914317E+02 0.  0.
          5    1    3    3  501    0 -0.65549594401E+00  0.25653674797E+02 -0.25676990131E+03  0.25809186916E+03  0.47000000000E+01 0. -1.
        -11    1    4    4    0    0  0.23683338228E+02 -0.18484218354E+02  0.69235878577E+01  0.30830227158E+02  0.00000000000E+00 0.  1.
         12    1    4    4    0    0 -0.13411986507E+02 -0.21585964956E+02 -0.67619101376E+02  0.72236958242E+02  0.00000000000E+00 0. -1.
         -5    1    5    5    0  502 -0.64960861347E+02  0.19584859228E+02 -0.18206992977E+03  0.19435799327E+03  0.47000000000E+01 0.  1.
         11    1    6    6    0    0  0.14076464161E+02 -0.10767032793E+02  0.71413460112E+01  0.19106927050E+02  0.00000000000E+00 0. -1.
        -12    1    6    6    0    0  0.41268541409E+02  0.55986820789E+01 -0.13481187808E+03  0.14109812267E+03  0.00000000000E+00 0.  1.
</event>
<event>
12    1  0.8421768E-002  0.1945051E+03  0.7818608E-02  0.1154607E+00
         21   -1    0    0  503  502  0.00000000000E+00  0.00000000000E+00  0.33568516034E+03  0.33568516034E+03  0.00000000000E+00 0. -1.
         21   -1    0    0  501  503 -0.00000000000E+00 -0.00000000000E+00 -0.13345258336E+03  0.13345258336E+03  0.00000000000E+00 0. -1.
          6    2    1    2  501    0  0.46729819399E+02  0.76041535354E+02  0.79055167397E+01  0.19466569488E+03  0.17281853040E+03 0.  0.
         24    2    3    3    0    0  0.42703930268E+02 -0.24244348828E+02  0.96020711334E+01  0.94174726901E+02  0.79782612808E+02 0.  0.
         -6    2    1    2    0  502 -0.46729819399E+02 -0.76041535354E+02  0.19432706024E+03  0.27447204881E+03  0.17206367460E+03 0.  0.
        -24    2    5    5    0    0 -0.81022899271E+02 -0.65667291850E+02  0.19838420457E+03  0.23811010888E+03  0.80394203161E+02 0.  0.
          5    1    3    3  501    0  0.40258891311E+01  0.10028588418E+03 -0.16965543937E+01  0.10049096798E+03  0.47000000000E+01 0. -1.
        -11    1    4    4    0    0  0.38993407580E+02 -0.29405005202E+02  0.39994676158E+02  0.63124593358E+02  0.00000000000E+00 0.  1.
         12    1    4    4    0    0  0.37105226884E+01  0.51606563744E+01 -0.30392605025E+02  0.31050133543E+02  0.00000000000E+00 0. -1.
         -5    1    5    5    0  502  0.34293079871E+02 -0.10374243504E+02 -0.40571443333E+01  0.36361939930E+02  0.47000000000E+01 0.  1.
         13    1    6    6    0    0 -0.49341838146E+02 -0.63948574261E+02  0.73327843113E+02  0.10909174908E+03  0.00000000000E+00 0. -1.
        -14    1    6    6    0    0 -0.31681061125E+02 -0.17187175893E+01  0.12505636146E+03  0.12901835980E+03  0.00000000000E+00 0.  1.
</event>
<event>
12    1  0.8421768E-002  0.4043703E+03  0.7818608E-02  0.1042311E+00
         21   -1    0    0  503  502  0.00000000000E+00  0.00000000000E+00  0.10342134117E+04  0.10342134117E+04  0.00000000000E+00 0. -1.
         21   -1    0    0  501  503 -0.00000000000E+00 -0.00000000000E+00 -0.11841482102E+04  0.11841482102E+04  0.00000000000E+00 0.  1.
          6    2    1    2  501    0  0.33804068790E+03 -0.13937978139E+03 -0.11075221445E+04  0.11788959583E+04  0.17173278620E+03 0.  0.
         24    2    3    3    0    0  0.34214474267E+03 -0.12292649348E+03 -0.10969633924E+04  0.11583744770E+04  0.79553736572E+02 0.  0.
         -6    2    1    2    0  502 -0.33804068790E+03  0.13937978139E+03  0.95758734604E+03  0.10394656636E+04  0.17267631698E+03 0.  0.
        -24    2    5    5    0    0 -0.19572661084E+03  0.10551688345E+03  0.41592252366E+03  0.47837488472E+03  0.80051644298E+02 0.  0.
          5    1    3    3  501    0 -0.41040547722E+01 -0.16453287911E+02 -0.10558752079E+02  0.20521481285E+02  0.47000000000E+01 0. -1.
        -13    1    4    4    0    0  0.14151298080E+03 -0.15550666615E+02 -0.36195974318E+03  0.38895064295E+03  0.00000000000E+00 0.  1.
         14    1    4    4    0    0  0.20063176187E+03 -0.10737582686E+03 -0.73500364924E+03  0.76942383409E+03  0.00000000000E+00 0. -1.
         -5    1    5    5    0  502 -0.14231407706E+03  0.33862897937E+02  0.54166482238E+03  0.56109077892E+03  0.47000000000E+01 0.  1.
         11    1    6    6    0    0 -0.16147322586E+03  0.10980217323E+03  0.38645877195E+03  0.43299018734E+03  0.00000000000E+00 0. -1.
        -12    1    6    6    0    0 -0.34253384978E+02 -0.42852897815E+01  0.29463751712E+02  0.45384697376E+02  0.00000000000E+00 0.  1.
</event>
<event>
12    1  0.8421768E-002  0.2104843E+03  0.7818608E-02  0.1141495E+00
         21   -1    0    0  501  502  0.00000000000E+00  0.00000000000E+00  0.25654621315E+03  0.25654621315E+03  0.00000000000E+00 0. -1.
         21   -1    0    0  502  503 -0.00000000000E+00 -0.00000000000E+00 -0.19317352587E+03  0.19317352587E+03  0.00000000000E+00 0. -1.
         -6    2    1    2    0  503 -0.12098999192E+03  0.22869161793E+02 -0.43905710627E+02  0.21347345889E+03  0.16876501272E+03 0.  0.
        -24    2    3    3    0    0 -0.13816545830E+03  0.23884776177E+02  0.31135244159E+01  0.16318502501E+03  0.83423509606E+02 0.  0.
          6    2    1    2  501    0  0.12098999192E+03 -0.22869161793E+02  0.10727839790E+03  0.23624628013E+03  0.17071049620E+03 0.  0.
         24    2    5    5    0    0  0.66515348180E+02 -0.65021187345E+02  0.66602049194E+01  0.11422009102E+03  0.65953199440E+02 0.  0.
          5    1    5    5  501    0  0.54474643740E+02  0.42152025552E+02  0.10061819298E+03  0.12202618911E+03  0.47000000000E+01 0. -1.
        -11    1    6    6    0    0 -0.11572518407E+01 -0.39911643284E+02 -0.75969638015E+01  0.40644708887E+02  0.00000000000E+00 0.  1.
         12    1    6    6    0    0  0.67672600021E+02 -0.25109544061E+02  0.14257168721E+02  0.73575382136E+02  0.00000000000E+00 0. -1.
         -5    1    3    3    0  503  0.17175466375E+02 -0.10156143839E+01 -0.47019235043E+02  0.50288433877E+02  0.47000000000E+01 0.  1.
         11    1    4    4    0    0 -0.11192390859E+03 -0.18097377796E+02 -0.21440581403E+01  0.11339785440E+03  0.00000000000E+00 0. -1.
        -12    1    4    4    0    0 -0.26241549703E+02  0.41982153973E+02  0.52575825562E+01  0.49787170610E+02  0.00000000000E+00 0.  1.
</event>
<event>
12    1  0.8421768E-002  0.2246854E+03  0.7818608E-02  0.1130759E+00
         21   -1    0    0  501  502  0.00000000000E+00  0.00000000000E+00  0.93762481160E+03  0.93762481160E+03  0.00000000000E+00 0.  1.
         21   -1    0    0  502  503 -0.00000000000E+00 -0.00000000000E+00 -0.86272628298E+02  0.86272628298E+02  0.00000000000E+00 0. -1.
         -6    2    1    2    0  503 -0.15030494133E+02  0.14143288482E+03  0.74263925452E+03  0.77588439931E+03  0.17393781095E+03 0.  0.
        -24    2    3    3    0    0 -0.43503189582E+02  0.94280835788E+02  0.67928403185E+03  0.69180120031E+03  0.79879292251E+02 0.  0.
          6    2    1    2  501    0  0.15030494133E+02 -0.14143288482E+03  0.10871292878E+03  0.24801304059E+03  0.17164728589E+03 0.  0.
         24    2    5    5    0    0 -0.25444719954E+02 -0.10985249166E+02  0.65556808002E+02  0.10469741212E+03  0.76783745389E+02 0.  0.
          5    1    5    5  501    0  0.40475214086E+02 -0.13044763565E+03  0.43156120782E+02  0.14331562847E+03  0.47000000000E+01 0. -1.
        -13    1    6    6    0    0  0.69312103578E+01  0.23199474259E+02  0.49233475209E+02  0.54865219986E+02  0.00000000000E+00 0.  1.
         14    1    6    6    0    0 -0.32375930311E+02 -0.34184723426E+02  0.16323332793E+02  0.49832192132E+02  0.00000000000E+00 0. -1.
         -5    1    3    3    0  503  0.28472695450E+02  0.47152049031E+02  0.63355222673E+02  0.84083199000E+02  0.47000000000E+01 0.  1.
         13    1    4    4    0    0 -0.12250776410E+01  0.39394846446E+01  0.28717063239E+03  0.28720026543E+03  0.00000000000E+00 0. -1.
        -14    1    4    4    0    0 -0.42278111941E+02  0.90341351143E+02  0.39211339946E+03  0.40460093488E+03  0.00000000000E+00 0.  1.
</event>
<event>
12    1  0.8421768E-002  0.1884294E+03  0.7818608E-02  0.1160163E+00
         21   -1    0    0  501  502  0.00000000000E+00  0.00000000000E+00  0.12345169535E+03  0.12345169535E+03  0.00000000000E+00 0.  1.
         21   -1    0    0  502  503 -0.00000000000E+00 -0.00000000000E+00 -0.40404376229E+03  0.40404376229E+03  0.00000000000E+00 0.  1.
         -6    2    1    2    0  503 -0.20903885254E+02 -0.74553674574E+02 -0.28332250062E+03  0.34026061526E+03  0.17178598351E+03 0.  0.
        -24    2    3    3    0    0 -0.13451602144E+02 -0.95954531125E+02 -0.10547277840E+03  0.16091138366E+03  0.73346770640E+02 0.  0.
          6    2    1    2  501    0  0.20903885254E+02  0.74553674574E+02  0.27304336852E+01  0.18723484238E+03  0.17045294988E+03 0.  0.
         24    2    5    5    0    0 -0.31623837675E+02  0.88088826908E+01  0.39442967477E+02  0.95303131455E+02  0.80307382339E+02 0.  0.
          5    1    5    5  501    0  0.52527722929E+02  0.65744791883E+02 -0.36712533792E+02  0.91931710923E+02  0.47000000000E+01 0. -1.
        -13    1    6    6    0    0 -0.18492172564E+02  0.43618697513E+02  0.11441443807E+02  0.48738668993E+02  0.00000000000E+00 0.  1.
         14    1    6    6    0    0 -0.13131665111E+02 -0.34809814822E+02  0.28001523670E+02  0.46564462462E+02  0.00000000000E+00 0. -1.
         -5    1    3    3    0  503 -0.74522831099E+01  0.21400856551E+02 -0.17784972221E+03  0.17934923160E+03  0.47000000000E+01 0.  1.
         13    1    4    4    0    0 -0.39997299902E+02 -0.42108593590E+02 -0.32979919656E+02  0.66787669177E+02  0.00000000000E+00 0. -1.
        -14    1    4    4    0    0  0.26545697758E+02 -0.53845937535E+02 -0.72492858749E+02  0.94123714483E+02  0.00000000000E+00 0.  1.
</event>
<event>
12    1  0.8421768E-002  0.2242809E+03  0.7818608E-02  0.1131347E+00
         21   -1    0    0  503  502  0.00000000000E+00  0.00000000000E+00  0.23127080920E+03  0.23127080920E+03  0.00000000000E+00 0.  1.
         21   -1    0    0  501  503 -0.00000000000E+00 -0.00000000000E+00 -0.23523179608E+03  0.23523179608E+03  0.00000000000E+00 0.  1.
          6    2    1    2  501    0  0.32671344053E+02  0.13599639424E+03  0.67684253421E+02  0.23105628268E+03  0.17100705143E+03 0.  0.
         24    2    3    3    0    0  0.68753232876E+02  0.96551885477E+02 -0.21824777827E+01  0.14295848418E+03  0.79894251161E+02 0.  0.
         -6    2    1    2    0  502 -0.32671344053E+02 -0.13599639424E+03 -0.71645240306E+02  0.23544632259E+03  0.17532682167E+03 0.  0.
        -24    2    5    5    0    0 -0.82162636606E+01  0.22924381094E+01 -0.10087189500E+02  0.82040534801E+02  0.80969967873E+02 0.  0.
          5    1    3    3  501    0 -0.36081888823E+02  0.39444508763E+02  0.69866731204E+02  0.88097798506E+02  0.47000000000E+01 0. -1.
        -11    1    4    4    0    0  0.36216974430E+02  0.98603718030E+02 -0.18241881115E+02  0.10661673730E+03  0.00000000000E+00 0.  1.
         12    1    4    4    0    0  0.32536258446E+02 -0.20518325529E+01  0.16059403332E+02  0.36341746875E+02  0.00000000000E+00 0. -1.
         -5    1    5    5    0  502 -0.24455080393E+02 -0.13828883235E+03 -0.61558050806E+02  0.15340578779E+03  0.47000000000E+01 0.  1.
         11    1    6    6    0    0  0.63828308067E+00  0.29594897037E+01  0.35483683802E+02  0.35612607329E+02  0.00000000000E+00 0. -1.
        -12    1    6    6    0    0 -0.88545467413E+01 -0.66705159429E+00 -0.45570873302E+02  0.46427927472E+02  0.00000000000E+00 0.  1.
</event>
<event>
12    1  0.8421768E-002  0.1921289E+03  0.7818608E-02  0.1156617E+00
         21   -1    0    0  503  502  0.00000000000E+00  0.00000000000E+00  0.39230484663E+03  0.39230484663E+03  0.00000000000E+00 0. -1.
         21   -1    0    0  501  503 -0.00000000000E+00 -0.00000000000E+00 -0.34332611758E+03  0.34332611758E+03  0.00000000000E+00 0. -1.
          6    2    1    2  501    0  0.21120397667E+02  0.82067248047E+02 -0.28897638339E+03  0.34701711899E+03  0.17243093201E+03 0.  0.
         24    2    3    3    0    0 -0.41358061127E+02  0.21604463693E+01 -0.14972155844E+03  0.17467254832E+03  0.79867373351E+02 0.  0.
         -6    2    1    2    0  502 -0.21120397667E+02 -0.82067248047E+02  0.33795511244E+03  0.38861384521E+03  0.17212192849E+03 0.  0.
        -24    2    5    5    0    0  0.14624085218E+02 -0.27654711215E+02  0.30257711485E+03  0.31437042843E+03  0.79354955250E+02 0.  0.
          5    1    3    3  501    0  0.62478458794E+02  0.79906801678E+02 -0.13925482495E+03  0.17234457067E+03  0.47000000000E+01 0. -1.
        -13    1    4    4    0    0 -0.49469687386E+02 -0.13008010131E+02 -0.43735510894E+02  0.67299726677E+02  0.00000000000E+00 0.  1.
         14    1    4    4    0    0  0.81116262586E+01  0.15168456501E+02 -0.10598604754E+03  0.10737282164E+03  0.00000000000E+00 0. -1.
         -5    1    5    5    0  502 -0.35744482884E+02 -0.54412536832E+02  0.35377997591E+02  0.74243416777E+02  0.47000000000E+01 0.  1.
         11    1    6    6    0    0 -0.11444114405E+02  0.13980538088E+00  0.24535145410E+03  0.24561824714E+03  0.00000000000E+00 0. -1.
        -12    1    6    6    0    0  0.26068199623E+02 -0.27794516596E+02  0.57225660752E+02  0.68752181296E+02  0.00000000000E+00 0.  1.
</event>
<event>
12    1  0.8421768E-002  0.2112814E+03  0.7818608E-02  0.1140639E+00
         21   -1    0    0  503  502  0.00000000000E+00  0.00000000000E+00  0.88073647469E+02  0.88073647469E+02  0.00000000000E+00 0.  1.
         21   -1    0    0  501  503 -0.00000000000E+00 -0.00000000000E+00 -0.52911017166E+03  0.52911017166E+03  0.00000000000E+00 0.  1.
          6    2    1    2  501    0  0.26723298456E+02  0.11939001584E+03 -0.28546252456E+03  0.35514598195E+03  0.17225476772E+03 0.  0.
         24    2    3    3    0    0  0.63645735136E+02  0.28994519499E+02 -0.12541303441E+03  0.16760254328E+03  0.86433335884E+02 0.  0.
         -6    2    1    2    0  502 -0.26723298456E+02 -0.11939001584E+03 -0.15557399963E+03  0.26203783718E+03  0.17173365480E+03 0.  0.
        -24    2    5    5    0    0 -0.22118009185E+02 -0.96978318779E+02 -0.18254383622E+03  0.22635934309E+03  0.89567289911E+02 0.  0.
          5    1    3    3  501    0 -0.36922436680E+02  0.90395496343E+02 -0.16004949016E+03  0.18754343867E+03  0.47000000000E+01 0. -1.
        -13    1    4    4    0    0  0.11112252540E+02  0.12555605210E+02 -0.10882913274E+03  0.11011314868E+03  0.00000000000E+00 0.  1.
         14    1    4    4    0    0  0.52533482596E+02  0.16438914289E+02 -0.16583901662E+02  0.57489394596E+02  0.00000000000E+00 0. -1.
         -5    1    5    5    0  502 -0.46052892705E+01 -0.22411697064E+02  0.26969836589E+02  0.35678494085E+02  0.47000000000E+01 0.  1.
         13    1    6    6    0    0  0.89653520304E+01 -0.10185004129E+03 -0.13501277419E+03  0.16935837045E+03  0.00000000000E+00 0. -1.
        -14    1    6    6    0    0 -0.31083361216E+02  0.48717225122E+01 -0.47531062026E+02  0.57000972641E+02  0.00000000000E+00 0.  1.
</event>
<event>
12    1  0.8421768E-002  0.2121563E+03  0.7818608E-02  0.1140444E+00
         21   -1    0    0  501  502  0.00000000000E+00  0.00000000000E+00  0.12670162103E+03  0.12670162103E+03  0.00000000000E+00 0. -1.
         21   -1    0    0  502  503 -0.00000000000E+00 -0.00000000000E+00 -0.48999005421E+03  0.48999005421E+03  0.00000000000E+00 0. -1.
         -6    2    1    2    0  503  0.56406274692E+02 -0.11007275804E+03 -0.34713475835E+03  0.40683271349E+03  0.17237353748E+03 0.  0.
        -24    2    3    3    0    0 -0.24002138892E+02 -0.10013065431E+03 -0.19692260890E+03  0.23609859785E+03  0.79760788657E+02 0.  0.
          6    2    1    2  501    0 -0.56406274692E+02  0.11007275804E+03 -0.16153674825E+02  0.20985896175E+03  0.16876659245E+03 0.  0.
         24    2    5    5    0    0 -0.75066067650E+02  0.32340318908E+02  0.19474429426E+02  0.12221210339E+03  0.88745332694E+02 0.  0.
          5    1    5    5  501    0  0.18659792958E+02  0.77732439135E+02 -0.35628104250E+02  0.87646858356E+02  0.47000000000E+01 0. -1.
        -13    1    6    6    0    0 -0.93953925127E+02  0.30223637497E+02  0.26093129150E+02  0.10208653045E+03  0.00000000000E+00 0.  1.
         14    1    6    6    0    0  0.18887857477E+02  0.21166814104E+01 -0.66186997248E+01  0.20125572944E+02  0.00000000000E+00 0. -1.
         -5    1    3    3    0  503  0.80408413584E+02 -0.99421037379E+01 -0.15021214945E+03  0.17073411564E+03  0.47000000000E+01 0.  1.
         13    1    4    4    0    0  0.56519760907E+00 -0.10366883804E+03 -0.17263738810E+03  0.20137332296E+03  0.00000000000E+00 0. -1.
        -14    1    4    4    0    0 -0.24567336502E+02  0.35381837374E+01 -0.24285220804E+02  0.34725274894E+02  0.00000000000E+00 0.  1.
</event>
<event>
12    1  0.8421768E-002  0.1867203E+03  0.7818608E-02  0.1161666E+00
         21   -1    0    0  503  502  0.00000000000E+00  0.00000000000E+00  0.11692098330E+03  0.11692098330E+03  0.00000000000E+00 0. -1.
         21   -1    0    0  501  503 -0.00000000000E+00 -0.00000000000E+00 -0.12232269257E+04  0.12232269257E+04  0.00000000000E+00 0.  1.
          6    2    1    2  501    0 -0.48077858630E+02 -0.50832346445E+02 -0.11359888494E+04  0.11510829758E+04  0.17212188487E+03 0.  0.
         24    2    3    3    0    0 -0.53746811323E+02 -0.96110995480E+02 -0.72852150322E+03  0.74104148851E+03  0.79201413276E+02 0.  0.
         -6    2    1    2    0  502  0.48077858630E+02  0.50832346445E+02  0.29682907068E+02  0.18906493314E+03  0.17311575906E+03 0.  0.
        -24    2    5    5    0    0  0.76965044762E+02  0.48331333103E+02  0.68497013643E+02  0.14038896926E+03  0.82205145444E+02 0.  0.
          5    1    3    3  501    0  0.56689526933E+01  0.45278649035E+02 -0.40746734623E+03  0.41004148732E+03  0.47000000000E+01 0. -1.
        -11    1    4    4    0    0  0.86873846176E+01 -0.22914392946E+02 -0.33635622803E+03  0.33724776084E+03  0.00000000000E+00 0.  1.
         12    1    4    4    0    0 -0.62434195941E+02 -0.73196602534E+02 -0.39216527518E+03  0.40379372767E+03  0.00000000000E+00 0. -1.
         -5    1    5    5    0  502 -0.28887186132E+02  0.25010133419E+01 -0.38814106574E+02  0.48675963879E+02  0.47000000000E+01 0.  1.
         13    1    6    6    0    0  0.14052908628E+02 -0.18754277941E+02  0.35783253099E+02  0.42774389351E+02  0.00000000000E+00 0. -1.
        -14    1    6    6    0    0  0.62912136134E+02  0.67085611045E+02  0.32713760544E+02  0.97614579911E+02  0.00000000000E+00 0.  1.
</event>
<event>
12    1  0.8421768E-002  0.2090784E+03  0.7818608E-02  0.1142371E+00
         21   -1    0    0  503  502  0.00000000000E+00  0.00000000000E+00  0.41462450570E+03  0.41462450570E+03  0.00000000000E+00 0. -1.
         21   -1    0    0  501  503 -0.00000000000E+00 -0.00000000000E+00 -0.10750369635E+03  0.10750369635E+03  0.00000000000E+00 0. -1.
          6    2    1    2  501    0  0.11474885431E+03 -0.29378972323E+02  0.19127133127E+03  0.28309918803E+03  0.17184296469E+03 0.  0.
         24    2    3    3    0    0 -0.51101750629E+01 -0.29156952412E+02  0.31151526877E+02  0.83032504206E+02  0.71047430389E+02 0.  0.
         -6    2    1    2    0  502 -0.11474885431E+03  0.29378972323E+02  0.11584947808E+03  0.23902901403E+03  0.17228854981E+03 0.  0.
        -24    2    5    5    0    0 -0.39406612771E+02  0.26594148248E+02  0.13254225326E+03  0.16166657257E+03  0.79426078432E+02 0.  0.
          5    1    3    3  501    0  0.11985902937E+03 -0.22201991138E+00  0.16011980439E+03  0.20006668382E+03  0.47000000000E+01 0. -1.
        -13    1    4    4    0    0 -0.36325005793E+01  0.76528683952E+01  0.43393199366E+02  0.44212342240E+02  0.00000000000E+00 0.  1.
         14    1    4    4    0    0 -0.14776744836E+01 -0.36809820807E+02 -0.12241672489E+02  0.38820161966E+02  0.00000000000E+00 0. -1.
         -5    1    5    5    0  502 -0.75342241540E+02  0.27848240746E+01 -0.16692775185E+02  0.77362441461E+02  0.47000000000E+01 0.  1.
         11    1    6    6    0    0 -0.46068000209E+02  0.37311845062E+02  0.48253532510E+02  0.76438457761E+02  0.00000000000E+00 0. -1.
        -12    1    6    6    0    0  0.66613874381E+01 -0.10717696813E+02  0.84288720753E+02  0.85228114808E+02  0.00000000000E+00 0.  1.
</event>
<event>
12    1  0.8421768E-002  0.3250999E+03  0.7818608E-02  0.1074115E+00
         21   -1    0    0  501  502  0.00000000000E+00  0.00000000000E+00  0.25142636172E+03  0.25142636172E+03  0.00000000000E+00 0.  1.
         21   -1    0    0  502  503 -0.00000000000E+00 -0.00000000000E+00 -0.60142393411E+03  0.60142393411E+03  0.00000000000E+00 0. -1.
         -6    2    1    2    0  503  0.66042407167E+01  0.26836070766E+03 -0.41335540173E+03  0.52163407126E+03  0.17081665829E+03 0.  0.
        -24    2    3    3    0    0  0.60332445512E+02  0.19629517465E+03 -0.33088648441E+03  0.39955469806E+03  0.89366053962E+02 0.  0.
          6    2    1    2  501    0 -0.66042407167E+01 -0.26836070766E+03  0.63357829343E+02  0.33121622457E+03  0.18338180789E+03 0.  0.
         24    2    5    5    0    0  0.67976648653E+02 -0.17880285655E+03  0.55988620920E+02  0.21434316100E+03  0.78847820022E+02 0.  0.
          5    1    5    5  501    0 -0.74580889370E+02 -0.89557851105E+02  0.73692084234E+01  0.11687306356E+03  0.47000000000E+01 0. -1.
        -11    1    6    6    0    0  0.51180326544E+02 -0.16444620687E+03  0.21750994369E+02  0.17359460399E+03  0.00000000000E+00 0.  1.
         12    1    6    6    0    0  0.16796322110E+02 -0.14356649682E+02  0.34237626550E+02  0.40748557009E+02  0.00000000000E+00 0. -1.
         -5    1    3    3    0  503 -0.53728204796E+02  0.72065533007E+02 -0.82468917319E+02  0.12207937320E+03  0.47000000000E+01 0.  1.
         11    1    4    4    0    0 -0.80695232336E+01  0.11904459946E+03 -0.15456693093E+03  0.19526307895E+03  0.00000000000E+00 0. -1.
        -12    1    4    4    0    0  0.68401968746E+02  0.77250575194E+02 -0.17631955349E+03  0.20429161911E+03  0.00000000000E+00 0.  1.
</event>
<event>
12    1  0.8421768E-002  0.2145815E+03  0.7818608E-02  0.1138040E+00
         21   -1    0    0  501  502  0.00000000000E+00  0.00000000000E+00  0.12684146343E+04  0.12684146343E+04  0.00000000000E+00 0.  1.
         21   -1    0    0  502  503 -0.00000000000E+00 -0.00000000000E+00 -0.54951982538E+02  0.54951982538E+02  0.00000000000E+00 0. -1.
         -6    2    1    2    0  503 -0.98885497017E+02  0.81791100994E+02  0.99292832501E+03  0.10158503238E+04  0.17197992900E+03 0.  0.
        -24    2    3    3    0    0 -0.19816008917E+02  0.23900335032E+02  0.73256160886E+03  0.73761258081E+03  0.80385996072E+02 0.  0.
          6    2    1    2  501    0  0.98885497017E+02 -0.81791100994E+02  0.22053432673E+03  0.30751629305E+03  0.17164718320E+03 0.  0.
         24    2    5    5    0    0  0.37607106048E+02 -0.14946347455E+01  0.17761646375E+03  0.19766823137E+03  0.78157489335E+02 0.  0.
          5    1    5    5  501    0  0.61278390970E+02 -0.80296466249E+02  0.42917862988E+02  0.10984806168E+03  0.47000000000E+01 0. -1.
        -13    1    6    6    0    0  0.58888176607E+02 -0.10121441404E+02  0.15169285277E+03  0.16303675199E+03  0.00000000000E+00 0.  1.
         14    1    6    6    0    0 -0.21281070559E+02  0.86268066582E+01  0.25923610979E+02  0.34631479372E+02  0.00000000000E+00 0. -1.
         -5    1    3    3    0  503 -0.79069488101E+02  0.57890765962E+02  0.26036671615E+03  0.27823774296E+03  0.47000000000E+01 0.  1.
         11    1    4    4    0    0 -0.18548614993E+02 -0.27399101835E+02  0.21769458008E+03  0.22019466863E+03  0.00000000000E+00 0. -1.
        -12    1    4    4    0    0 -0.12673939239E+01  0.51299436867E+02  0.51486702879E+03  0.51741791218E+03  0.00000000000E+00 0.  1.
</event>
<event>
12    1  0.8421768E-002  0.2466844E+03  0.7818608E-02  0.1116213E+00
         21   -1    0    0  503  502  0.00000000000E+00  0.00000000000E+00  0.95239964229E+03  0.95239964229E+03  0.00000000000E+00 0.  1.
         21   -1    0    0  501  503 -0.00000000000E+00 -0.00000000000E+00 -0.13648095100E+03  0.13648095100E+03  0.00000000000E+00 0. -1.
          6    2    1    2  501    0  0.16570136585E+03  0.36953933696E+02  0.93628445381E+01  0.24686206261E+03  0.17897116873E+03 0.  0.
         24    2    3    3    0    0  0.14371543485E+03  0.19637437670E+02  0.69967593059E+02  0.17994220203E+03  0.80274384589E+02 0.  0.
         -6    2    1    2    0  502 -0.16570136585E+03 -0.36953933696E+02  0.80655584675E+03  0.84201853068E+03  0.17216369021E+03 0.  0.
        -24    2    5    5    0    0 -0.80039945982E+02 -0.40466580269E+02  0.23758423502E+03  0.26660476434E+03  0.81165846073E+02 0.  0.
          5    1    3    3  501    0  0.21985931003E+02  0.17316496026E+02 -0.60604748521E+02  0.66919860579E+02  0.47000000000E+01 0. -1.
        -11    1    4    4    0    0  0.37914306161E+02 -0.19699365124E+02 -0.70346051252E+01  0.43301792887E+02  0.00000000000E+00 0.  1.
         12    1    4    4    0    0  0.10580112869E+03  0.39336802794E+02  0.77002198184E+02  0.13664040914E+03  0.00000000000E+00 0. -1.
         -5    1    5    5    0  502 -0.85661419868E+02  0.35126465730E+01  0.56897161172E+03  0.57541376634E+03  0.47000000000E+01 0.  1.
         11    1    6    6    0    0 -0.31012990228E+01  0.29438833221E+01 -0.60730543469E+01  0.74274150108E+01  0.00000000000E+00 0. -1.
        -12    1    6    6    0    0 -0.76938646960E+02 -0.43410463591E+02  0.24365728937E+03  0.25917734933E+03  0.00000000000E+00 0.  1.
</event>
<event>
12    1  0.8421768E-002  0.2734743E+03  0.7818608E-02  0.1099463E+00
         21   -1    0    0  503  502  0.00000000000E+00  0.00000000000E+00  0.48533343549E+03  0.48533343549E+03  0.00000000000E+00 0.  1.
         21   -1    0    0  501  503 -0.00000000000E+00 -0.00000000000E+00 -0.28477328208E+03  0.28477328208E+03  0.00000000000E+00 0. -1.
          6    2    1    2  501    0 -0.28669823615E+00  0.21197745022E+03 -0.16106573850E+03  0.31738049135E+03  0.17278218245E+03 0.  0.
         24    2    3    3    0    0  0.37514326301E+02  0.20829425468E+03 -0.11024476007E+03  0.25376174228E+03  0.86297702819E+02 0.  0.
         -6    2    1    2    0  502  0.28669823615E+00 -0.21197745022E+03  0.36162589192E+03  0.45272622622E+03  0.17103575241E+03 0.  0.
        -24    2    5    5    0    0 -0.31039037166E+02 -0.35600223878E+02  0.11705558584E+03  0.14953164796E+03  0.80167984858E+02 0.  0.
          5    1    3    3  501    0 -0.37801024537E+02  0.36831955466E+01 -0.50820978424E+02  0.63618749072E+02  0.47000000000E+01 0. -1.
        -13    1    4    4    0    0 -0.21047250800E+01  0.56666673377E+02  0.82313886858E+01  0.57300065436E+02  0.00000000000E+00 0.  1.
         14    1    4    4    0    0  0.39619051381E+02  0.15162758130E+03 -0.11847614876E+03  0.19646167684E+03  0.00000000000E+00 0. -1.
         -5    1    5    5    0  502  0.31325735402E+02 -0.17637722635E+03  0.24457030608E+03  0.30319457826E+03  0.47000000000E+01 0.  1.
         11    1    6    6    0    0  0.15479472588E+02 -0.21579704762E+02  0.44978933672E+01  0.26935641331E+02  0.00000000000E+00 0. -1.
        -12    1    6    6    0    0 -0.46518509753E+02 -0.14020519116E+02  0.11255769247E+03  0.12259600662E+03  0.00000000000E+00 0.  1.
</event>
<event>
12    1  0.8421768E-002  0.4174260E+03  0.7818608E-02  0.1037949E+00
         21   -1    0    0  503  502  0.00000000000E+00  0.00000000000E+00  0.47870640368E+03  0.47870640368E+03  0.00000000000E+00 0. -1.
         21   -1    0    0  501  503 -0.00000000000E+00 -0.00000000000E+00 -0.66490915323E+03  0.66490915323E+03  0.00000000000E+00 0.  1.
          6    2    1    2  501    0  0.78926742294E+02  0.37211155969E+03 -0.47803023907E+03  0.63429471261E+03  0.17064709045E+03 0.  0.
         24    2    3    3    0    0  0.11239813044E+03  0.28866377686E+03 -0.41689035493E+03  0.52546437807E+03  0.79719061656E+02 0.  0.
         -6    2    1    2    0  502 -0.78926742294E+02 -0.37211155969E+03  0.29182748952E+03  0.50932084429E+03  0.17189530326E+03 0.  0.
        -24    2    5    5    0    0 -0.15248584452E+02 -0.31657233118E+03  0.26461255008E+03  0.42042620655E+03  0.79295859276E+02 0.  0.
          5    1    3    3  501    0 -0.33471388146E+02  0.83447782831E+02 -0.61139884144E+02  0.10883033454E+03  0.47000000000E+01 0. -1.
        -13    1    4    4    0    0  0.51371613927E+02  0.20614615007E+03 -0.23641834066E+03  0.31785045180E+03  0.00000000000E+00 0.  1.
         14    1    4    4    0    0  0.61026516513E+02  0.82517626784E+02 -0.18047201427E+03  0.20761392627E+03  0.00000000000E+00 0. -1.
         -5    1    5    5    0  502 -0.63678157843E+02 -0.55539228508E+02  0.27214939440E+02  0.88894637736E+02  0.47000000000E+01 0.  1.
         11    1    6    6    0    0 -0.39046152962E+02 -0.21905745026E+03  0.21092198639E+03  0.30659232365E+03  0.00000000000E+00 0. -1.
        -12    1    6    6    0    0  0.23797568511E+02 -0.97514880920E+02  0.53690563689E+02  0.11383388290E+03  0.00000000000E+00 0.  1.
</event>
<event>
12    1  0.8421768E-002  0.1825941E+03  0.7818608E-02  0.1165643E+00
         21   -1    0    0  503  502  0.00000000000E+00  0.00000000000E+00  0.38796116088E+02  0.38796116088E+02  0.00000000000E+00 0. -1.
         21   -1    0    0  501  503 -0.00000000000E+00 -0.00000000000E+00 -0.10465613533E+04  0.10465613533E+04  0.00000000000E+00 0. -1.
          6    2    1    2  501    0  0.41963132031E+02  0.36217715689E+02 -0.73885320567E+03  0.76108125293E+03  0.17397697164E+03 0.  0.
         24    2    3    3    0    0 -0.26689084465E+02  0.15093074824E+02 -0.20189794938E+03  0.21932262168E+03  0.79997014189E+02 0.  0.
         -6    2    1    2    0  502 -0.41963132031E+02 -0.36217715689E+02 -0.26891203152E+03  0.32427621644E+03  0.17253624682E+03 0.  0.
        -24    2    5    5    0    0  0.34667615908E+02  0.13925665031E+02 -0.13973673186E+03  0.16586227070E+03  0.81167548147E+02 0.  0.
          5    1    3    3  501    0  0.68652216495E+02  0.21124640865E+02 -0.53695525629E+03  0.54175863126E+03  0.47000000000E+01 0. -1.
        -13    1    4    4    0    0  0.75327641950E+00  0.45010829575E+02 -0.10215788921E+03  0.11163680635E+03  0.00000000000E+00 0.  1.
         14    1    4    4    0    0 -0.27442360884E+02 -0.29917754751E+02 -0.99740060170E+02  0.10768581533E+03  0.00000000000E+00 0. -1.
         -5    1    5    5    0  502 -0.76630747939E+02 -0.50143380720E+02 -0.12917529966E+03  0.15841394573E+03  0.47000000000E+01 0.  1.
         11    1    6    6    0    0  0.26579089743E+02  0.45510653765E+02 -0.10891110436E+03  0.12099295959E+03  0.00000000000E+00 0. -1.
        -12    1    6    6    0    0  0.80885261654E+01 -0.31584988734E+02 -0.30825627502E+02  0.44869311113E+02  0.00000000000E+00 0.  1.
</event>
<event>
12    1  0.8421768E-002  0.2345611E+03  0.7818608E-02  0.1125738E+00
         21   -1    0    0  503  502  0.00000000000E+00  0.00000000000E+00  0.58899637841E+03  0.58899637841E+03  0.00000000000E+00 0. -1.
         21   -1    0    0  501  503 -0.00000000000E+00 -0.00000000000E+00 -0.10194702464E+03  0.10194702464E+03  0.00000000000E+00 0. -1.
          6    2    1    2  501    0  0.11615756390E+03 -0.76731120250E+02  0.12344121593E+03  0.26505969805E+03  0.18878205761E+03 0.  0.
         24    2    3    3    0    0  0.10588808179E+03 -0.19751610287E+02  0.14997253793E+03  0.20119947674E+03  0.79919054863E+02 0.  0.
         -6    2    1    2    0  502 -0.11615756390E+03  0.76731120250E+02  0.36360813783E+03  0.42588370500E+03  0.17258565358E+03 0.  0.
        -24    2    5    5    0    0 -0.30279959703E+02  0.33932655759E+02  0.11238681671E+03  0.15692104281E+03  0.99624876515E+02 0.  0.
          5    1    3    3  501    0  0.10269482103E+02 -0.56979509964E+02 -0.26531322006E+02  0.63860221310E+02  0.47000000000E+01 0. -1.
        -13    1    4    4    0    0  0.11664525392E+03 -0.11764489161E+02  0.11709972340E+03  0.16570112760E+03  0.00000000000E+00 0.  1.
         14    1    4    4    0    0 -0.10757172128E+02 -0.79871211259E+01  0.32872814535E+02  0.35498349138E+02  0.00000000000E+00 0. -1.
         -5    1    5    5    0  502 -0.85877604195E+02  0.42798464491E+02  0.25122132112E+03  0.26896266219E+03  0.47000000000E+01 0.  1.
         11    1    6    6    0    0 -0.33033951656E+02  0.67420478921E+02  0.68362696904E+02  0.10153925974E+03  0.00000000000E+00 0. -1.
        -12    1    6    6    0    0  0.27539919530E+01 -0.33487823162E+02  0.44024119808E+02  0.55381783076E+02  0.00000000000E+00 0.  1.
</event>
<event>
12    1  0.8421768E-002  0.1866475E+03  0.7818608E-02  0.1161790E+00
         21   -1    0    0  503  502  0.00000000000E+00  0.00000000000E+00  0.34151001922E+03  0.34151001922E+03  0.00000000000E+00 0. -1.
         21   -1    0    0  501  503 -0.00000000000E+00 -0.00000000000E+00 -0.19654841905E+03  0.19654841905E+03  0.00000000000E+00 0. -1.
          6    2    1    2  501    0 -0.22134593708E+02  0.68617466147E+02 -0.11484266652E+03  0.21815914610E+03  0.17089844374E+03 0.  0.
         24    2    3    3    0    0 -0.10795199733E+01  0.95058671369E+01  0.68097740953E+01  0.81195999323E+02  0.80342332611E+02 0.  0.
         -6    2    1    2    0  502  0.22134593708E+02 -0.68617466147E+02  0.25980426668E+03  0.31989929218E+03  0.17215981891E+03 0.  0.
        -24    2    5    5    0    0  0.30168489192E+02 -0.93530513852E+02  0.26388421658E+03  0.29299316994E+03  0.80944568127E+02 0.  0.
          5    1    3    3  501    0 -0.21055073735E+02  0.59111599010E+02 -0.12165244061E+03  0.13696314677E+03  0.47000000000E+01 0. -1.
        -13    1    4    4    0    0  0.27994577223E+02  0.33366042444E+01 -0.24986512863E+02  0.37671675127E+02  0.00000000000E+00 0.  1.
         14    1    4    4    0    0 -0.29074097196E+02  0.61692628925E+01  0.31796286958E+02  0.43524324196E+02  0.00000000000E+00 0. -1.
         -5    1    5    5    0  502 -0.80338954837E+01  0.24913047705E+02 -0.40799498973E+01  0.26906122236E+02  0.47000000000E+01 0.  1.
         13    1    6    6    0    0 -0.24407550774E+02 -0.54544216762E+02  0.13723797575E+03  0.14968320582E+03  0.00000000000E+00 0. -1.
        -14    1    6    6    0    0  0.54576039966E+02 -0.38986297091E+02  0.12664624084E+03  0.14330996412E+03  0.00000000000E+00 0.  1.
</event>
<event>
12    1  0.8421768E-002  0.1728611E+03  0.7818608E-02  0.1175081E+00
         21   -1    0    0  503  502  0.00000000000E+00  0.00000000000E+00  0.13307553038E+04  0.13307553038E+04  0.00000000000E+00 0. -1.
         21   -1    0    0  501  503 -0.00000000000E+00 -0.00000000000E+00 -0.14476053899E+03  0.14476053899E+03  0.00000000000E+00 0. -1.
          6    2    1    2  501    0 -0.14067665827E+02 -0.14595840627E+02 -0.85582933951E+02  0.19224236674E+03  0.17094370770E+03 0.  0.
         24    2    3    3    0    0 -0.51881104018E+02 -0.37294639300E+02 -0.66824882723E+01  0.10173014714E+03  0.78878565613E+02 0.  0.
         -6    2    1    2    0  502  0.14067665827E+02  0.14595840627E+02  0.12715776987E+04  0.12832734760E+04  0.17166837955E+03 0.  0.
        -24    2    5    5    0    0  0.24546458986E+02  0.68720658907E+02  0.67806777752E+03  0.68719007779E+03  0.84434794317E+02 0.  0.
          5    1    3    3  501    0  0.37813438190E+02  0.22698798673E+02 -0.78900445679E+02  0.90512219602E+02  0.47000000000E+01 0. -1.
        -13    1    4    4    0    0 -0.38176342623E+02 -0.40576596096E+02 -0.37966105178E+02  0.67418976773E+02  0.00000000000E+00 0.  1.
         14    1    4    4    0    0 -0.13704761395E+02  0.32819567961E+01  0.31283616905E+02  0.34311170368E+02  0.00000000000E+00 0. -1.
         -5    1    5    5    0  502 -0.10478793159E+02 -0.54124818280E+02  0.59350992122E+03  0.59608339823E+03  0.47000000000E+01 0.  1.
         11    1    6    6    0    0 -0.20340026666E+02  0.18396616296E+02  0.40468937269E+03  0.40561760384E+03  0.00000000000E+00 0. -1.
        -12    1    6    6    0    0  0.44886485652E+02  0.50324042611E+02  0.27337840484E+03  0.28157247395E+03  0.00000000000E+00 0.  1.
</event>
<event>
12    1  0.8421768E-002  0.2941460E+03  0.7818608E-02  0.1088329E+00
         21   -1    0    0  501  502  0.00000000000E+00  0.00000000000E+00  0.94380510028E+03  0.94380510028E+03  0.00000000000E+00 0. -1.
         21   -1    0    0  502  503 -0.00000000000E+00 -0.00000000000E+00 -0.98598203076E+02  0.98598203076E+02  0.00000000000E+00 0.  1.
         -6    2    1    2    0  503  0.17155026458E+03  0.16449040143E+03  0.28213663594E+03  0.40758183757E+03  0.17330691717E+03 0.  0.
        -24    2    3    3    0    0  0.19666371093E+02  0.96992741730E+02  0.13763474024E+03  0.18729216685E+03  0.79628361415E+02 0.  0.
          6    2    1    2  501    0 -0.17155026458E+03 -0.16449040143E+03  0.56307026126E+03  0.63482146579E+03  0.17164961073E+03 0.  0.
         24    2    5    5    0    0 -0.37703485675E+02 -0.50104844670E+02  0.11592284178E+03  0.15423648832E+03  0.80117044320E+02 0.  0.
          5    1    5    5  501    0 -0.13384677891E+03 -0.11438555676E+03  0.44714741948E+03  0.48058497747E+03  0.47000000000E+01 0. -1.
        -13    1    6    6    0    0 -0.31552021900E+02  0.33665946288E+01  0.66407820573E+01  0.32418575412E+02  0.00000000000E+00 0.  1.
         14    1    6    6    0    0 -0.61514637753E+01 -0.53471439299E+02  0.10928205973E+03  0.12181791291E+03  0.00000000000E+00 0. -1.
         -5    1    3    3    0  503  0.15188389349E+03  0.67497659696E+02  0.14450189570E+03  0.22028967072E+03  0.47000000000E+01 0.  1.
         13    1    4    4    0    0  0.17215038676E+02 -0.25101358687E+01 -0.51437503712E-01  0.17397154495E+02  0.00000000000E+00 0. -1.
        -14    1    4    4    0    0  0.24513324168E+01  0.99502877598E+02  0.13768617774E+03  0.16989501235E+03  0.00000000000E+00 0.  1.
</event>
<event>
12    1  0.8421768E-002  0.2077714E+03  0.7818608E-02  0.1143612E+00
         21   -1    0    0  503  502  0.00000000000E+00  0.00000000000E+00  0.52362700837E+02  0.52362700837E+02  0.00000000000E+00 0. -1.
         21   -1    0    0  501  503 -0.00000000000E+00 -0.00000000000E+00 -0.17728200191E+04  0.17728200191E+04  0.00000000000E+00 0. -1.
          6    2    1    2  501    0  0.11481057975E+03  0.16023255573E+00 -0.15308471082E+04  0.15448824617E+04  0.17316886826E+03 0.  0.
         24    2    3    3    0    0  0.40948525708E+02  0.59999254522E+02 -0.93512182606E+03  0.94160225041E+03  0.82977563803E+02 0.  0.
         -6    2    1    2    0  502 -0.11481057975E+03 -0.16023255573E+00 -0.18961021014E+03  0.28030025829E+03  0.17156546306E+03 0.  0.
        -24    2    5    5    0    0 -0.11993645016E+03 -0.37050036212E+02 -0.89416356472E+02  0.17330478889E+03  0.79257856315E+02 0.  0.
          5    1    3    3  501    0  0.73862054042E+02 -0.59839021966E+02 -0.59572528210E+03  0.60328021127E+03  0.47000000000E+01 0. -1.
        -11    1    4    4    0    0 -0.16076528894E+02 -0.62559180667E+01 -0.70810313177E+02  0.72881353886E+02  0.00000000000E+00 0.  1.
         12    1    4    4    0    0  0.57025054602E+02  0.66255172589E+02 -0.86431151288E+03  0.86872089652E+03  0.00000000000E+00 0. -1.
         -5    1    5    5    0  502  0.51258704058E+01  0.36889803657E+02 -0.10019385366E+03  0.10699546941E+03  0.47000000000E+01 0.  1.
         13    1    6    6    0    0 -0.54665158187E+02 -0.54262311735E+02 -0.27734873474E+02  0.81865140329E+02  0.00000000000E+00 0. -1.
        -14    1    6    6    0    0 -0.65271291969E+02  0.17212275522E+02 -0.61681482998E+02  0.91439648560E+02  0.00000000000E+00 0.  1.
</event>
<event>
12    1  0.8421768E-002  0.1783934E+03  0.7818608E-02  0.1169940E+00
         21   -1    0    0  503  502  0.00000000000E+00  0.00000000000E+00  0.69409650467E+03  0.69409650467E+03  0.00000000000E+00 0. -1.
         21   -1    0    0  501  503 -0.00000000000E+00 -0.00000000000E+00 -0.15169791591E+03  0.15169791591E+03  0.00000000000E+00 0. -1.
          6    2    1    2  501    0 -0.50807543905E+02  0.24973793485E+01 -0.83574189792E+02  0.19489801181E+03  0.16856140242E+03 0.  0.
         24    2    3    3    0    0 -0.30701708760E+02 -0.60790424223E+02 -0.69365974015E+02  0.12682779745E+03  0.81459077188E+02 0.  0.
         -6    2    1    2    0  502  0.50807543905E+02 -0.24973793485E+01  0.62597277855E+03  0.65089640877E+03  0.17098705226E+03 0.  0.
        -24    2    5    5    0    0  0.36956816706E+02  0.63490438814E+02  0.43469583255E+03  0.44802897703E+03  0.79828912680E+02 0.  0.
          5    1    3    3  501    0 -0.20105835145E+02  0.63287803572E+02 -0.14208215777E+02  0.68070214362E+02  0.47000000000E+01 0. -1.
        -11    1    4    4    0    0  0.14927990697E+00 -0.20187551547E+02  0.17091965020E+02  0.26451744559E+02  0.00000000000E+00 0.  1.
         12    1    4    4    0    0 -0.30850988667E+02 -0.40602872676E+02 -0.86457939036E+02  0.10037605289E+03  0.00000000000E+00 0. -1.
         -5    1    5    5    0  502  0.13850727199E+02 -0.65987818162E+02  0.19127694599E+03  0.20286743173E+03  0.47000000000E+01 0.  1.
         11    1    6    6    0    0  0.21055738565E+02 -0.14681193631E+02  0.15768651768E+03  0.15976207132E+03  0.00000000000E+00 0. -1.
        -12    1    6    6    0    0  0.15901078141E+02  0.78171632444E+02  0.27700931487E+03  0.28826690571E+03  0.00000000000E+00 0.  1.
</event>
<event>
12    1  0.8421768E-002  0.2296132E+03  0.7818608E-02  0.1127254E+00
         21   -1    0    0  501  502  0.00000000000E+00  0.00000000000E+00  0.74558484608E+03  0.74558484608E+03  0.00000000000E+00 0.  1.
         21   -1    0    0  502  503 -0.00000000000E+00 -0.00000000000E+00 -0.16336125533E+03  0.16336125533E+03  0.00000000000E+00 0. -1.
         -6    2    1    2    0  503  0.11010302357E+03  0.10245275492E+03 -0.52762610267E+02  0.23372043827E+03  0.17094474964E+03 0.  0.
        -24    2    3    3    0    0  0.12563894041E+03  0.58354722198E+02  0.43867274784E+01  0.15973302037E+03  0.79403888244E+02 0.  0.
          6    2    1    2  501    0 -0.11010302357E+03 -0.10245275492E+03  0.63498620102E+03  0.67522566314E+03  0.17350209763E+03 0.  0.
         24    2    5    5    0    0 -0.68223384766E+02 -0.25216616212E+02  0.16668644763E+03  0.19873214346E+03  0.80123561196E+02 0.  0.
          5    1    5    5  501    0 -0.41879638809E+02 -0.77236138711E+02  0.46829975339E+03  0.47649351968E+03  0.47000000000E+01 0. -1.
        -13    1    6    6    0    0 -0.42416065716E+02 -0.85405852493E+01  0.16196565291E+03  0.16764527118E+03  0.00000000000E+00 0.  1.
         14    1    6    6    0    0 -0.25807319049E+02 -0.16676030963E+02  0.47207947193E+01  0.31086872277E+02  0.00000000000E+00 0. -1.
         -5    1    3    3    0  503 -0.15535916836E+02  0.44098032725E+02 -0.57149337745E+02  0.73987417896E+02  0.47000000000E+01 0.  1.
         11    1    4    4    0    0  0.57217928835E+02  0.68922960888E+02 -0.57493441374E+01  0.89762580599E+02  0.00000000000E+00 0. -1.
        -12    1    4    4    0    0  0.68421011575E+02 -0.10568238690E+02  0.10136071616E+02  0.69970439771E+02  0.00000000000E+00 0.  1.
</event>
<event>
12    1  0.8421768E-002  0.1834000E+03  0.7818608E-02  0.1164559E+00
         21   -1    0    0  501  502  0.00000000000E+00  0.00000000000E+00  0.26520870405E+03  0.26520870405E+03  0.00000000000E+00 0.  1.
         21   -1    0    0  502  503 -0.00000000000E+00 -0.00000000000E+00 -0.12694570496E+03  0.12694570496E+03  0.00000000000E+00 0.  1.
         -6    2    1    2    0  503  0.53140271682E+02  0.30120717429E+02  0.62643522890E+02  0.19377632072E+03  0.17289854082E+03 0.  0.
        -24    2    3    3    0    0  0.16472452435E+02 -0.27928159303E+02  0.78882150138E+02  0.12306575522E+03  0.88721264228E+02 0.  0.
          6    2    1    2  501    0 -0.53140271682E+02 -0.30120717429E+02  0.75619476195E+02  0.19837808830E+03  0.17292892946E+03 0.  0.
         24    2    5    5    0    0  0.68267734380E+01 -0.19824755339E+02 -0.27618340690E+02  0.78452318874E+02  0.70373061852E+02 0.  0.
          5    1    5    5  501    0 -0.59967045120E+02 -0.10295962090E+02  0.10323781689E+03  0.11992576942E+03  0.47000000000E+01 0. -1.
        -11    1    6    6    0    0  0.23889484892E+02 -0.40225529624E+02 -0.16212571188E+02  0.49514121081E+02  0.00000000000E+00 0.  1.
         12    1    6    6    0    0 -0.17062711454E+02  0.20400774285E+02 -0.11405769502E+02  0.28938197793E+02  0.00000000000E+00 0. -1.
         -5    1    3    3    0  503  0.36667819248E+02  0.58048876732E+02 -0.16238627248E+02  0.70710565499E+02  0.47000000000E+01 0.  1.
         11    1    4    4    0    0 -0.19762370225E+02 -0.45180521827E+02  0.23382721567E+02  0.54576391392E+02  0.00000000000E+00 0. -1.
        -12    1    4    4    0    0  0.36234822660E+02  0.17252362524E+02  0.55499428571E+02  0.68489363828E+02  0.00000000000E+00 0.  1.
</event>
<event>
12    1  0.8421768E-002  0.2231220E+03  0.7818608E-02  0.1132519E+00
         21   -1    0    0  501  502  0.00000000000E+00  0.00000000000E+00  0.92417991457E+02  0.92417991457E+02  0.00000000000E+00 0. -1.
         21   -1    0    0  502  503 -0.00000000000E+00 -0.00000000000E+00 -0.55896514866E+03  0.55896514866E+03  0.00000000000E+00 0. -1.
         -6    2    1    2    0  503 -0.86213472774E+02  0.10583378527E+03 -0.31433325398E+03  0.38547221211E+03  0.17649328248E+03 0.  0.
        -24    2    3    3    0    0  0.19664811606E+02  0.21217154404E+02 -0.14090555567E+03  0.16531444626E+03  0.81471578283E+02 0.  0.
          6    2    1    2  501    0  0.86213472774E+02 -0.10583378527E+03 -0.15221390322E+03  0.26591092801E+03  0.17001763528E+03 0.  0.
         24    2    5    5    0    0  0.80490389816E+02 -0.14193738466E+03 -0.12637197282E+03  0.22089849712E+03  0.78748628562E+02 0.  0.
          5    1    5    5  501    0  0.57230829578E+01  0.36103599387E+02 -0.25841930401E+02  0.45012430884E+02  0.47000000000E+01 0. -1.
        -11    1    6    6    0    0  0.12601439005E+02 -0.99728319827E+02 -0.80096010183E+02  0.12852978210E+03  0.00000000000E+00 0.  1.
         12    1    6    6    0    0  0.67888950811E+02 -0.42209064829E+02 -0.46275962638E+02  0.92368715018E+02  0.00000000000E+00 0. -1.
         -5    1    3    3    0  503 -0.10587828438E+03  0.84616630866E+02 -0.17342769831E+03  0.22015776585E+03  0.47000000000E+01 0.  1.
         13    1    4    4    0    0 -0.29897196325E+02  0.31214164214E+01 -0.75608070441E+02  0.81364401948E+02  0.00000000000E+00 0. -1.
        -14    1    4    4    0    0  0.49562007930E+02  0.18095737983E+02 -0.65297485231E+02  0.83950044316E+02  0.00000000000E+00 0.  1.
</event>
<event>
12    1  0.8421768E-002  0.3185151E+03  0.7818608E-02  0.1076364E+00
         21   -1    0    0  503  502  0.00000000000E+00  0.00000000000E+00  0.15034765646E+03  0.15034765646E+03  0.00000000000E+00 0. -1.
         21   -1    0    0  501  503 -0.00000000000E+00 -0.00000000000E+00 -0.10260955175E+04  0.10260955175E+04  0.00000000000E+00 0. -1.
          6    2    1    2  501    0  0.95688803735E+02  0.24774745074E+03 -0.78221068187E+03  0.84447775041E+03  0.17536810887E+03 0.  0.
         24    2    3    3    0    0  0.57564341947E+02  0.23096500400E+03 -0.75202475867E+03  0.79282114324E+03  0.79784967159E+02 0.  0.
         -6    2    1    2    0  502 -0.95688803735E+02 -0.24774745074E+03 -0.93537179151E+02  0.33196542353E+03  0.17583143071E+03 0.  0.
        -24    2    5    5    0    0 -0.78728851252E+02 -0.94869666397E+02 -0.10098801187E+03  0.17789770516E+03  0.79060289269E+02 0.  0.
          5    1    3    3  501    0  0.38124461788E+02  0.16782446749E+02 -0.30185923199E+02  0.51656607175E+02  0.47000000000E+01 0. -1.
        -11    1    4    4    0    0  0.53864881823E+02  0.65167476047E+02 -0.22739552596E+03  0.24260451491E+03  0.00000000000E+00 0.  1.
         12    1    4    4    0    0  0.36994601236E+01  0.16579752795E+03 -0.52462923271E+03  0.55021662833E+03  0.00000000000E+00 0. -1.
         -5    1    5    5    0  502 -0.16959952482E+02 -0.15287778435E+03  0.74508327183E+01  0.15406771837E+03  0.47000000000E+01 0.  1.
         11    1    6    6    0    0 -0.80422754792E+02 -0.10394615039E+03 -0.77297258729E+02  0.15247126902E+03  0.00000000000E+00 0. -1.
        -12    1    6    6    0    0  0.16939035397E+01  0.90764839885E+01 -0.23690753140E+02  0.25426436147E+02  0.00000000000E+00 0.  1.
</event>
<event>
12    1  0.8421768E-002  0.2973945E+03  0.7818608E-02  0.1086574E+00
         21   -1    0    0  503  502  0.00000000000E+00  0.00000000000E+00  0.41853001151E+03  0.41853001151E+03  0.00000000000E+00 0. -1.
         21   -1    0    0  501  503 -0.00000000000E+00 -0.00000000000E+00 -0.24390865581E+03  0.24390865581E+03  0.00000000000E+00 0.  1.
          6    2    1    2  501    0  0.18402077350E+03  0.15861845665E+03  0.20860539739E+03  0.36310876969E+03  0.17119669077E+03 0.  0.
         24    2    3    3    0    0  0.12548118087E+03  0.16836899717E+03  0.20290118542E+03  0.30330421316E+03  0.82042115523E+02 0.  0.
         -6    2    1    2    0  502 -0.18402077350E+03 -0.15861845665E+03 -0.33984041689E+02  0.29932989764E+03  0.17152263016E+03 0.  0.
        -24    2    5    5    0    0 -0.14533388688E+03 -0.15862102556E+03 -0.75030320787E+02  0.24272987793E+03  0.83699917406E+02 0.  0.
          5    1    3    3  501    0  0.58539592638E+02 -0.97505405170E+01  0.57042119674E+01  0.59804556521E+02  0.47000000000E+01 0. -1.
        -11    1    4    4    0    0  0.47107857166E+02  0.24388164536E+02  0.89273917292E+02  0.10384490881E+03  0.00000000000E+00 0.  1.
         12    1    4    4    0    0  0.78373323701E+02  0.14398083263E+03  0.11362726813E+03  0.19945930436E+03  0.00000000000E+00 0. -1.
         -5    1    5    5    0  502 -0.38686886624E+02  0.25689144698E-02  0.41046279098E+02  0.56600019709E+02  0.47000000000E+01 0.  1.
         13    1    6    6    0    0 -0.17472843097E+01 -0.29318488288E+01  0.12948382096E+02  0.13390643709E+02  0.00000000000E+00 0. -1.
        -14    1    6    6    0    0 -0.14358660257E+03 -0.15568917673E+03 -0.87978702883E+02  0.22933923422E+03  0.00000000000E+00 0.  1.
</event>
<event>
12    1  0.8421768E-002  0.2062521E+03  0.7818608E-02  0.1144784E+00
         21   -1    0    0  501  502  0.00000000000E+00  0.00000000000E+00  0.95500061485E+02  0.95500061485E+02  0.00000000000E+00 0.  1.
         21   -1    0    0  502  503 -0.00000000000E+00 -0.00000000000E+00 -0.59872312369E+03  0.59872312369E+03  0.00000000000E+00 0. -1.
         -6    2    1    2    0  503 -0.84484064357E+02 -0.72123163059E+02 -0.42806520437E+03  0.47470412369E+03  0.17252500712E+03 0.  0.
        -24    2    3    3    0    0 -0.45553998399E+02 -0.11318122502E+03 -0.27224294055E+03  0.30886087726E+03  0.79960404898E+02 0.  0.
          6    2    1    2  501    0  0.84484064357E+02  0.72123163059E+02 -0.75157857840E+02  0.21951906148E+03  0.17378321835E+03 0.  0.
         24    2    5    5    0    0  0.91528382429E+02  0.90058992373E+01 -0.10291492727E+01  0.12179205988E+03  0.79835428788E+02 0.  0.
          5    1    5    5  501    0 -0.70443180720E+01  0.63117263821E+02 -0.74128708567E+02  0.97727001608E+02  0.47000000000E+01 0. -1.
        -13    1    6    6    0    0  0.51828154248E+01 -0.23734588238E+02 -0.14769222711E+02  0.28431007615E+02  0.00000000000E+00 0.  1.
         14    1    6    6    0    0  0.86345567004E+02  0.32740487475E+02  0.13740073438E+02  0.93361052262E+02  0.00000000000E+00 0. -1.
         -5    1    3    3    0  503 -0.38930065958E+02  0.41058061965E+02 -0.15582226382E+03  0.16584324644E+03  0.47000000000E+01 0.  1.
         13    1    4    4    0    0 -0.25549407184E+02 -0.72550304660E+02 -0.24316671903E+03  0.25504190275E+03  0.00000000000E+00 0. -1.
        -14    1    4    4    0    0 -0.20004591215E+02 -0.40630920364E+02 -0.29076221525E+02  0.53818974511E+02  0.00000000000E+00 0.  1.
</event>
<event>
12    1  0.8421768E-002  0.2020354E+03  0.7818608E-02  0.1148059E+00
         21   -1    0    0  503  502  0.00000000000E+00  0.00000000000E+00  0.28115399135E+03  0.28115399135E+03  0.00000000000E+00 0. -1.
         21   -1    0    0  501  503 -0.00000000000E+00 -0.00000000000E+00 -0.18723577620E+03  0.18723577620E+03  0.00000000000E+00 0. -1.
          6    2    1    2  501    0 -0.53429551697E+02  0.90148006405E+02 -0.64160275269E+02  0.21186080099E+03  0.17258933345E+03 0.  0.
         24    2    3    3    0    0 -0.48458673773E+02  0.12095301896E+03 -0.85587965832E+02  0.17371772366E+03  0.76646407336E+02 0.  0.
         -6    2    1    2    0  502  0.53429551697E+02 -0.90148006405E+02  0.15807849042E+03  0.25652896655E+03  0.17273367215E+03 0.  0.
        -24    2    5    5    0    0  0.92458799537E+02 -0.10232043201E+03  0.13680940797E+03  0.21020495550E+03  0.80319417249E+02 0.  0.
          5    1    3    3  501    0 -0.49708779239E+01 -0.30805012555E+02  0.21427690563E+02  0.38143077337E+02  0.47000000000E+01 0. -1.
        -11    1    4    4    0    0 -0.27903547239E+02  0.27826137358E+01 -0.31405018629E+02  0.42102566226E+02  0.00000000000E+00 0.  1.
         12    1    4    4    0    0 -0.20555126535E+02  0.11817040522E+03 -0.54182947203E+02  0.13161515743E+03  0.00000000000E+00 0. -1.
         -5    1    5    5    0  502 -0.39029247839E+02  0.12172425606E+02  0.21269082447E+02  0.46324011054E+02  0.47000000000E+01 0.  1.
         13    1    6    6    0    0  0.53679305166E+02 -0.15374995448E+02  0.19542165223E+02  0.59158723023E+02  0.00000000000E+00 0. -1.
        -14    1    6    6    0    0  0.38779494371E+02 -0.86945436563E+02  0.11726724275E+03  0.15104623247E+03  0.00000000000E+00 0.  1.
</event>
<event>
12    1  0.8421768E-002  0.1848159E+03  0.7818608E-02  0.1163600E+00
         21   -1    0    0  501  502  0.00000000000E+00  0.00000000000E+00  0.74742248274E+02  0.74742248274E+02  0.00000000000E+00 0.  1.
         21   -1    0    0  502  503 -0.00000000000E+00 -0.00000000000E+00 -0.49110976085E+03  0.49110976085E+03  0.00000000000E+00 0.  1.
         -6    2    1    2    0  503  0.64698390466E+02 -0.82090262962E+01 -0.28781009767E+03  0.34204031965E+03  0.17292674201E+03 0.  0.
        -24    2    3    3    0    0  0.72600099642E+02 -0.31863490052E+02 -0.29782204186E+03  0.31475846322E+03  0.63944234196E+02 0.  0.
          6    2    1    2  501    0 -0.64698390466E+02  0.82090262962E+01 -0.12855741491E+03  0.22381168948E+03  0.17120570545E+03 0.  0.
         24    2    5    5    0    0 -0.88133344388E+02  0.17834094489E+02 -0.15014961587E+03  0.19019395390E+03  0.74453284922E+02 0.  0.
          5    1    5    5  501    0  0.23434953922E+02 -0.96250681926E+01  0.21592200963E+02  0.33617735579E+02  0.47000000000E+01 0. -1.
        -11    1    6    6    0    0 -0.11550047399E+02 -0.20462905408E+02 -0.91185677826E+01  0.25204808491E+02  0.00000000000E+00 0.  1.
         12    1    6    6    0    0 -0.76583296989E+02  0.38296999897E+02 -0.14103104809E+03  0.16498914541E+03  0.00000000000E+00 0. -1.
         -5    1    3    3    0  503 -0.79017091760E+01  0.23654463755E+02  0.10011944189E+02  0.27281856423E+02  0.47000000000E+01 0.  1.
         13    1    4    4    0    0  0.57202827774E+02 -0.39922754970E+02 -0.14451858305E+03  0.16047308409E+03  0.00000000000E+00 0. -1.
        -14    1    4    4    0    0  0.15397271867E+02  0.80592649182E+01 -0.15330345881E+03  0.15428537914E+03  0.00000000000E+00 0.  1.
</event>
<event>
12    1  0.8421768E-002  0.3269176E+03  0.7818608E-02  0.1072526E+00
         21   -1    0    0  501  502  0.00000000000E+00  0.00000000000E+00  0.17857477538E+03  0.17857477538E+03  0.00000000000E+00 0. -1.
         21   -1    0    0  502  503 -0.00000000000E+00 -0.00000000000E+00 -0.60704997960E+03  0.60704997960E+03  0.00000000000E+00 0. -1.
         -6    2    1    2    0  503 -0.26292537071E+03  0.90776502118E+02 -0.26170107300E+03  0.41876312687E+03  0.17177013978E+03 0.  0.
        -24    2    3    3    0    0 -0.54981350173E+02  0.41596219380E+02 -0.13385679119E+03  0.16971360112E+03  0.78306267457E+02 0.  0.
          6    2    1    2  501    0  0.26292537071E+03 -0.90776502118E+02 -0.16677413121E+03  0.36686162811E+03  0.17147512776E+03 0.  0.
         24    2    5    5    0    0  0.14157941011E+03  0.15346787971E+02 -0.10209422336E+03  0.19310151953E+03  0.81146245355E+02 0.  0.
          5    1    5    5  501    0  0.12134596060E+03 -0.10612329009E+03 -0.64679907856E+02  0.17376010858E+03  0.47000000000E+01 0. -1.
        -11    1    6    6    0    0  0.59047392834E+01  0.27035036141E+02 -0.15377479765E+02  0.31657953330E+02  0.00000000000E+00 0.  1.
         12    1    6    6    0    0  0.13567467082E+03 -0.11688248170E+02 -0.86716743593E+02  0.16144356620E+03  0.00000000000E+00 0. -1.
         -5    1    3    3    0  503 -0.20794402054E+03  0.49180282739E+02 -0.12784428181E+03  0.24904952576E+03  0.47000000000E+01 0.  1.
         11    1    4    4    0    0 -0.61342162374E+02  0.24321514227E+02 -0.47219869940E+02  0.81142547755E+02  0.00000000000E+00 0. -1.
        -12    1    4    4    0    0  0.63608122012E+01  0.17274705153E+02 -0.86636921252E+02  0.88571053364E+02  0.00000000000E+00 0.  1.
</event>
<event>
12    1  0.8421768E-002  0.1822698E+03  0.7818608E-02  0.1168255E+00
         21   -1    0    0  501  502  0.00000000000E+00  0.00000000000E+00  0.93339969154E+03  0.93339969154E+03  0.00000000000E+00 0. -1.
         21   -1    0    0  502  503 -0.00000000000E+00 -0.00000000000E+00 -0.50121242357E+02  0.50121242357E+02  0.00000000000E+00 0. -1.
         -6    2    1    2    0  503  0.53067297562E+02  0.21987554923E+02  0.16776451910E+03  0.24772405085E+03  0.17298173562E+03 0.  0.
        -24    2    3    3    0    0 -0.36870118621E+02  0.29049867434E+02  0.88055440273E+02  0.12724898150E+03  0.78963550365E+02 0.  0.
          6    2    1    2  501    0 -0.53067297562E+02 -0.21987554923E+02  0.71551393008E+03  0.73579688305E+03  0.16167027653E+03 0.  0.
         24    2    5    5    0    0 -0.85514523466E+02  0.13109776756E+02  0.41288492271E+03  0.42938041602E+03  0.80056119631E+02 0.  0.
          5    1    5    5  501    0  0.32447225905E+02 -0.35097331679E+02  0.30262900738E+03  0.30641646703E+03  0.47000000000E+01 0. -1.
        -13    1    6    6    0    0 -0.21212581712E+02  0.95111440458E-01  0.14655414571E+02  0.25783014667E+02  0.00000000000E+00 0.  1.
         14    1    6    6    0    0 -0.64301941755E+02  0.13014665315E+02  0.39822950814E+03  0.40359740135E+03  0.00000000000E+00 0. -1.
         -5    1    3    3    0  503  0.89937416183E+02 -0.70623125107E+01  0.79709078824E+02  0.12047506935E+03  0.47000000000E+01 0.  1.
         13    1    4    4    0    0  0.74370614724E+01  0.44271705162E+02  0.39833954025E+02  0.60016978053E+02  0.00000000000E+00 0. -1.
        -14    1    4    4    0    0 -0.44307180094E+02 -0.15221837728E+02  0.48221486248E+02  0.67232003448E+02  0.00000000000E+00 0.  1.
</event>
<event>
12    1  0.8421768E-002  0.1905178E+03  0.7818608E-02  0.1158232E+00
         21   -1    0    0  503  502  0.00000000000E+00  0.00000000000E+00  0.61419011456E+02  0.61419011456E+02  0.00000000000E+00 0. -1.
         21   -1    0    0  501  503 -0.00000000000E+00 -0.00000000000E+00 -0.64473125202E+03  0.64473125202E+03  0.00000000000E+00 0. -1.
          6    2    1    2  501    0  0.82477490143E+02 -0.16770837814E+02 -0.39738085924E+03  0.44069102783E+03  0.17091880335E+03 0.  0.
         24    2    3    3    0    0  0.14285045676E+02 -0.67409454809E+02 -0.23937678776E+03  0.26124227298E+03  0.78728530690E+02 0.  0.
         -6    2    1    2    0  502 -0.82477490143E+02  0.16770837814E+02 -0.18593138132E+03  0.26545923564E+03  0.16974784195E+03 0.  0.
        -24    2    5    5    0    0 -0.56158278406E+02 -0.49202355862E+02 -0.15025542977E+03  0.18583495097E+03  0.79895624231E+02 0.  0.
          5    1    3    3  501    0  0.68192444467E+02  0.50638616995E+02 -0.15800407148E+03  0.17944875485E+03  0.47000000000E+01 0. -1.
        -13    1    4    4    0    0 -0.23471981322E+02 -0.31628106821E+02 -0.43972447335E+02  0.59032594157E+02  0.00000000000E+00 0.  1.
         14    1    4    4    0    0  0.37757026999E+02 -0.35781347987E+02 -0.19540434043E+03  0.20220967882E+03  0.00000000000E+00 0. -1.
         -5    1    5    5    0  502 -0.26319211737E+02  0.65973193676E+02 -0.35675951549E+02  0.79624284670E+02  0.47000000000E+01 0.  1.
         13    1    6    6    0    0 -0.47158545707E+02  0.21785919340E+01 -0.33292618639E+02  0.57767405618E+02  0.00000000000E+00 0. -1.
        -14    1    6    6    0    0 -0.89997326990E+01 -0.51380947796E+02 -0.11696281113E+03  0.12806754535E+03  0.00000000000E+00 0.  1.
</event>
<event>
12    1  0.8421768E-002  0.2905223E+03  0.7818608E-02  0.1090210E+00
         21   -1    0    0  503  502  0.00000000000E+00  0.00000000000E+00  0.85586138861E+03  0.85586138861E+03  0.00000000000E+00 0. -1.
         21   -1    0    0  501  503 -0.00000000000E+00 -0.00000000000E+00 -0.99604449112E+02  0.99604449112E+02  0.00000000000E+00 0. -1.
          6    2    1    2  501    0 -0.22976503241E+03 -0.46671994061E+02  0.43402531766E+03  0.52228460448E+03  0.17156044580E+03 0.  0.
         24    2    3    3    0    0 -0.21062965023E+03 -0.20556304708E+02  0.25649060026E+03  0.34176076128E+03  0.78902336549E+02 0.  0.
         -6    2    1    2    0  502  0.22976503241E+03  0.46671994061E+02  0.32223162184E+03  0.43318123324E+03  0.16983084988E+03 0.  0.
        -24    2    5    5    0    0  0.14952027121E+03  0.92319307428E+01  0.29299908987E+03  0.33981308575E+03  0.84752147665E+02 0.  0.
          5    1    3    3  501    0 -0.19135382183E+02 -0.26115689352E+02  0.17753471740E+03  0.18052384320E+03  0.47000000000E+01 0. -1.
        -13    1    4    4    0    0 -0.60470003506E+02  0.16416506639E+02  0.12054606439E+03  0.13585829623E+03  0.00000000000E+00 0.  1.
         14    1    4    4    0    0 -0.15015964672E+03 -0.36972811347E+02  0.13594453587E+03  0.20590246505E+03  0.00000000000E+00 0. -1.
         -5    1    5    5    0  502  0.80244761196E+02  0.37440063318E+02  0.29232531972E+02  0.93368147493E+02  0.47000000000E+01 0.  1.
         11    1    6    6    0    0  0.11410897962E+03  0.30930483113E+02  0.26369292632E+03  0.28898358675E+03  0.00000000000E+00 0. -1.
        -12    1    6    6    0    0  0.35411291593E+02 -0.21698552371E+02  0.29306163548E+02  0.50829499006E+02  0.00000000000E+00 0.  1.
</event>
<event>
12    1  0.8421768E-002  0.1919803E+03  0.7818608E-02  0.1156839E+00
         21   -1    0    0  501  502  0.00000000000E+00  0.00000000000E+00  0.15967280828E+04  0.15967280828E+04  0.00000000000E+00 0.  1.
         21   -1    0    0  502  503 -0.00000000000E+00 -0.00000000000E+00 -0.25849956995E+02  0.25849956995E+02  0.00000000000E+00 0.  1.
         -6    2    1    2    0  503 -0.81226773422E+02  0.24412341526E+02  0.51732762395E+03  0.55180098025E+03  0.17222862759E+03 0.  0.
        -24    2    3    3    0    0 -0.50720407021E+02 -0.61987772616E+02  0.23058865515E+03  0.25074127795E+03  0.57315067346E+02 0.  0.
          6    2    1    2  501    0  0.81226773422E+02 -0.24412341526E+02  0.10535505018E+04  0.10707770595E+04  0.17146749008E+03 0.  0.
         24    2    5    5    0    0  0.88848736105E+02 -0.10764702211E+02  0.41887763425E+03  0.43589432136E+03  0.80841883938E+02 0.  0.
          5    1    5    5  501    0 -0.76219626836E+01 -0.13647639315E+02  0.63467286757E+03  0.63488273815E+03  0.47000000000E+01 0. -1.
        -11    1    6    6    0    0  0.50110184068E+02 -0.11324154599E+02  0.36987799879E+03  0.37342870941E+03  0.00000000000E+00 0.  1.
         12    1    6    6    0    0  0.38738552037E+02  0.55945238814E+00  0.48999635461E+02  0.62465611949E+02  0.00000000000E+00 0. -1.
         -5    1    3    3    0  503 -0.30506366401E+02  0.86400114142E+02  0.28673896880E+03  0.30105970229E+03  0.47000000000E+01 0.  1.
         11    1    4    4    0    0  0.11434467421E+02 -0.11330086757E+01  0.28216886602E+02  0.30466759647E+02  0.00000000000E+00 0. -1.
        -12    1    4    4    0    0 -0.62154874442E+02 -0.60854763941E+02  0.20237176855E+03  0.22027451831E+03  0.00000000000E+00 0.  1.
</event>
<event>
12    1  0.8421768E-002  0.2383239E+03  0.7818608E-02  0.1120987E+00
         21   -1    0    0  503  502  0.00000000000E+00  0.00000000000E+00  0.99117033159E+02  0.99117033159E+02  0.00000000000E+00 0.  1.
         21   -1    0    0  501  503 -0.00000000000E+00 -0.00000000000E+00 -0.65061072553E+03  0.65061072553E+03  0.00000000000E+00 0.  1.
          6    2    1    2  501    0  0.16260362210E+03  0.21499049328E+02 -0.40625790757E+03  0.47100292574E+03  0.17290494948E+03 0.  0.
         24    2    3    3    0    0  0.10189549011E+03 -0.53742254043E+02 -0.21412103272E+03  0.25586250718E+03  0.79667340570E+02 0.  0.
         -6    2    1    2    0  502 -0.16260362210E+03 -0.21499049328E+02 -0.14523578480E+03  0.27872483295E+03  0.17231352899E+03 0.  0.
        -24    2    5    5    0    0 -0.19068902933E+03 -0.12815411692E+02 -0.11549117840E+03  0.23664125809E+03  0.78321976861E+02 0.  0.
          5    1    3    3  501    0  0.60708131981E+02  0.75241303371E+02 -0.19213687485E+03  0.21514041856E+03  0.47000000000E+01 0. -1.
        -11    1    4    4    0    0  0.78561894009E+02  0.21012123043E+01 -0.10601660330E+03  0.13196933908E+03  0.00000000000E+00 0.  1.
         12    1    4    4    0    0  0.23333596105E+02 -0.55843466347E+02 -0.10810442942E+03  0.12389316810E+03  0.00000000000E+00 0. -1.
         -5    1    5    5    0  502  0.28085407237E+02 -0.86836376365E+01 -0.29744606403E+02  0.42083574853E+02  0.47000000000E+01 0.  1.
         11    1    6    6    0    0 -0.84998046443E+02  0.30872694457E+02 -0.66374851980E+02  0.11217580906E+03  0.00000000000E+00 0. -1.
        -12    1    6    6    0    0 -0.10569098289E+03 -0.43688106149E+02 -0.49116326420E+02  0.12446544904E+03  0.00000000000E+00 0.  1.
</event>
<event>
12    1  0.8421768E-002  0.1755570E+03  0.7818608E-02  0.1173814E+00
         21   -1    0    0  501  502  0.00000000000E+00  0.00000000000E+00  0.12269396504E+04  0.12269396504E+04  0.00000000000E+00 0. -1.
         21   -1    0    0  502  503 -0.00000000000E+00 -0.00000000000E+00 -0.24222136810E+02  0.24222136810E+02  0.00000000000E+00 0. -1.
         -6    2    1    2    0  503  0.22851060931E+02  0.26568612277E+02  0.60548859725E+03  0.62866468203E+03  0.16545325288E+03 0.  0.
        -24    2    3    3    0    0 -0.23372071415E+01 -0.46147883036E+02  0.39158108287E+03  0.40128690773E+03  0.74567742392E+02 0.  0.
          6    2    1    2  501    0 -0.22851060931E+02 -0.26568612277E+02  0.59722891631E+03  0.62249710515E+03  0.17202385096E+03 0.  0.
         24    2    5    5    0    0 -0.61035900329E+02  0.17949838814E+02  0.24037548017E+03  0.26082537647E+03  0.78752318680E+02 0.  0.
          5    1    5    5  501    0  0.38184839398E+02 -0.44518451091E+02  0.35685343614E+03  0.36167172869E+03  0.47000000000E+01 0. -1.
        -11    1    6    6    0    0 -0.77666310326E+02  0.12634658852E+01  0.18549330246E+03  0.20110051557E+03  0.00000000000E+00 0.  1.
         12    1    6    6    0    0  0.16630409998E+02  0.16686372929E+02  0.54882177716E+02  0.59724860896E+02  0.00000000000E+00 0. -1.
         -5    1    3    3    0  503  0.25188268072E+02  0.72716495312E+02  0.21390751438E+03  0.22737777430E+03  0.47000000000E+01 0.  1.
         11    1    4    4    0    0  0.92978966072E+00 -0.14650817341E+02  0.34289273584E+03  0.34320684615E+03  0.00000000000E+00 0. -1.
        -12    1    4    4    0    0 -0.32669968022E+01 -0.31497065695E+02  0.48688347037E+02  0.58080061576E+02  0.00000000000E+00 0.  1.
</event>
<event>
12    1  0.8421768E-002  0.1929907E+03  0.7818608E-02  0.1156389E+00
         21   -1    0    0  503  502  0.00000000000E+00  0.00000000000E+00  0.33341255248E+02  0.33341255248E+02  0.00000000000E+00 0.  1.
         21   -1    0    0  501  503 -0.00000000000E+00 -0.00000000000E+00 -0.11498265043E+04  0.11498265043E+04  0.00000000000E+00 0.  1.
          6    2    1    2  501    0 -0.54665048772E+02  0.60720127849E+02 -0.67562795644E+03  0.70191877826E+03  0.17187679968E+03 0.  0.
         24    2    3    3    0    0 -0.24693397312E+02  0.65826404936E+02 -0.65824619837E+03  0.66658339273E+03  0.78118386663E+02 0.  0.
         -6    2    1    2    0  502  0.54665048772E+02 -0.60720127849E+02 -0.44085729262E+03  0.48124898129E+03  0.17484343871E+03 0.  0.
        -24    2    5    5    0    0  0.32315625728E+02 -0.82857118939E+02 -0.16420391359E+03  0.20277326384E+03  0.79021955587E+02 0.  0.
          5    1    3    3  501    0 -0.29971651460E+02 -0.51062770870E+01 -0.17381758067E+02  0.35335385528E+02  0.47000000000E+01 0. -1.
        -11    1    4    4    0    0 -0.23936179257E+02  0.34722165222E+01 -0.54506967025E+02  0.59632259887E+02  0.00000000000E+00 0.  1.
         12    1    4    4    0    0 -0.75721805510E+00  0.62354188414E+02 -0.60373923135E+03  0.60695113285E+03  0.00000000000E+00 0. -1.
         -5    1    5    5    0  502  0.22349423044E+02  0.22136991090E+02 -0.27665337903E+03  0.27847571745E+03  0.47000000000E+01 0.  1.
         13    1    6    6    0    0 -0.10152017296E+02 -0.71864600156E+02 -0.12165997017E+03  0.14166415409E+03  0.00000000000E+00 0. -1.
        -14    1    6    6    0    0  0.42467643024E+02 -0.10992518783E+02 -0.42543943418E+02  0.61109109753E+02  0.00000000000E+00 0.  1.
</event>
<event>
12    1  0.8421768E-002  0.2026925E+03  0.7818608E-02  0.1147572E+00
         21   -1    0    0  501  502  0.00000000000E+00  0.00000000000E+00  0.99049747199E+02  0.99049747199E+02  0.00000000000E+00 0. -1.
         21   -1    0    0  502  503 -0.00000000000E+00 -0.00000000000E+00 -0.77720126134E+03  0.77720126134E+03  0.00000000000E+00 0. -1.
         -6    2    1    2    0  503  0.65800030194E+02  0.83563132797E+02 -0.63842074128E+03  0.66970125969E+03  0.17206479361E+03 0.  0.
        -24    2    3    3    0    0  0.78836272464E+02  0.70488551671E+02 -0.27186917214E+03  0.30265489869E+03  0.80643333077E+02 0.  0.
          6    2    1    2  501    0 -0.65800030194E+02 -0.83563132797E+02 -0.39730772854E+02  0.20654974884E+03  0.17254513409E+03 0.  0.
         24    2    5    5    0    0 -0.93989798369E+02 -0.29242830224E+02 -0.69011454553E+02  0.13854381806E+03  0.68866416669E+02 0.  0.
          5    1    5    5  501    0  0.28189768174E+02 -0.54320302572E+02  0.29280681699E+02  0.68005930786E+02  0.47000000000E+01 0. -1.
        -11    1    6    6    0    0 -0.95582516425E+02 -0.35047013964E+02 -0.77633802367E+02  0.12802858237E+03  0.00000000000E+00 0.  1.
         12    1    6    6    0    0  0.15927180561E+01  0.58041837394E+01  0.86223478135E+01  0.10515235685E+02  0.00000000000E+00 0. -1.
         -5    1    3    3    0  503 -0.13036242269E+02  0.13074581125E+02 -0.36655156915E+03  0.36704636101E+03  0.47000000000E+01 0.  1.
         13    1    4    4    0    0  0.89259200812E+02  0.41056934327E+02 -0.23250688848E+03  0.25241301467E+03  0.00000000000E+00 0. -1.
        -14    1    4    4    0    0 -0.10422928348E+02  0.29431617344E+02 -0.39362283660E+02  0.50241884019E+02  0.00000000000E+00 0.  1.
</event>
<event>
12    1  0.8421768E-002  0.2739601E+03  0.7818608E-02  0.1099422E+00
         21   -1    0    0  501  502  0.00000000000E+00  0.00000000000E+00  0.39170501033E+02  0.39170501033E+02  0.00000000000E+00 0.  1.
         21   -1    0    0  502  503 -0.00000000000E+00 -0.00000000000E+00 -0.20644284883E+04  0.20644284883E+04  0.00000000000E+00 0. -1.
         -6    2    1    2    0  503  0.56045839309E+01 -0.20969622956E+03 -0.70833060137E+03  0.75847747469E+03  0.17190671518E+03 0.  0.
        -24    2    3    3    0    0  0.52040790290E+02 -0.56205655549E+02 -0.30559007603E+03  0.32495965692E+03  0.79662817485E+02 0.  0.
          6    2    1    2  501    0 -0.56045839309E+01  0.20969622956E+03 -0.13169273859E+04  0.13451215146E+04  0.17621075270E+03 0.  0.
         24    2    5    5    0    0 -0.42093845687E+02  0.12352043466E+03 -0.49027499113E+03  0.51317559956E+03  0.77139091447E+02 0.  0.
          5    1    5    5  501    0  0.36489261756E+02  0.86175794906E+02 -0.82665239474E+03  0.83194591506E+03  0.47000000000E+01 0. -1.
        -13    1    6    6    0    0 -0.64784384825E+02  0.95737620347E+02 -0.38270990490E+03  0.39978691796E+03  0.00000000000E+00 0.  1.
         14    1    6    6    0    0  0.22690539138E+02  0.27782814310E+02 -0.10756508624E+03  0.11338868160E+03  0.00000000000E+00 0. -1.
         -5    1    3    3    0  503 -0.46436206359E+02 -0.15349057401E+03 -0.40274052534E+03  0.43351781777E+03  0.47000000000E+01 0.  1.
         13    1    4    4    0    0  0.37718102231E+02 -0.76511976484E+02 -0.24709798810E+03  0.26140802111E+03  0.00000000000E+00 0. -1.
        -14    1    4    4    0    0  0.14322688059E+02  0.20306320935E+02 -0.58492087937E+02  0.63551635812E+02  0.00000000000E+00 0.  1.
</event>
<event>
12    1  0.8421768E-002  0.2588764E+03  0.7818608E-02  0.1107831E+00
         21   -1    0    0  503  502  0.00000000000E+00  0.00000000000E+00  0.64048777355E+03  0.64048777355E+03  0.00000000000E+00 0. -1.
         21   -1    0    0  501  503 -0.00000000000E+00 -0.00000000000E+00 -0.11126540362E+03  0.11126540362E+03  0.00000000000E+00 0.  1.
          6    2    1    2  501    0 -0.18798456541E+03  0.49939639673E+02  0.17268707024E+03  0.31118775777E+03  0.17083568688E+03 0.  0.
         24    2    3    3    0    0 -0.12712338475E+03  0.29788724978E+02  0.19042828626E+03  0.24450205150E+03  0.80440026694E+02 0.  0.
         -6    2    1    2    0  502  0.18798456541E+03 -0.49939639673E+02  0.35653529969E+03  0.44056541940E+03  0.17072874512E+03 0.  0.
        -24    2    5    5    0    0  0.15675708583E+03 -0.91933349507E+02  0.23104300138E+03  0.30451750843E+03  0.79533136137E+02 0.  0.
          5    1    3    3  501    0 -0.60861180658E+02  0.20150914695E+02 -0.17741216017E+02  0.66685706264E+02  0.47000000000E+01 0. -1.
        -13    1    4    4    0    0 -0.12552932528E+03  0.26047438343E+02  0.12536260950E+03  0.17930940971E+03  0.00000000000E+00 0.  1.
         14    1    4    4    0    0 -0.15940594661E+01  0.37412866356E+01  0.65065676762E+02  0.65192641792E+02  0.00000000000E+00 0. -1.
         -5    1    5    5    0  502  0.31227479582E+02  0.41993709834E+02  0.12549229831E+03  0.13604791098E+03  0.47000000000E+01 0.  1.
         13    1    6    6    0    0  0.84281480901E+02 -0.16765807790E+02  0.14785884071E+03  0.17101665741E+03  0.00000000000E+00 0. -1.
        -14    1    6    6    0    0  0.72475604925E+02 -0.75167541717E+02  0.83184160663E+02  0.13350085102E+03  0.00000000000E+00 0.  1.
</event>
<event>
12    1  0.8421768E-002  0.1824191E+03  0.7818608E-02  0.1165738E+00
         21   -1    0    0  503  502  0.00000000000E+00  0.00000000000E+00  0.15926842391E+03  0.15926842391E+03  0.00000000000E+00 0.  1.
         21   -1    0    0  501  503 -0.00000000000E+00 -0.00000000000E+00 -0.25303690326E+03  0.25303690326E+03  0.00000000000E+00 0.  1.
          6    2    1    2  501    0 -0.53740369903E+02  0.16346430094E+02  0.40255722509E+02  0.18680804842E+03  0.17355543963E+03 0.  0.
         24    2    3    3    0    0  0.37154182235E+02 -0.46490299580E+01  0.28844128497E+02  0.92707339444E+02  0.79753497108E+02 0.  0.
         -6    2    1    2    0  502  0.53740369903E+02 -0.16346430094E+02 -0.13402420185E+03  0.22549727875E+03  0.17242767443E+03 0.  0.
        -24    2    5    5    0    0  0.24616588599E+02  0.40241053796E+02 -0.13039264185E+03  0.16157845368E+03  0.82945987245E+02 0.  0.
          5    1    3    3  501    0 -0.90894552139E+02  0.20995460052E+02  0.11411594012E+02  0.94100708973E+02  0.47000000000E+01 0. -1.
        -11    1    4    4    0    0 -0.21120239000E+02  0.15028015900E+02  0.13892348342E+02  0.29409234940E+02  0.00000000000E+00 0.  1.
         12    1    4    4    0    0  0.58274421235E+02 -0.19677045858E+02  0.14951780156E+02  0.63298104504E+02  0.00000000000E+00 0. -1.
         -5    1    5    5    0  502  0.29123781305E+02 -0.56587483891E+02 -0.36315600023E+01  0.63918825072E+02  0.47000000000E+01 0.  1.
         11    1    6    6    0    0 -0.28997389963E+02  0.27617621191E+02 -0.48663711988E+02  0.63021730295E+02  0.00000000000E+00 0. -1.
        -12    1    6    6    0    0  0.53613978562E+02  0.12623432606E+02 -0.81728929862E+02  0.98556723385E+02  0.00000000000E+00 0.  1.
</event>
<event>
12    1  0.8421768E-002  0.2005262E+03  0.7818608E-02  0.1149559E+00
         21   -1    0    0  501  502  0.00000000000E+00  0.00000000000E+00  0.32586508869E+03  0.32586508869E+03  0.00000000000E+00 0.  1.
         21   -1    0    0  502  503 -0.00000000000E+00 -0.00000000000E+00 -0.12450448976E+03  0.12450448976E+03  0.00000000000E+00 0.  1.
         -6    2    1    2    0  503 -0.99768533935E+02  0.18130047668E+02  0.73363210720E+02  0.21352502605E+03  0.17299802620E+03 0.  0.
        -24    2    3    3    0    0 -0.68022609914E+02  0.14637032964E+01 -0.25856780182E+02  0.10792073010E+03  0.79681196139E+02 0.  0.
          6    2    1    2  501    0  0.99768533935E+02 -0.18130047668E+02  0.12799738822E+03  0.23684455241E+03  0.17155043463E+03 0.  0.
         24    2    5    5    0    0  0.58360311287E+02  0.56265191445E+02  0.70840095114E+02  0.13418814169E+03  0.80102687804E+02 0.  0.
          5    1    5    5  501    0  0.41408222648E+02 -0.74395239113E+02  0.57157293103E+02  0.10265641071E+03  0.47000000000E+01 0. -1.
        -11    1    6    6    0    0  0.70417800829E+02  0.59360856390E+02  0.39029279949E+02  0.10002830918E+03  0.00000000000E+00 0.  1.
         12    1    6    6    0    0 -0.12057489542E+02 -0.30956649452E+01  0.31810815166E+02  0.34159832509E+02  0.00000000000E+00 0. -1.
         -5    1    3    3    0  503 -0.31745924021E+02  0.16666344372E+02  0.99219990902E+02  0.10560429594E+03  0.47000000000E+01 0.  1.
         11    1    4    4    0    0 -0.61909402532E+01  0.82017632429E+01  0.25351478044E+02  0.27354964824E+02  0.00000000000E+00 0. -1.
        -12    1    4    4    0    0 -0.61831669660E+02 -0.67380599465E+01 -0.51208258226E+02  0.80565765281E+02  0.00000000000E+00 0.  1.
</event>
<event>
12    1  0.8421768E-002  0.1939134E+03  0.7818608E-02  0.1155491E+00
         21   -1    0    0  503  502  0.00000000000E+00  0.00000000000E+00  0.17027175101E+03  0.17027175101E+03  0.00000000000E+00 0.  1.
         21   -1    0    0  501  503 -0.00000000000E+00 -0.00000000000E+00 -0.47258797472E+03  0.47258797472E+03  0.00000000000E+00 0.  1.
          6    2    1    2  501    0 -0.27753812404E+02  0.85943827815E+02 -0.38656207254E+03  0.43143648995E+03  0.16896920811E+03 0.  0.
         24    2    3    3    0    0 -0.31464697666E+02  0.95012936274E+01 -0.31650219435E+03  0.32757259711E+03  0.77780881791E+02 0.  0.
         -6    2    1    2    0  502  0.27753812404E+02 -0.85943827815E+02  0.84245848829E+02  0.21142323578E+03  0.17159780284E+03 0.  0.
        -24    2    5    5    0    0 -0.50443862371E+02 -0.60647482873E+02  0.46404649846E+02  0.12082065442E+03  0.78876730270E+02 0.  0.
          5    1    3    3  501    0  0.37108852623E+01  0.76442534188E+02 -0.70059878193E+02  0.10386389284E+03  0.47000000000E+01 0. -1.
        -13    1    4    4    0    0  0.20818332686E+02  0.21930021964E+02 -0.13088799557E+03  0.13433538709E+03  0.00000000000E+00 0.  1.
         14    1    4    4    0    0 -0.52283030352E+02 -0.12428728337E+02 -0.18561419878E+03  0.19323721003E+03  0.00000000000E+00 0. -1.
         -5    1    5    5    0  502  0.78197674775E+02 -0.25296344943E+02  0.37841198984E+02  0.90602581355E+02  0.47000000000E+01 0.  1.
         13    1    6    6    0    0 -0.45086125262E+02 -0.27996462307E+02 -0.11338915516E+02  0.54269066677E+02  0.00000000000E+00 0. -1.
        -14    1    6    6    0    0 -0.53577371092E+01 -0.32651020565E+02  0.57743565361E+02  0.66551587746E+02  0.00000000000E+00 0.  1.
</event>
<event>
12    1  0.8421768E-002  0.2022761E+03  0.7818608E-02  0.1147893E+00
         21   -1    0    0  503  502  0.00000000000E+00  0.00000000000E+00  0.24728825321E+03  0.24728825321E+03  0.00000000000E+00 0.  1.
         21   -1    0    0  501  503 -0.00000000000E+00 -0.00000000000E+00 -0.19599272915E+03  0.19599272915E+03  0.00000000000E+00 0. -1.
          6    2    1    2  501    0  0.26401567245E+02  0.10411900821E+03  0.11348622698E+03  0.23193695895E+03  0.17139958748E+03 0.  0.
         24    2    3    3    0    0  0.14957583685E+01  0.13168554946E+03  0.57197310944E+02  0.16432966954E+03  0.79933639234E+02 0.  0.
         -6    2    1    2    0  502 -0.26401567245E+02 -0.10411900821E+03 -0.62190702917E+02  0.21134402341E+03  0.17105789102E+03 0.  0.
        -24    2    5    5    0    0 -0.69065658466E+02 -0.23900270017E+02 -0.42428892577E+02  0.11824252083E+03  0.82703051454E+02 0.  0.
          5    1    3    3  501    0  0.24905808877E+02 -0.27566541257E+02  0.56288916036E+02  0.67607289409E+02  0.47000000000E+01 0. -1.
        -11    1    4    4    0    0  0.38042373862E+02  0.39274166584E+02  0.20521206391E+02  0.58402074292E+02  0.00000000000E+00 0.  1.
         12    1    4    4    0    0 -0.36546615493E+02  0.92411382880E+02  0.36676104552E+02  0.10592759525E+03  0.00000000000E+00 0. -1.
         -5    1    5    5    0  502  0.42664091221E+02 -0.80218738189E+02 -0.19761810340E+02  0.93101502588E+02  0.47000000000E+01 0.  1.
         13    1    6    6    0    0 -0.16096347581E+02  0.10826146471E+02 -0.50777684980E+02  0.54356886820E+02  0.00000000000E+00 0. -1.
        -14    1    6    6    0    0 -0.52969310885E+02 -0.34726416488E+02  0.83487924031E+01  0.63885634006E+02  0.00000000000E+00 0.  1.
</event>
<event>
12    1  0.8421768E-002  0.1958412E+03  0.7818608E-02  0.1153492E+00
         21   -1    0    0  501  502  0.00000000000E+00  0.00000000000E+00  0.10985255145E+03  0.10985255145E+03  0.00000000000E+00 0. -1.
         21   -1    0    0  502  503 -0.00000000000E+00 -0.00000000000E+00 -0.36246881860E+03  0.36246881860E+03  0.00000000000E+00 0. -1.
         -6    2    1    2    0  503  0.16657968989E+02  0.89292361628E+02 -0.17453263112E+03  0.26232689442E+03  0.17350258336E+03 0.  0.
        -24    2    3    3    0    0  0.65775072192E+02  0.15975941408E+02 -0.11358593135E+03  0.15497524090E+03  0.80832980054E+02 0.  0.
          6    2    1    2  501    0 -0.16657968989E+02 -0.89292361628E+02 -0.78083636023E+02  0.20999447563E+03  0.17248191733E+03 0.  0.
         24    2    5    5    0    0  0.36994373551E+02 -0.96246170158E+02 -0.85678702060E+02  0.15516105205E+03  0.78116599667E+02 0.  0.
          5    1    5    5  501    0 -0.53652342540E+02  0.69538085296E+01  0.75950660368E+01  0.54833423578E+02  0.47000000000E+01 0. -1.
        -13    1    6    6    0    0  0.15358691819E+02  0.10515428339E+02 -0.40776555895E+01  0.19054944834E+02  0.00000000000E+00 0.  1.
         14    1    6    6    0    0  0.21635681732E+02 -0.10676159850E+03 -0.81601046470E+02  0.13610610722E+03  0.00000000000E+00 0. -1.
         -5    1    3    3    0  503 -0.49117103203E+02  0.73316420220E+02 -0.60946699770E+02  0.10735165352E+03  0.47000000000E+01 0.  1.
         11    1    4    4    0    0  0.50791936213E+02  0.46172525099E+02 -0.57521308979E+02  0.89556819087E+02  0.00000000000E+00 0. -1.
        -12    1    4    4    0    0  0.14983135980E+02 -0.30196583691E+02 -0.56064622374E+02  0.65418421812E+02  0.00000000000E+00 0.  1.
</event>
<event>
12    1  0.8421768E-002  0.2136155E+03  0.7818608E-02  0.1138767E+00
         21   -1    0    0  503  502  0.00000000000E+00  0.00000000000E+00  0.10788477692E+04  0.10788477692E+04  0.00000000000E+00 0.  1.
         21   -1    0    0  501  503 -0.00000000000E+00 -0.00000000000E+00 -0.16835480976E+03  0.16835480976E+03  0.00000000000E+00 0.  1.
          6    2    1    2  501    0  0.11551442547E+03  0.53808861734E+02 -0.84477616322E+02  0.22955921578E+03  0.17123664852E+03 0.  0.
         24    2    3    3    0    0  0.83987292331E+02  0.92818998362E+02 -0.23100588458E+02  0.15015530887E+03  0.79647648198E+02 0.  0.
         -6    2    1    2    0  502 -0.11551442547E+03 -0.53808861734E+02  0.99497057578E+03  0.10176433632E+04  0.17144267815E+03 0.  0.
        -24    2    5    5    0    0 -0.68411833648E+01 -0.70151266064E+01  0.22836314945E+03  0.24194460510E+03  0.79318661871E+02 0.  0.
          5    1    3    3  501    0  0.31527133138E+02 -0.39010136628E+02 -0.61377027863E+02  0.79403906913E+02  0.47000000000E+01 0. -1.
        -11    1    4    4    0    0  0.89560965716E+02  0.96608250184E+02 -0.35153964666E+02  0.13634559698E+03  0.00000000000E+00 0.  1.
         12    1    4    4    0    0 -0.55736733856E+01 -0.37892518224E+01  0.12053376208E+02  0.13809711887E+02  0.00000000000E+00 0. -1.
         -5    1    5    5    0  502 -0.10867324210E+03 -0.46793735127E+02  0.76660742634E+03  0.77569875810E+03  0.47000000000E+01 0.  1.
         11    1    6    6    0    0  0.28620464799E+02  0.13303365600E+02  0.15291282375E+03  0.15613597346E+03  0.00000000000E+00 0. -1.
        -12    1    6    6    0    0 -0.35461648164E+02 -0.20318492206E+02  0.75450325695E+02  0.85808631638E+02  0.00000000000E+00 0.  1.
</event>
<event>
12    1  0.8421768E-002  0.2724519E+03  0.7818608E-02  0.1101575E+00
         21   -1    0    0  503  502  0.00000000000E+00  0.00000000000E+00  0.61830979594E+03  0.61830979594E+03  0.00000000000E+00 0. -1.
         21   -1    0    0  501  503 -0.00000000000E+00 -0.00000000000E+00 -0.47290778030E+03  0.47290778030E+03  0.00000000000E+00 0.  1.
          6    2    1    2  501    0 -0.18363891653E+03 -0.10422722794E+03 -0.40233965991E+03  0.47945702585E+03  0.15302049209E+03 0.  0.
         24    2    3    3    0    0 -0.18207331082E+03 -0.50143366847E+02 -0.29755884404E+03  0.36143743203E+03  0.80191669491E+02 0.  0.
         -6    2    1    2    0  502  0.18363891653E+03  0.10422722794E+03  0.54774167556E+03  0.61176055038E+03  0.17217276544E+03 0.  0.
        -24    2    5    5    0    0  0.86066652129E+02  0.12825440610E+03  0.35613298308E+03  0.39534975328E+03  0.74927061130E+02 0.  0.
          5    1    3    3  501    0 -0.15656057067E+01 -0.54083861094E+02 -0.10478081587E+03  0.11801959382E+03  0.47000000000E+01 0. -1.
        -11    1    4    4    0    0 -0.81058755773E+02 -0.30907796752E+02 -0.20689558525E+03  0.22434704585E+03  0.00000000000E+00 0.  1.
         12    1    4    4    0    0 -0.10101455505E+03 -0.19235570095E+02 -0.90663258792E+02  0.13709038618E+03  0.00000000000E+00 0. -1.
         -5    1    5    5    0  502  0.97572264397E+02 -0.24027178160E+02  0.19160869248E+03  0.21641079710E+03  0.47000000000E+01 0.  1.
         11    1    6    6    0    0  0.23707055473E+02  0.36573554562E+02  0.19461687601E+03  0.19943765392E+03  0.00000000000E+00 0. -1.
        -12    1    6    6    0    0  0.62359596656E+02  0.91680851538E+02  0.16151610707E+03  0.19591209936E+03  0.00000000000E+00 0.  1.
</event>
<event>
12    1  0.8421768E-002  0.2357617E+03  0.7818608E-02  0.1122714E+00
         21   -1    0    0  503  502  0.00000000000E+00  0.00000000000E+00  0.18815662396E+04  0.18815662396E+04  0.00000000000E+00 0. -1.
         21   -1    0    0  501  503 -0.00000000000E+00 -0.00000000000E+00 -0.33613327561E+02  0.33613327561E+02  0.00000000000E+00 0. -1.
          6    2    1    2  501    0 -0.14703480167E+03  0.65881135372E+02  0.58804625401E+03  0.63340408519E+03  0.17158898968E+03 0.  0.
         24    2    3    3    0    0 -0.15266804928E+02  0.95570013923E+01  0.30867028120E+03  0.31938459978E+03  0.80029797401E+02 0.  0.
         -6    2    1    2    0  502  0.14703480167E+03 -0.65881135372E+02  0.12599066580E+04  0.12817754819E+04  0.17211636277E+03 0.  0.
        -24    2    5    5    0    0  0.35042494303E+02  0.67087775535E+01  0.73119706409E+03  0.73646135498E+03  0.80331791633E+02 0.  0.
          5    1    3    3  501    0 -0.13176799674E+03  0.56324133980E+02  0.27937597281E+03  0.31401948541E+03  0.47000000000E+01 0. -1.
        -11    1    4    4    0    0 -0.58978377062E+01 -0.13983206583E+02  0.28268468153E+03  0.28309175850E+03  0.00000000000E+00 0.  1.
         12    1    4    4    0    0 -0.93689672220E+01  0.23540207975E+02  0.25985599670E+02  0.36292841284E+02  0.00000000000E+00 0. -1.
         -5    1    5    5    0  502  0.11199230737E+03 -0.72589912925E+02  0.52870959391E+03  0.54531412695E+03  0.47000000000E+01 0.  1.
         13    1    6    6    0    0 -0.23401169329E+02  0.15917660409E+02  0.27201224127E+03  0.27348061364E+03  0.00000000000E+00 0. -1.
        -14    1    6    6    0    0  0.58443663632E+02 -0.92088828552E+01  0.45918482282E+03  0.46298074134E+03  0.00000000000E+00 0.  1.
</event>
<event>
12    1  0.8421768E-002  0.1812528E+03  0.7818608E-02  0.1167401E+00
         21   -1    0    0  503  502  0.00000000000E+00  0.00000000000E+00  0.52106315962E+02  0.52106315962E+02  0.00000000000E+00 0. -1.
         21   -1    0    0  501  503 -0.00000000000E+00 -0.00000000000E+00 -0.13587915533E+04  0.13587915533E+04  0.00000000000E+00 0. -1.
          6    2    1    2  501    0  0.23934695278E+02  0.31577509954E+02 -0.11766210272E+04  0.11904997354E+04  0.17686879234E+03 0.  0.
         24    2    3    3    0    0  0.65998951462E+02 -0.14124861880E+02 -0.49013700112E+03  0.50119536401E+03  0.80044610797E+02 0.  0.
         -6    2    1    2    0  502 -0.23934695278E+02 -0.31577509954E+02 -0.13006421013E+03  0.22039813379E+03  0.17346074441E+03 0.  0.
        -24    2    5    5    0    0 -0.37264958775E+02 -0.69646238718E+02 -0.13983481728E+03  0.17863117558E+03  0.78205147169E+02 0.  0.
          5    1    3    3  501    0 -0.42064256185E+02  0.45702371835E+02 -0.68648402606E+03  0.68930437144E+03  0.47000000000E+01 0. -1.
        -11    1    4    4    0    0  0.84846851862E+02 -0.10355101679E+02 -0.40192252790E+03  0.41091110333E+03  0.00000000000E+00 0.  1.
         12    1    4    4    0    0 -0.18847900400E+02 -0.37697602013E+01 -0.88214473218E+02  0.90284260680E+02  0.00000000000E+00 0. -1.
         -5    1    5    5    0  502  0.13330263497E+02  0.38068728763E+02  0.97706071535E+01  0.41766958217E+02  0.47000000000E+01 0.  1.
         11    1    6    6    0    0  0.64448256644E+01 -0.43957053490E+02 -0.20411870636E+02  0.48891745645E+02  0.00000000000E+00 0. -1.
        -12    1    6    6    0    0 -0.43709784439E+02 -0.25689185227E+02 -0.11942294665E+03  0.12973942993E+03  0.00000000000E+00 0.  1.
</event>
<event>
12    1  0.8421768E-002  0.1813321E+03  0.7818608E-02  0.1168199E+00
         21   -1    0    0  501  502  0.00000000000E+00  0.00000000000E+00  0.42263363687E+02  0.42263363687E+02  0.00000000000E+00 0.  1.
         21   -1    0    0  502  503 -0.00000000000E+00 -0.00000000000E+00 -0.75119623390E+03  0.75119623390E+03  0.00000000000E+00 0.  1.
         -6    2    1    2    0  503 -0.13984840226E+02  0.25338317193E+02 -0.32545939289E+03  0.36927423298E+03  0.17205242412E+03 0.  0.
        -24    2    3    3    0    0  0.19600870804E+02  0.53297442486E+02 -0.30414953325E+03  0.32042842670E+03  0.83322425275E+02 0.  0.
          6    2    1    2  501    0  0.13984840226E+02 -0.25338317193E+02 -0.38347347733E+03  0.42418536461E+03  0.17900756873E+03 0.  0.
         24    2    5    5    0    0  0.39349525262E+02 -0.18230426158E+02 -0.38689123915E+03  0.39721018236E+03  0.78805865668E+02 0.  0.
          5    1    5    5  501    0 -0.25364685036E+02 -0.71078910347E+01  0.34177618188E+01  0.26975182257E+02  0.47000000000E+01 0. -1.
        -11    1    6    6    0    0  0.31937030112E+02  0.21590380433E+02 -0.28447475512E+03  0.28707491134E+03  0.00000000000E+00 0.  1.
         12    1    6    6    0    0  0.74124951496E+01 -0.39820806591E+02 -0.10241648402E+03  0.11013527101E+03  0.00000000000E+00 0. -1.
         -5    1    3    3    0  503 -0.33585711030E+02 -0.27959125293E+02 -0.21309859642E+02  0.48845806273E+02  0.47000000000E+01 0.  1.
         13    1    4    4    0    0 -0.47520776254E+01  0.58270057396E+02 -0.10887968826E+03  0.12358304231E+03  0.00000000000E+00 0. -1.
        -14    1    4    4    0    0  0.24352948429E+02 -0.49726149106E+01 -0.19526984499E+03  0.19684538440E+03  0.00000000000E+00 0.  1.
</event>
<event>
12    1  0.8421768E-002  0.2187327E+03  0.7818608E-02  0.1134910E+00
         21   -1    0    0  503  502  0.00000000000E+00  0.00000000000E+00  0.71995342699E+02  0.71995342699E+02  0.00000000000E+00 0.  1.
         21   -1    0    0  501  503 -0.00000000000E+00 -0.00000000000E+00 -0.67845166765E+03  0.67845166765E+03  0.00000000000E+00 0.  1.
          6    2    1    2  501    0 -0.60486173106E+02  0.12034762263E+03 -0.35907111682E+03  0.42022973904E+03  0.17181047473E+03 0.  0.
         24    2    3    3    0    0 -0.58400837392E+02  0.56797375204E+02 -0.33150026324E+03  0.35076590284E+03  0.80670282182E+02 0.  0.
         -6    2    1    2    0  502  0.60486173106E+02 -0.12034762263E+03 -0.24738520813E+03  0.33021727131E+03  0.17234232696E+03 0.  0.
        -24    2    5    5    0    0  0.85691923679E+02 -0.35900706290E+02 -0.18574253580E+03  0.22256728017E+03  0.80024609350E+02 0.  0.
          5    1    3    3  501    0 -0.20853357137E+01  0.63550247423E+02 -0.27570853586E+02  0.69463836203E+02  0.47000000000E+01 0. -1.
        -13    1    4    4    0    0  0.93595121789E+00  0.47125865937E+02 -0.86624743192E+02  0.98618301436E+02  0.00000000000E+00 0.  1.
         14    1    4    4    0    0 -0.59336788610E+02  0.96715092672E+01 -0.24487552005E+03  0.25214760140E+03  0.00000000000E+00 0. -1.
         -5    1    5    5    0  502 -0.25205750573E+02 -0.84446916337E+02 -0.61642672330E+02  0.10764999114E+03  0.47000000000E+01 0.  1.
         11    1    6    6    0    0  0.30616546812E+02  0.10106421677E+02 -0.11680474612E+02  0.34292071751E+02  0.00000000000E+00 0. -1.
        -12    1    6    6    0    0  0.55075376867E+02 -0.46007127968E+02 -0.17406206119E+03  0.18827520842E+03  0.00000000000E+00 0.  1.
</event>
<event>
12    1  0.8421768E-002  0.2620455E+03  0.7818608E-02  0.1105985E+00
         21   -1    0    0  501  502  0.00000000000E+00  0.00000000000E+00  0.74119271732E+03  0.74119271732E+03  0.00000000000E+00 0. -1.
         21   -1    0    0  502  503 -0.00000000000E+00 -0.00000000000E+00 -0.14299041402E+03  0.14299041402E+03  0.00000000000E+00 0. -1.
         -6    2    1    2    0  503  0.20351929023E+02  0.19564257349E+03  0.36218277876E+02  0.26410743201E+03  0.17248407003E+03 0.  0.
        -24    2    3    3    0    0  0.41266270543E+02  0.52426769857E+02 -0.29021188567E+02  0.10527905270E+03  0.76091906733E+02 0.  0.
          6    2    1    2  501    0 -0.20351929023E+02 -0.19564257349E+03  0.56198402542E+03  0.62007569932E+03  0.17314043573E+03 0.  0.
         24    2    5    5    0    0 -0.26017065792E+00 -0.12806386754E+03  0.51169515774E+03  0.53334842296E+03  0.78918844168E+02 0.  0.
          5    1    5    5  501    0 -0.20091758365E+02 -0.67578705951E+02  0.50288867685E+02  0.86727276363E+02  0.47000000000E+01 0. -1.
        -13    1    6    6    0    0 -0.14207421063E+01 -0.15217014168E+02  0.81665666209E+01  0.17328267043E+02  0.00000000000E+00 0.  1.
         14    1    6    6    0    0  0.11605714483E+01 -0.11284685337E+03  0.50352859112E+03  0.51602015592E+03  0.00000000000E+00 0. -1.
         -5    1    3    3    0  503 -0.20914341520E+02  0.14321580363E+03  0.65239466443E+02  0.15882837930E+03  0.47000000000E+01 0.  1.
         11    1    4    4    0    0 -0.21428689587E+02  0.17874519077E+02  0.33724750999E+00  0.27907004596E+02  0.00000000000E+00 0. -1.
        -12    1    4    4    0    0  0.62694960129E+02  0.34552250781E+02 -0.29358436077E+02  0.77372048108E+02  0.00000000000E+00 0.  1.
</event>
<event>
12    1  0.8421768E-002  0.2001762E+03  0.7818608E-02  0.1149951E+00
         21   -1    0    0  501  502  0.00000000000E+00  0.00000000000E+00  0.30832966944E+03  0.30832966944E+03  0.00000000000E+00 0.  1.
         21   -1    0    0  502  503 -0.00000000000E+00 -0.00000000000E+00 -0.12967891737E+03  0.12967891737E+03  0.00000000000E+00 0.  1.
         -6    2    1    2    0  503  0.57285462092E+02  0.84965346628E+02  0.10713982771E+03  0.22704502150E+03  0.17195861366E+03 0.  0.
        -24    2    3    3    0    0  0.94423045789E+02  0.10299331105E+03  0.10051554090E+03  0.18497152866E+03  0.67732996051E+02 0.  0.
          6    2    1    2  501    0 -0.57285462092E+02 -0.84965346628E+02  0.71510924362E+02  0.21096356531E+03  0.16997376060E+03 0.  0.
         24    2    5    5    0    0 -0.10153153578E+02 -0.10748600436E+03  0.17772534602E+02  0.13587335913E+03  0.80556682366E+02 0.  0.
          5    1    5    5  501    0 -0.47132308514E+02  0.22520657733E+02  0.53738389761E+02  0.75090206184E+02  0.47000000000E+01 0. -1.
        -13    1    6    6    0    0 -0.23956598113E+02 -0.11566064793E+03  0.11597993875E+02  0.11868368689E+03  0.00000000000E+00 0.  1.
         14    1    6    6    0    0  0.13803444536E+02  0.81746435657E+01  0.61745407270E+01  0.17189672238E+02  0.00000000000E+00 0. -1.
         -5    1    3    3    0  503 -0.37137583697E+02 -0.18027964423E+02  0.66242868103E+01  0.42073492840E+02  0.47000000000E+01 0.  1.
         11    1    4    4    0    0  0.51645256053E+01  0.87897409528E+01  0.40913776894E+02  0.42164784008E+02  0.00000000000E+00 0. -1.
        -12    1    4    4    0    0  0.89258520183E+02  0.94203570098E+02  0.59601764007E+02  0.14280674465E+03  0.00000000000E+00 0.  1.
</event>
<event>
12    1  0.8421768E-002  0.1716937E+03  0.7818608E-02  0.1177207E+00
         21   -1    0    0  503  502  0.00000000000E+00  0.00000000000E+00  0.14669176368E+03  0.14669176368E+03  0.00000000000E+00 0. -1.
         21   -1    0    0  501  503 -0.00000000000E+00 -0.00000000000E+00 -0.23537173605E+03  0.23537173605E+03  0.00000000000E+00 0. -1.
          6    2    1    2  501    0  0.14018838035E+02  0.21737237304E+01 -0.12294040692E+03  0.21117071844E+03  0.17110662108E+03 0.  0.
         24    2    3    3    0    0 -0.48721431100E+02  0.34088408773E+02 -0.57974537214E+02  0.11526689829E+03  0.79935057485E+02 0.  0.
         -6    2    1    2    0  502 -0.14018838035E+02 -0.21737237304E+01  0.34260434550E+02  0.17089278129E+03  0.16682119897E+03 0.  0.
        -24    2    5    5    0    0 -0.48071995506E+02  0.17622334463E+02 -0.26416618421E+02  0.98399359439E+02  0.79769247116E+02 0.  0.
          5    1    3    3  501    0  0.62740269135E+02 -0.31914685043E+02 -0.64965869709E+02  0.95903820151E+02  0.47000000000E+01 0. -1.
        -13    1    4    4    0    0  0.47381705222E+01  0.43411039691E+02 -0.36470148716E+02  0.56894994282E+02  0.00000000000E+00 0.  1.
         14    1    4    4    0    0 -0.53459601623E+02 -0.93226309181E+01 -0.21504388498E+02  0.58371904008E+02  0.00000000000E+00 0. -1.
         -5    1    5    5    0  502  0.34053157471E+02 -0.19796058194E+02  0.60677052971E+02  0.72493421846E+02  0.47000000000E+01 0.  1.
         11    1    6    6    0    0 -0.24085109245E+02  0.36058732521E+02  0.16067750432E+02  0.46243889135E+02  0.00000000000E+00 0. -1.
        -12    1    6    6    0    0 -0.23986886261E+02 -0.18436398058E+02 -0.42484368853E+02  0.52155470304E+02  0.00000000000E+00 0.  1.
</event>
<event>
12    1  0.8421768E-002  0.2281033E+03  0.7818608E-02  0.1129141E+00
         21   -1    0    0  503  502  0.00000000000E+00  0.00000000000E+00  0.12105419140E+03  0.12105419140E+03  0.00000000000E+00 0.  1.
         21   -1    0    0  501  503 -0.00000000000E+00 -0.00000000000E+00 -0.46184663750E+03  0.46184663750E+03  0.00000000000E+00 0. -1.
          6    2    1    2  501    0 -0.10519011650E+03 -0.10903963710E+03 -0.82604107580E+02  0.24259959166E+03  0.17051838674E+03 0.  0.
         24    2    3    3    0    0 -0.12628992532E+03 -0.54470359285E+02 -0.91474838065E+02  0.18323809005E+03  0.79324563457E+02 0.  0.
         -6    2    1    2    0  502  0.10519011650E+03  0.10903963710E+03 -0.25818833852E+03  0.34030123725E+03  0.16183050038E+03 0.  0.
        -24    2    5    5    0    0 -0.10798098967E+02  0.28254360029E+02 -0.72693911764E+02  0.10704215494E+03  0.72516965774E+02 0.  0.
          5    1    3    3  501    0  0.21099808822E+02 -0.54569277818E+02  0.88707304847E+01  0.59361501608E+02  0.47000000000E+01 0. -1.
        -13    1    4    4    0    0 -0.85409638690E+02 -0.52336151827E+02 -0.21933182855E+02  0.10254239942E+03  0.00000000000E+00 0.  1.
         14    1    4    4    0    0 -0.40880286635E+02 -0.21342074584E+01 -0.69541655210E+02  0.80695690629E+02  0.00000000000E+00 0. -1.
         -5    1    5    5    0  502  0.11598821547E+03  0.80785277074E+02 -0.18549442676E+03  0.23325908230E+03  0.47000000000E+01 0.  1.
         13    1    6    6    0    0  0.13910673100E+02  0.14579267904E+02 -0.75983930699E+02  0.78610556564E+02  0.00000000000E+00 0. -1.
        -14    1    6    6    0    0 -0.24708772068E+02  0.13675092126E+02  0.32900189359E+01  0.28431598378E+02  0.00000000000E+00 0.  1.
</event>
<event>
12    1  0.8421768E-002  0.1743554E+03  0.7818608E-02  0.1173602E+00
         21   -1    0    0  503  502  0.00000000000E+00  0.00000000000E+00  0.65202697413E+02  0.65202697413E+02  0.00000000000E+00 0. -1.
         21   -1    0    0  501  503 -0.00000000000E+00 -0.00000000000E+00 -0.52631837226E+03  0.52631837226E+03  0.00000000000E+00 0. -1.
          6    2    1    2  501    0 -0.17858393325E+02  0.22722308937E+02 -0.33292724919E+03  0.37581958644E+03  0.17194354528E+03 0.  0.
         24    2    3    3    0    0  0.13149977116E+02 -0.39326961128E+02 -0.12460322639E+03  0.15620032629E+03  0.84575682892E+02 0.  0.
         -6    2    1    2    0  502  0.17858393325E+02 -0.22722308937E+02 -0.12818842566E+03  0.21570148323E+03  0.17105447045E+03 0.  0.
        -24    2    5    5    0    0 -0.21006255953E+02  0.33487785625E+02 -0.24777863127E+02  0.91661690677E+02  0.78900116993E+02 0.  0.
          5    1    3    3  501    0 -0.31008370441E+02  0.62049270065E+02 -0.20832402281E+03  0.21961926015E+03  0.47000000000E+01 0. -1.
        -13    1    4    4    0    0  0.25886752822E+02 -0.85842526639E+01 -0.44318417492E-01  0.27272978011E+02  0.00000000000E+00 0.  1.
         14    1    4    4    0    0 -0.12736775707E+02 -0.30742708464E+02 -0.12455890797E+03  0.12892734828E+03  0.00000000000E+00 0. -1.
         -5    1    5    5    0  502  0.38864649279E+02 -0.56210094562E+02 -0.10341056253E+03  0.12403979256E+03  0.47000000000E+01 0.  1.
         13    1    6    6    0    0 -0.16435854916E+02 -0.19303034436E+02  0.11093526537E+02  0.27673286691E+02  0.00000000000E+00 0. -1.
        -14    1    6    6    0    0 -0.45704010372E+01  0.52790820061E+02 -0.35871389664E+02  0.63988403986E+02  0.00000000000E+00 0.  1.
</event>
<event>
12    1  0.8421768E-002  0.2607149E+03  0.7818608E-02  0.1107215E+00
         21   -1    0    0  501  502  0.00000000000E+00  0.00000000000E+00  0.13055961145E+03  0.13055961145E+03  0.00000000000E+00 0. -1.
         21   -1    0    0  502  503 -0.00000000000E+00 -0.00000000000E+00 -0.51788381893E+03  0.51788381893E+03  0.00000000000E+00 0.  1.
         -6    2    1    2    0  503  0.15702564283E+03 -0.11410455054E+03 -0.16686627845E+03  0.30954255144E+03  0.17405555237E+03 0.  0.
        -24    2    3    3    0    0  0.17572035282E+03 -0.91281389722E+02 -0.98946731506E+02  0.23534320030E+03  0.79912650746E+02 0.  0.
          6    2    1    2  501    0 -0.15702564283E+03  0.11410455054E+03 -0.22045792902E+03  0.33890087894E+03  0.16904202529E+03 0.  0.
         24    2    5    5    0    0 -0.73545163594E+02 -0.19575478444E+01 -0.68465322606E+02  0.13018278317E+03  0.82748616622E+02 0.  0.
          5    1    5    5  501    0 -0.83480479231E+02  0.11606209839E+03 -0.15199260642E+03  0.20871809577E+03  0.47000000000E+01 0. -1.
        -11    1    6    6    0    0 -0.36457621215E+02  0.20875577585E+02 -0.75173777958E+02  0.86116460544E+02  0.00000000000E+00 0.  1.
         12    1    6    6    0    0 -0.37087542379E+02 -0.22833125429E+02  0.67084553526E+01  0.44066322626E+02  0.00000000000E+00 0. -1.
         -5    1    3    3    0  503 -0.18694709995E+02 -0.22823160820E+02 -0.67919546947E+02  0.74199351136E+02  0.47000000000E+01 0.  1.
         13    1    4    4    0    0  0.79436447368E+02 -0.20725084469E+02 -0.29254103371E+01  0.82147649524E+02  0.00000000000E+00 0. -1.
        -14    1    4    4    0    0  0.96283905452E+02 -0.70556305253E+02 -0.96021321169E+02  0.15319555078E+03  0.00000000000E+00 0.  1.
</event>
<event>
12    1  0.8421768E-002  0.2970988E+03  0.7818608E-02  0.1086986E+00
         21   -1    0    0  503  502  0.00000000000E+00  0.00000000000E+00  0.21025360188E+03  0.21025360188E+03  0.00000000000E+00 0.  1.
         21   -1    0    0  501  503 -0.00000000000E+00 -0.00000000000E+00 -0.49284634188E+03  0.49284634188E+03  0.00000000000E+00 0. -1.
          6    2    1    2  501    0 -0.24122251957E+03 -0.22057559619E+02 -0.26027947996E+01  0.29485730705E+03  0.16810478012E+03 0.  0.
         24    2    3    3    0    0 -0.14851923787E+03 -0.71499497738E+02  0.29187501740E+02  0.18498867351E+03  0.78732184489E+02 0.  0.
         -6    2    1    2    0  502  0.24122251957E+03  0.22057559619E+02 -0.27998994520E+03  0.40824263672E+03  0.17202569907E+03 0.  0.
        -24    2    5    5    0    0  0.24062268562E+03  0.58173071691E+02 -0.25582125499E+03  0.36452873047E+03  0.78442958464E+02 0.  0.
          5    1    3    3  501    0 -0.92703281697E+02  0.49441938119E+02 -0.31790296539E+02  0.10986863354E+03  0.47000000000E+01 0. -1.
        -13    1    4    4    0    0 -0.10525897560E+03 -0.10537311801E+02  0.30937906140E+02  0.11021633690E+03  0.00000000000E+00 0.  1.
         14    1    4    4    0    0 -0.43260262273E+02 -0.60962185937E+02 -0.17504044002E+01  0.74772336607E+02  0.00000000000E+00 0. -1.
         -5    1    5    5    0  502  0.59983394921E+00 -0.36115512071E+02 -0.24168690213E+02  0.43713906249E+02  0.47000000000E+01 0.  1.
         11    1    6    6    0    0  0.78933087768E+02  0.39247988568E+02 -0.47473275569E+02  0.10012266898E+03  0.00000000000E+00 0. -1.
        -12    1    6    6    0    0  0.16168959785E+03  0.18925083123E+02 -0.20834797942E+03  0.26440606149E+03  0.00000000000E+00 0.  1.
</event>
<event>
12    1  0.8421768E-002  0.1978239E+03  0.7818608E-02  0.1151752E+00
         21   -1    0    0  501  502  0.00000000000E+00  0.00000000000E+00  0.71240886546E+02  0.71240886546E+02  0.00000000000E+00 0. -1.
         21   -1    0    0  502  503 -0.00000000000E+00 -0.00000000000E+00 -0.58304332429E+03  0.58304332429E+03  0.00000000000E+00 0. -1.
         -6    2    1    2    0  503 -0.90208222529E+02 -0.31476292354E+02 -0.33654850326E+03  0.38999607284E+03  0.17234779195E+03 0.  0.
        -24    2    3    3    0    0 -0.37362919185E+02 -0.89016703962E+01 -0.59655700952E+02  0.10716404917E+03  0.80312535214E+02 0.  0.
          6    2    1    2  501    0  0.90208222529E+02  0.31476292354E+02 -0.17525393449E+03  0.26428813800E+03  0.17322239446E+03 0.  0.
         24    2    5    5    0    0  0.10600379634E+03  0.85339872503E+00 -0.18564445070E+03  0.22799330926E+03  0.79243636084E+02 0.  0.
          5    1    5    5  501    0 -0.15795573810E+02  0.30622893629E+02  0.10390516220E+02  0.36294828744E+02  0.47000000000E+01 0. -1.
        -13    1    6    6    0    0  0.13341347917E+02 -0.16811327674E+02 -0.94201100752E+02  0.96615007558E+02  0.00000000000E+00 0.  1.
         14    1    6    6    0    0  0.92662448422E+02  0.17664726399E+02 -0.91443349953E+02  0.13137830170E+03  0.00000000000E+00 0. -1.
         -5    1    3    3    0  503 -0.52845303345E+02 -0.22574621958E+02 -0.27689280231E+03  0.28283202367E+03  0.47000000000E+01 0.  1.
         11    1    4    4    0    0  0.76769821659E+01 -0.87499090037E+01 -0.61003097382E+02  0.62103742665E+02  0.00000000000E+00 0. -1.
        -12    1    4    4    0    0 -0.45039901351E+02 -0.15176139253E+00  0.13473964299E+01  0.45060306505E+02  0.00000000000E+00 0.  1.
</event>
<event>
12    1  0.8421768E-002  0.2299746E+03  0.7818608E-02  0.1126695E+00
         21   -1    0    0  501  502  0.00000000000E+00  0.00000000000E+00  0.70273675613E+02  0.70273675613E+02  0.00000000000E+00 0.  1.
         21   -1    0    0  502  503 -0.00000000000E+00 -0.00000000000E+00 -0.78947676799E+03  0.78947676799E+03  0.00000000000E+00 0. -1.
         -6    2    1    2    0  503  0.13631525967E+03  0.67973342623E+02 -0.26568523425E+03  0.35125583731E+03  0.17201684283E+03 0.  0.
        -24    2    3    3    0    0  0.16302472563E+03  0.39192139875E+02 -0.24710401946E+03  0.30756253409E+03  0.73629008856E+02 0.  0.
          6    2    1    2  501    0 -0.13631525967E+03 -0.67973342623E+02 -0.45351785813E+03  0.50849460630E+03  0.17229652250E+03 0.  0.
         24    2    5    5    0    0 -0.11042771972E+03 -0.11203891256E+03 -0.32473142997E+03  0.36985848814E+03  0.81226845514E+02 0.  0.
          5    1    5    5  501    0 -0.25887539953E+02  0.44065569935E+02 -0.12878642816E+03  0.13863611815E+03  0.47000000000E+01 0. -1.
        -13    1    6    6    0    0  0.11193154919E+02  0.63240248960E+00 -0.18645577727E+02  0.21756475329E+02  0.00000000000E+00 0.  1.
         14    1    6    6    0    0 -0.12162087464E+03 -0.11267131505E+03 -0.30608585224E+03  0.34810201282E+03  0.00000000000E+00 0. -1.
         -5    1    3    3    0  503 -0.26709465956E+02  0.28781202749E+02 -0.18581214788E+02  0.43693303220E+02  0.47000000000E+01 0.  1.
         13    1    4    4    0    0  0.67909055940E+02  0.26202801369E+02 -0.16828541981E+03  0.18335269073E+03  0.00000000000E+00 0. -1.
        -14    1    4    4    0    0  0.95115669690E+02  0.12989338505E+02 -0.78818599658E+02  0.12420984336E+03  0.00000000000E+00 0.  1.
</event>
<event>
12    1  0.8421768E-002  0.1834551E+03  0.7818608E-02  0.1164719E+00
         21   -1    0    0  501  502  0.00000000000E+00  0.00000000000E+00  0.43881189891E+03  0.43881189891E+03  0.00000000000E+00 0.  1.
         21   -1    0    0  502  503 -0.00000000000E+00 -0.00000000000E+00 -0.13537170132E+03  0.13537170132E+03  0.00000000000E+00 0.  1.
         -6    2    1    2    0  503  0.62588795128E+02  0.88019240016E+01 -0.38121876338E+02  0.18647181485E+03  0.17124143521E+03 0.  0.
        -24    2    3    3    0    0  0.14540599236E+02  0.35308799412E+02  0.35779476454E+02  0.94304881962E+02  0.78454442096E+02 0.  0.
          6    2    1    2  501    0 -0.62588795128E+02 -0.88019240016E+01  0.34156207393E+03  0.38771178539E+03  0.17222353799E+03 0.  0.
         24    2    5    5    0    0 -0.10812876397E+03  0.49060929248E+01  0.26549463874E+03  0.29787780970E+03  0.80795340017E+02 0.  0.
          5    1    5    5  501    0  0.45539968847E+02 -0.13708016926E+02  0.76067435193E+02  0.89833975685E+02  0.47000000000E+01 0. -1.
        -11    1    6    6    0    0 -0.60878672795E+02 -0.26773751707E+02  0.20180527010E+03  0.21248156067E+03  0.00000000000E+00 0.  1.
         12    1    6    6    0    0 -0.47250091180E+02  0.31679844632E+02  0.63689368634E+02  0.85396249036E+02  0.00000000000E+00 0. -1.
         -5    1    3    3    0  503  0.48048195892E+02 -0.26506875410E+02 -0.73901352793E+02  0.92166932883E+02  0.47000000000E+01 0.  1.
         11    1    4    4    0    0  0.46313259915E+02  0.12583882731E+02  0.16555162092E+02  0.50767563861E+02  0.00000000000E+00 0. -1.
        -12    1    4    4    0    0 -0.31772660679E+02  0.22724916680E+02  0.19224314362E+02  0.43537318101E+02  0.00000000000E+00 0.  1.
</event>
<event>
12    1  0.8421768E-002  0.1893871E+03  0.7818608E-02  0.1159138E+00
         21   -1    0    0  501  502  0.00000000000E+00  0.00000000000E+00  0.22837488346E+03  0.22837488346E+03  0.00000000000E+00 0. -1.
         21   -1    0    0  502  503 -0.00000000000E+00 -0.00000000000E+00 -0.41918059939E+03  0.41918059939E+03  0.00000000000E+00 0. -1.
         -6    2    1    2    0  503  0.18967631903E+02  0.76887824651E+02 -0.35160658214E+03  0.39911153799E+03  0.17143897607E+03 0.  0.
        -24    2    3    3    0    0 -0.11617452970E+02 -0.29266401976E+02 -0.11933138987E+03  0.14186064452E+03  0.69949798838E+02 0.  0.
          6    2    1    2  501    0 -0.18967631903E+02 -0.76887824651E+02  0.16080086620E+03  0.24844394485E+03  0.17203478289E+03 0.  0.
         24    2    5    5    0    0 -0.73750688226E+02 -0.64270790463E+02  0.66503299987E+02  0.13855994326E+03  0.72154490136E+02 0.  0.
          5    1    5    5  501    0  0.54783056323E+02 -0.12617034188E+02  0.94297566217E+02  0.10988400159E+03  0.47000000000E+01 0. -1.
        -11    1    6    6    0    0 -0.48073510339E+02 -0.64540921953E+02  0.16214562123E+02  0.82094488413E+02  0.00000000000E+00 0.  1.
         12    1    6    6    0    0 -0.25677177887E+02  0.27013149053E+00  0.50288737864E+02  0.56465454848E+02  0.00000000000E+00 0. -1.
         -5    1    3    3    0  503  0.30585084874E+02  0.10615422663E+03 -0.23227519227E+03  0.25725089347E+03  0.47000000000E+01 0.  1.
         13    1    4    4    0    0 -0.27346316371E+02 -0.11489171626E+02 -0.12102239754E+02  0.32035703376E+02  0.00000000000E+00 0. -1.
        -14    1    4    4    0    0  0.15728863401E+02 -0.17777230350E+02 -0.10722915012E+03  0.10982494115E+03  0.00000000000E+00 0.  1.
</event>
<event>
12    1  0.8421768E-002  0.2070493E+03  0.7818608E-02  0.1144183E+00
         21   -1    0    0  501  502  0.00000000000E+00  0.00000000000E+00  0.10503896916E+03  0.10503896916E+03  0.00000000000E+00 0. -1.
         21   -1    0    0  502  503 -0.00000000000E+00 -0.00000000000E+00 -0.58688320025E+03  0.58688320025E+03  0.00000000000E+00 0.  1.
         -6    2    1    2    0  503 -0.16874886741E+02 -0.11230456868E+03 -0.43371305969E+03  0.48060008391E+03  0.17312522798E+03 0.  0.
        -24    2    3    3    0    0  0.39323347624E+02 -0.26549434452E+02 -0.12461558947E+03  0.15490771267E+03  0.78842603756E+02 0.  0.
          6    2    1    2  501    0  0.16874886741E+02  0.11230456868E+03 -0.48131171398E+02  0.21132208550E+03  0.17159060642E+03 0.  0.
         24    2    5    5    0    0 -0.27843389228E+02  0.89105324983E+01  0.43049171814E+01  0.86977064256E+02  0.81803578660E+02 0.  0.
          5    1    5    5  501    0  0.44718275969E+02  0.10339403618E+03 -0.52436088579E+02  0.12434502125E+03  0.47000000000E+01 0. -1.
        -13    1    6    6    0    0  0.12496297984E+02  0.16994184753E+02  0.31318221264E+02  0.37759644620E+02  0.00000000000E+00 0.  1.
         14    1    6    6    0    0 -0.40339687212E+02 -0.80836522550E+01 -0.27013304082E+02  0.49217419636E+02  0.00000000000E+00 0. -1.
         -5    1    3    3    0  503 -0.56198234365E+02 -0.85755134226E+02 -0.30909747022E+03  0.32569237124E+03  0.47000000000E+01 0.  1.
         13    1    4    4    0    0 -0.26882985493E+01  0.47296997476E+01  0.94888014719E+01  0.10937749410E+02  0.00000000000E+00 0. -1.
        -14    1    4    4    0    0  0.42011646174E+02 -0.31279134200E+02 -0.13410439094E+03  0.14396996326E+03  0.00000000000E+00 0.  1.
</event>
<event>
12    1  0.8421768E-002  0.3052158E+03  0.7818608E-02  0.1083077E+00
         21   -1    0    0  501  502  0.00000000000E+00  0.00000000000E+00  0.78212946964E+03  0.78212946964E+03  0.00000000000E+00 0.  1.
         21   -1    0    0  502  503 -0.00000000000E+00 -0.00000000000E+00 -0.13062526794E+03  0.13062526794E+03  0.00000000000E+00 0. -1.
         -6    2    1    2    0  503 -0.19964990324E+03 -0.15088111203E+03  0.18108895141E+03  0.35199884094E+03  0.16877435193E+03 0.  0.
        -24    2    3    3    0    0 -0.16562989696E+03 -0.18258812037E+03  0.15052724031E+03  0.29615259317E+03  0.65392842878E+02 0.  0.
          6    2    1    2  501    0  0.19964990324E+03  0.15088111203E+03  0.47041525029E+03  0.56075589665E+03  0.17473257877E+03 0.  0.
         24    2    5    5    0    0  0.22417151174E+03  0.13595588403E+03  0.44361955889E+03  0.52120629750E+03  0.78235685298E+02 0.  0.
          5    1    5    5  501    0 -0.24521608499E+02  0.14925227999E+02  0.26795691408E+02  0.39549599141E+02  0.47000000000E+01 0. -1.
        -13    1    6    6    0    0  0.15910426217E+03  0.53585621337E+02  0.25395917293E+03  0.30443529127E+03  0.00000000000E+00 0.  1.
         14    1    6    6    0    0  0.65067249564E+02  0.82370262697E+02  0.18966038596E+03  0.21677100624E+03  0.00000000000E+00 0. -1.
         -5    1    3    3    0  503 -0.34020006277E+02  0.31707008333E+02  0.30561711102E+02  0.55846247770E+02  0.47000000000E+01 0.  1.
         11    1    4    4    0    0 -0.88090605483E+01 -0.40433353701E+02  0.39191103464E+02  0.56994721071E+02  0.00000000000E+00 0. -1.
        -12    1    4    4    0    0 -0.15682083641E+03 -0.14215476666E+03  0.11133613684E+03  0.23915787210E+03  0.00000000000E+00 0.  1.
</event>
<event>
12    1  0.8421768E-002  0.1728403E+03  0.7818608E-02  0.1174977E+00
         21   -1    0    0  503  502  0.00000000000E+00  0.00000000000E+00  0.40216252622E+02  0.40216252622E+02  0.00000000000E+00 0.  1.
         21   -1    0    0  501  503 -0.00000000000E+00 -0.00000000000E+00 -0.10455015209E+04  0.10455015209E+04  0.00000000000E+00 0.  1.
          6    2    1    2  501    0 -0.88413170011E+01 -0.10911685993E+02 -0.79544430481E+03  0.81400579037E+03  0.17226883330E+03 0.  0.
         24    2    3    3    0    0 -0.20545012077E+02  0.13673095720E+02 -0.77544230923E+03  0.77989482736E+03  0.79473994062E+02 0.  0.
         -6    2    1    2    0  502  0.88413170011E+01  0.10911685993E+02 -0.20984096343E+03  0.27171198311E+03  0.17203760652E+03 0.  0.
        -24    2    5    5    0    0  0.72780895837E+02  0.11875482030E+02 -0.13918137284E+03  0.17629675169E+03  0.79189672559E+02 0.  0.
          5    1    3    3  501    0  0.11703695076E+02 -0.24584781713E+02 -0.20001995579E+02  0.34110963010E+02  0.47000000000E+01 0. -1.
        -11    1    4    4    0    0  0.23872311800E+02  0.22952765798E+02 -0.46195275351E+03  0.46313827655E+03  0.00000000000E+00 0.  1.
         12    1    4    4    0    0 -0.44417323877E+02 -0.92796700784E+01 -0.31348955571E+03  0.31675655081E+03  0.00000000000E+00 0. -1.
         -5    1    5    5    0  502 -0.63939578835E+02 -0.96379603640E+00 -0.70659590596E+02  0.95415231424E+02  0.47000000000E+01 0.  1.
         11    1    6    6    0    0  0.59476147085E+02  0.85427005054E+01 -0.14817557677E+03  0.15989493849E+03  0.00000000000E+00 0. -1.
        -12    1    6    6    0    0  0.13304748751E+02  0.33327815241E+01  0.89942039299E+01  0.16401813203E+02  0.00000000000E+00 0.  1.
</event>
<event>
12    1  0.8421768E-002  0.1850986E+03  0.7818608E-02  0.1165842E+00
         21   -1    0    0  501  502  0.00000000000E+00  0.00000000000E+00  0.53620815814E+03  0.53620815814E+03  0.00000000000E+00 0. -1.
         21   -1    0    0  502  503 -0.00000000000E+00 -0.00000000000E+00 -0.60205410285E+02  0.60205410285E+02  0.00000000000E+00 0. -1.
         -6    2    1    2    0  503 -0.16463811768E+02  0.10913564541E+02  0.26895659064E+03  0.32649525693E+03  0.18404168593E+03 0.  0.
        -24    2    3    3    0    0  0.47500576588E+02  0.50415308616E+02  0.12240131455E+03  0.16171549569E+03  0.79823628238E+02 0.  0.
          6    2    1    2  501    0  0.16463811768E+02 -0.10913564541E+02  0.20704615721E+03  0.26991831150E+03  0.17203959043E+03 0.  0.
         24    2    5    5    0    0  0.69956841741E+02 -0.20820704299E+02  0.17865678272E+03  0.20837400016E+03  0.78574910090E+02 0.  0.
          5    1    5    5  501    0 -0.53493029973E+02  0.99071397576E+01  0.28389374492E+02  0.61544311337E+02  0.47000000000E+01 0. -1.
        -13    1    6    6    0    0  0.18827551887E+02  0.23691001705E+02  0.21211678120E+02  0.36955047835E+02  0.00000000000E+00 0.  1.
         14    1    6    6    0    0  0.51129289854E+02 -0.44511706004E+02  0.15744510460E+03  0.17141895232E+03  0.00000000000E+00 0. -1.
         -5    1    3    3    0  503 -0.63964388356E+02 -0.39501744075E+02  0.14655527609E+03  0.16477976124E+03  0.47000000000E+01 0.  1.
         11    1    4    4    0    0 -0.86844898242E+00  0.56551492567E+02  0.58938006372E+02  0.81685458377E+02  0.00000000000E+00 0. -1.
        -12    1    4    4    0    0  0.48369025571E+02 -0.61361839507E+01  0.63463308176E+02  0.80030037316E+02  0.00000000000E+00 0.  1.
</event>
<event>
12    1  0.8421768E-002  0.1850376E+03  0.7818608E-02  0.1163356E+00
         21   -1    0    0  503  502  0.00000000000E+00  0.00000000000E+00  0.86472469881E+02  0.86472469881E+02  0.00000000000E+00 0.  1.
         21   -1    0    0  501  503 -0.00000000000E+00 -0.00000000000E+00 -0.83406688731E+03  0.83406688731E+03  0.00000000000E+00 0.  1.
          6    2    1    2  501    0 -0.43323747486E+02 -0.45051337755E+02 -0.70786728610E+03  0.73128513583E+03  0.17261310789E+03 0.  0.
         24    2    3    3    0    0 -0.41744934065E+02  0.10098943463E+02 -0.62563214132E+03  0.63214505711E+03  0.79669120726E+02 0.  0.
         -6    2    1    2    0  502  0.43323747486E+02  0.45051337755E+02 -0.39727131327E+02  0.18925422137E+03  0.17416183627E+03 0.  0.
        -24    2    5    5    0    0  0.15608684190E+02 -0.49803150324E+01 -0.83892121844E+02  0.11683925467E+03  0.79656065459E+02 0.  0.
          5    1    3    3  501    0 -0.15788134214E+01 -0.55150281218E+02 -0.82235144781E+02  0.99140078714E+02  0.47000000000E+01 0. -1.
        -11    1    4    4    0    0  0.85393419386E+01 -0.18764543634E+01 -0.42081791527E+03  0.42090873031E+03  0.00000000000E+00 0.  1.
         12    1    4    4    0    0 -0.50284276004E+02  0.11975397826E+02 -0.20481422606E+03  0.21123632680E+03  0.00000000000E+00 0. -1.
         -5    1    5    5    0  502  0.27715063296E+02  0.50031652787E+02  0.44164990517E+02  0.72414966695E+02  0.47000000000E+01 0.  1.
         13    1    6    6    0    0  0.42214664967E+02 -0.24033651029E+02 -0.51457659220E+02  0.70764291931E+02  0.00000000000E+00 0. -1.
        -14    1    6    6    0    0 -0.26605980777E+02  0.19053335997E+02 -0.32434462624E+02  0.46074962740E+02  0.00000000000E+00 0.  1.
</event>
<event>
12    1  0.8421768E-002  0.1782620E+03  0.7818608E-02  0.1170027E+00
         21   -1    0    0  501  502  0.00000000000E+00  0.00000000000E+00  0.17882153984E+03  0.17882153984E+03  0.00000000000E+00 0.  1.
         21   -1    0    0  502  503 -0.00000000000E+00 -0.00000000000E+00 -0.19109832101E+03  0.19109832101E+03  0.00000000000E+00 0.  1.
         -6    2    1    2    0  503 -0.12008584973E+02 -0.42503837594E+02  0.46630070700E+02  0.18217707736E+03  0.17047973985E+03 0.  0.
        -24    2    3    3    0    0  0.32497431940E+02 -0.68017983222E+02 -0.45459868911E+01  0.10956278098E+03  0.79377628177E+02 0.  0.
          6    2    1    2  501    0  0.12008584973E+02  0.42503837594E+02 -0.58906851871E+02  0.18774278349E+03  0.17270365726E+03 0.  0.
         24    2    5    5    0    0  0.34133201054E+02 -0.34489140848E+02 -0.14310888686E+02  0.95936970498E+02  0.81513952933E+02 0.  0.
          5    1    5    5  501    0 -0.22124616081E+02  0.76992978442E+02 -0.44595963186E+02  0.91805812989E+02  0.47000000000E+01 0. -1.
        -13    1    6    6    0    0  0.17679764431E+02 -0.26432246503E+02 -0.48006224573E+02  0.57583290313E+02  0.00000000000E+00 0.  1.
         14    1    6    6    0    0  0.16453436623E+02 -0.80568943449E+01  0.33695335887E+02  0.38353680185E+02  0.00000000000E+00 0. -1.
         -5    1    3    3    0  503 -0.44506016913E+02  0.25514145629E+02  0.51176057591E+02  0.72614296383E+02  0.47000000000E+01 0.  1.
         13    1    4    4    0    0  0.35124565879E+02 -0.70138743248E+02  0.23051839419E+02  0.81759193570E+02  0.00000000000E+00 0. -1.
        -14    1    4    4    0    0 -0.26271339391E+01  0.21207600258E+01 -0.27597826310E+02  0.27803587410E+02  0.00000000000E+00 0.  1.
</event>
<event>
12    1  0.8421768E-002  0.2140672E+03  0.7818608E-02  0.1138436E+00
         21   -1    0    0  503  502  0.00000000000E+00  0.00000000000E+00  0.57644846254E+02  0.57644846254E+02  0.00000000000E+00 0.  1.
         21   -1    0    0  501  503 -0.00000000000E+00 -0.00000000000E+00 -0.10004570124E+04  0.10004570124E+04  0.00000000000E+00 0.  1.
          6    2    1    2  501    0 -0.45320276779E+02 -0.11817343771E+03 -0.71152728978E+03  0.74295510856E+03  0.17231459710E+03 0.  0.
         24    2    3    3    0    0  0.47127875823E+01 -0.13484408019E+03 -0.51717864239E+03  0.54152347105E+03  0.86998765637E+02 0.  0.
         -6    2    1    2    0  502  0.45320276779E+02  0.11817343771E+03 -0.23128487641E+03  0.31514675014E+03  0.17264382757E+03 0.  0.
        -24    2    5    5    0    0  0.79452618148E+02  0.24255527116E+02 -0.13609107853E+03  0.17705424559E+03  0.76982953306E+02 0.  0.
          5    1    3    3  501    0 -0.50033064362E+02  0.16670642481E+02 -0.19434864739E+03  0.20143163752E+03  0.47000000000E+01 0. -1.
        -11    1    4    4    0    0 -0.28674999715E+02 -0.43314295654E+02 -0.28557891807E+03  0.29026488293E+03  0.00000000000E+00 0.  1.
         12    1    4    4    0    0  0.33387787297E+02 -0.91529784534E+02 -0.23159972432E+03  0.25125858812E+03  0.00000000000E+00 0. -1.
         -5    1    5    5    0  502 -0.34132341368E+02  0.93917910590E+02 -0.95193797885E+02  0.13809250455E+03  0.47000000000E+01 0.  1.
         13    1    6    6    0    0 -0.91512379616E+01 -0.59991898719E+01 -0.45418748219E+02  0.46718284698E+02  0.00000000000E+00 0. -1.
        -14    1    6    6    0    0  0.88603856109E+02  0.30254716988E+02 -0.90672330308E+02  0.13033596089E+03  0.00000000000E+00 0.  1.
</event>
<event>
12    1  0.8421768E-002  0.1889261E+03  0.7818608E-02  0.1159519E+00
         21   -1    0    0  503  502  0.00000000000E+00  0.00000000000E+00  0.42777095013E+02  0.42777095013E+02  0.00000000000E+00 0.  1.
         21   -1    0    0  501  503 -0.00000000000E+00 -0.00000000000E+00 -0.83635580911E+03  0.83635580911E+03  0.00000000000E+00 0.  1.
          6    2    1    2  501    0  0.25361964045E+01  0.76198731586E+02 -0.42610602314E+03  0.46611093686E+03  0.17285943285E+03 0.  0.
         24    2    3    3    0    0  0.19679115140E+02 -0.18663532894E+02 -0.26624643506E+03  0.27937607995E+03  0.80176273523E+02 0.  0.
         -6    2    1    2    0  502 -0.25361964045E+01 -0.76198731586E+02 -0.36747269096E+03  0.41302196726E+03  0.17244792794E+03 0.  0.
        -24    2    5    5    0    0 -0.42997639709E+02 -0.87779079463E+02 -0.17242653931E+03  0.21343157640E+03  0.79171728115E+02 0.  0.
          5    1    3    3  501    0 -0.17142918736E+02  0.94862264481E+02 -0.15985958808E+03  0.18673485691E+03  0.47000000000E+01 0. -1.
        -13    1    4    4    0    0  0.33935483103E+02 -0.34271120599E+02 -0.24387157327E+03  0.24859499385E+03  0.00000000000E+00 0.  1.
         14    1    4    4    0    0 -0.14256367962E+02  0.15607587704E+02 -0.22374861793E+02  0.30781086103E+02  0.00000000000E+00 0. -1.
         -5    1    5    5    0  502  0.40461443305E+02  0.11580347877E+02 -0.19504615165E+03  0.19959039086E+03  0.47000000000E+01 0.  1.
         13    1    6    6    0    0  0.17366246646E+02 -0.51614518164E+02 -0.88446304197E+02  0.10386719277E+03  0.00000000000E+00 0. -1.
        -14    1    6    6    0    0 -0.60363886355E+02 -0.36164561300E+02 -0.83980235116E+02  0.10956438363E+03  0.00000000000E+00 0.  1.
</event>
<event>
12    1  0.8421768E-002  0.1834453E+03  0.7818608E-02  0.1164670E+00
         21   -1    0    0  503  502  0.00000000000E+00  0.00000000000E+00  0.29165076874E+03  0.29165076874E+03  0.00000000000E+00 0.  1.
         21   -1    0    0  501  503 -0.00000000000E+00 -0.00000000000E+00 -0.28054625821E+03  0.28054625821E+03  0.00000000000E+00 0.  1.
          6    2    1    2  501    0 -0.50430093591E+02  0.39552095295E+02 -0.21424202191E+03  0.28204932663E+03  0.17188547384E+03 0.  0.
         24    2    3    3    0    0 -0.68386447454E+02  0.80528618266E+02 -0.18609106765E+03  0.22898264872E+03  0.81496033022E+02 0.  0.
         -6    2    1    2    0  502  0.50430093591E+02 -0.39552095295E+02  0.22534653244E+03  0.29014770033E+03  0.17116385641E+03 0.  0.
        -24    2    5    5    0    0  0.28841859018E+02 -0.68313317920E+02  0.67688711752E+02  0.12837212051E+03  0.79994233479E+02 0.  0.
          5    1    3    3  501    0  0.17956353863E+02 -0.40976522971E+02 -0.28150954258E+02  0.53066677911E+02  0.47000000000E+01 0. -1.
        -13    1    4    4    0    0  0.14841307249E+02  0.22486890894E+01 -0.70334158490E+01  0.16576789254E+02  0.00000000000E+00 0.  1.
         14    1    4    4    0    0 -0.83227754703E+02  0.78279929177E+02 -0.17905765180E+03  0.21240585946E+03  0.00000000000E+00 0. -1.
         -5    1    5    5    0  502  0.21588234573E+02  0.28761222625E+02  0.15765782069E+03  0.16177557981E+03  0.47000000000E+01 0.  1.
         11    1    6    6    0    0 -0.20494299219E+02 -0.22773232301E+02 -0.31159223931E+01  0.30795216873E+02  0.00000000000E+00 0. -1.
        -12    1    6    6    0    0  0.49336158237E+02 -0.45540085619E+02  0.70804634145E+02  0.97576903641E+02  0.00000000000E+00 0.  1.
</event>
<event>
12    1  0.8421768E-002  0.1745886E+03  0.7818608E-02  0.1173427E+00
         21   -1    0    0  501  502  0.00000000000E+00  0.00000000000E+00  0.43566956776E+03  0.43566956776E+03  0.00000000000E+00 0.  1.
         21   -1    0    0  502  503 -0.00000000000E+00 -0.00000000000E+00 -0.13418959173E+03  0.13418959173E+03  0.00000000000E+00 0.  1.
         -6    2    1    2    0  503  0.31092440842E+01  0.18585764540E+02 -0.46813897141E+02  0.18075597313E+03  0.17356866887E+03 0.  0.
        -24    2    3    3    0    0  0.25325413925E+02 -0.42969190152E+02  0.85265032987E+01  0.94923458487E+02  0.80312102574E+02 0.  0.
          6    2    1    2  501    0 -0.31092440842E+01 -0.18585764540E+02  0.34829387317E+03  0.38910318635E+03  0.17244584512E+03 0.  0.
         24    2    5    5    0    0 -0.51803722428E+02 -0.56692413485E+02  0.20055409277E+03  0.22887709101E+03  0.79152531611E+02 0.  0.
          5    1    5    5  501    0  0.48694478343E+02  0.38106648945E+02  0.14773978040E+03  0.16022609534E+03  0.47000000000E+01 0. -1.
        -13    1    6    6    0    0 -0.49228056205E+02 -0.74277846406E+02  0.18464888020E+03  0.20502636158E+03  0.00000000000E+00 0.  1.
         14    1    6    6    0    0 -0.25756662222E+01  0.17585432921E+02  0.15905212567E+02  0.23850729429E+02  0.00000000000E+00 0. -1.
         -5    1    3    3    0  503 -0.22216169840E+02  0.61554954691E+02 -0.55340400440E+02  0.85832514645E+02  0.47000000000E+01 0.  1.
         11    1    4    4    0    0  0.10149958321E+02  0.17184444893E+02  0.23772102771E+02  0.31039324580E+02  0.00000000000E+00 0. -1.
        -12    1    4    4    0    0  0.15175455603E+02 -0.60153635044E+02 -0.15245599473E+02  0.63884133907E+02  0.00000000000E+00 0.  1.
</event>
<event>
12    1  0.8421768E-002  0.2223791E+03  0.7818608E-02  0.1132209E+00
         21   -1    0    0  503  502  0.00000000000E+00  0.00000000000E+00  0.37813865042E+02  0.37813865042E+02  0.00000000000E+00 0.  1.
         21   -1    0    0  501  503 -0.00000000000E+00 -0.00000000000E+00 -0.15427512297E+04  0.15427512297E+04  0.00000000000E+00 0.  1.
          6    2    1    2  501    0 -0.11295516440E+03 -0.83393996533E+02 -0.44290695033E+03  0.49559966960E+03  0.17245010303E+03 0.  0.
         24    2    3    3    0    0 -0.67408689648E+02 -0.49497096888E+02 -0.41629940740E+03  0.43272254730E+03  0.83364934483E+02 0.  0.
         -6    2    1    2    0  502  0.11295516440E+03  0.83393996533E+02 -0.10620304144E+04  0.10849654252E+04  0.17183697208E+03 0.  0.
        -24    2    5    5    0    0  0.61725729918E+02  0.12636567145E+03 -0.77165997937E+03  0.78695854720E+03  0.63767410137E+02 0.  0.
          5    1    3    3  501    0 -0.45546474752E+02 -0.33896899645E+02 -0.26607542930E+02  0.62877122299E+02  0.47000000000E+01 0. -1.
        -11    1    4    4    0    0 -0.12656836990E+02 -0.38207640692E+02 -0.61198062048E+02  0.73247676606E+02  0.00000000000E+00 0.  1.
         12    1    4    4    0    0 -0.54751852659E+02 -0.11289456197E+02 -0.35510134535E+03  0.35947487070E+03  0.00000000000E+00 0. -1.
         -5    1    5    5    0  502  0.51229434483E+02 -0.42971674916E+02 -0.29037043498E+03  0.29800687796E+03  0.47000000000E+01 0.  1.
         13    1    6    6    0    0  0.21692023985E+02  0.91826206077E+02 -0.37034313037E+03  0.38217356036E+03  0.00000000000E+00 0. -1.
        -14    1    6    6    0    0  0.40033705932E+02  0.34539465373E+02 -0.40131684900E+03  0.40478498684E+03  0.00000000000E+00 0.  1.
</event>
<event>
12    1  0.8421768E-002  0.2189366E+03  0.7818608E-02  0.1134702E+00
         21   -1    0    0  501  502  0.00000000000E+00  0.00000000000E+00  0.72479384329E+02  0.72479384329E+02  0.00000000000E+00 0. -1.
         21   -1    0    0  502  503 -0.00000000000E+00 -0.00000000000E+00 -0.97317424818E+03  0.97317424818E+03  0.00000000000E+00 0.  1.
         -6    2    1    2    0  503 -0.94555636157E+02 -0.98918875678E+02 -0.74639563789E+03  0.77780759077E+03  0.17074099597E+03 0.  0.
        -24    2    3    3    0    0 -0.36246030468E+02 -0.12221570403E+03 -0.44269554296E+03  0.46764861543E+03  0.80407902080E+02 0.  0.
          6    2    1    2  501    0  0.94555636157E+02  0.98918875678E+02 -0.15429922596E+03  0.26784604174E+03  0.17090213178E+03 0.  0.
         24    2    5    5    0    0  0.13421872359E+03  0.10588628275E+03 -0.12108621397E+03  0.21543517042E+03  0.50238140926E+02 0.  0.
          5    1    5    5  501    0 -0.39663087437E+02 -0.69674070758E+01 -0.33213011989E+02  0.52410871312E+02  0.47000000000E+01 0. -1.
        -11    1    6    6    0    0  0.78190253677E+02  0.29766773473E+02 -0.56021624494E+02  0.10068862391E+03  0.00000000000E+00 0.  1.
         12    1    6    6    0    0  0.56028469916E+02  0.76119509281E+02 -0.65064589477E+02  0.11474654652E+03  0.00000000000E+00 0. -1.
         -5    1    3    3    0  503 -0.58309605689E+02  0.23296828351E+02 -0.30370009493E+03  0.31015897534E+03  0.47000000000E+01 0.  1.
         13    1    4    4    0    0  0.24931231302E+02 -0.26677991617E+02 -0.88800433117E+02  0.96014574168E+02  0.00000000000E+00 0. -1.
        -14    1    4    4    0    0 -0.61177261769E+02 -0.95537712412E+02 -0.35389510985E+03  0.37163404126E+03  0.00000000000E+00 0.  1.
</event>
<event>
12    1  0.8421768E-002  0.1926992E+03  0.7818608E-02  0.1156180E+00
         21   -1    0    0  501  502  0.00000000000E+00  0.00000000000E+00  0.66845326546E+03  0.66845326546E+03  0.00000000000E+00 0.  1.
         21   -1    0    0  502  503 -0.00000000000E+00 -0.00000000000E+00 -0.55495301248E+02  0.55495301248E+02  0.00000000000E+00 0.  1.
         -6    2    1    2    0  503 -0.31238516718E+02  0.82896523562E+02  0.32244491961E+03  0.37533586163E+03  0.17046584495E+03 0.  0.
        -24    2    3    3    0    0  0.33634251978E+02  0.87882789718E+02  0.23996901152E+03  0.27018024179E+03  0.80978941260E+02 0.  0.
          6    2    1    2  501    0  0.31238516718E+02 -0.82896523562E+02  0.29051304460E+03  0.34861270508E+03  0.17112951387E+03 0.  0.
         24    2    5    5    0    0  0.25680170052E+02 -0.28234007201E+01  0.23750087067E+03  0.25230600332E+03  0.81143163712E+02 0.  0.
          5    1    5    5  501    0  0.55583466657E+01 -0.80073122842E+02  0.53012173932E+02  0.96306701762E+02  0.47000000000E+01 0. -1.
        -11    1    6    6    0    0  0.24261461488E+02  0.34434040878E+02  0.79547249184E+02  0.90011591128E+02  0.00000000000E+00 0.  1.
         12    1    6    6    0    0  0.14187085639E+01 -0.37257441598E+02  0.15795362149E+03  0.16229441219E+03  0.00000000000E+00 0. -1.
         -5    1    3    3    0  503 -0.64872768695E+02 -0.49862661565E+01  0.82475908087E+02  0.10515561984E+03  0.47000000000E+01 0.  1.
         11    1    4    4    0    0  0.45572270027E+02  0.93117373388E+02  0.17085494451E+03  0.19984766470E+03  0.00000000000E+00 0. -1.
        -12    1    4    4    0    0 -0.11938018049E+02 -0.52345836695E+01  0.69114067016E+02  0.70332577094E+02  0.00000000000E+00 0.  1.
</event>
<event>
12    1  0.8421768E-002  0.2558906E+03  0.7818608E-02  0.1109836E+00
         21   -1    0    0  503  502  0.00000000000E+00  0.00000000000E+00  0.13270716776E+03  0.13270716776E+03  0.00000000000E+00 0. -1.
         21   -1    0    0  501  503 -0.00000000000E+00 -0.00000000000E+00 -0.60354527580E+03  0.60354527580E+03  0.00000000000E+00 0. -1.
          6    2    1    2  501    0 -0.16128531815E+03 -0.10148876755E+03 -0.39394976579E+03  0.46906001087E+03  0.16884298045E+03 0.  0.
         24    2    3    3    0    0 -0.13705825234E+03 -0.13842038418E+03 -0.34472426894E+03  0.40275665829E+03  0.73708458845E+02 0.  0.
         -6    2    1    2    0  502  0.16128531815E+03  0.10148876755E+03 -0.76888342250E+02  0.26719243268E+03  0.17078365003E+03 0.  0.
        -24    2    5    5    0    0  0.17220994903E+03  0.41285059463E+02 -0.62035192258E+02  0.20405337906E+03  0.80179135349E+02 0.  0.
          5    1    3    3  501    0 -0.24227065810E+02  0.36931616628E+02 -0.49225496847E+02  0.66303352588E+02  0.47000000000E+01 0. -1.
        -13    1    4    4    0    0 -0.24058101567E+02 -0.48474965700E+02 -0.46298649316E+02  0.71219235317E+02  0.00000000000E+00 0.  1.
         14    1    4    4    0    0 -0.11300015078E+03 -0.89945418482E+02 -0.29842561962E+03  0.33153742297E+03  0.00000000000E+00 0. -1.
         -5    1    5    5    0  502 -0.10924630880E+02  0.60203708092E+02 -0.14853149992E+02  0.63139053624E+02  0.47000000000E+01 0.  1.
         13    1    6    6    0    0  0.93665618098E+02  0.34181490255E+02  0.60131620647E+01  0.99888840257E+02  0.00000000000E+00 0. -1.
        -14    1    6    6    0    0  0.78544330935E+02  0.71035692081E+01 -0.68048354323E+02  0.10416453880E+03  0.00000000000E+00 0.  1.
</event>
<event>
12    1  0.8421768E-002  0.1997608E+03  0.7818608E-02  0.1150757E+00
         21   -1    0    0  503  502  0.00000000000E+00  0.00000000000E+00  0.33885132699E+03  0.33885132699E+03  0.00000000000E+00 0.  1.
         21   -1    0    0  501  503 -0.00000000000E+00 -0.00000000000E+00 -0.12593368656E+03  0.12593368656E+03  0.00000000000E+00 0. -1.
          6    2    1    2  501    0  0.47996365761E+02  0.89717224880E+02  0.40583518409E+02  0.20384158474E+03  0.17190560821E+03 0.  0.
         24    2    3    3    0    0  0.55888218110E+02  0.12286370677E+03  0.93803954606E+01  0.15740134920E+03  0.80425179790E+02 0.  0.
         -6    2    1    2    0  502 -0.47996365761E+02 -0.89717224880E+02  0.17233412202E+03  0.26094342881E+03  0.16745026682E+03 0.  0.
        -24    2    5    5    0    0  0.55710483420E+01 -0.42172801944E+02  0.16584256359E+03  0.18887283607E+03  0.79747166134E+02 0.  0.
          5    1    3    3  501    0 -0.78918523497E+01 -0.33146481893E+02  0.31203122949E+02  0.46440235541E+02  0.47000000000E+01 0. -1.
        -11    1    4    4    0    0  0.40422185636E+02  0.79828865213E+01  0.27586935364E+01  0.41295156602E+02  0.00000000000E+00 0.  1.
         12    1    4    4    0    0  0.15466032474E+02  0.11488082025E+03  0.66217019242E+01  0.11610619259E+03  0.00000000000E+00 0. -1.
         -5    1    5    5    0  502 -0.53567414103E+02 -0.47544422937E+02  0.64915584316E+01  0.72070592733E+02  0.47000000000E+01 0.  1.
         11    1    6    6    0    0 -0.24836537757E+02 -0.17130505507E+02  0.16430202503E+02  0.34354903303E+02  0.00000000000E+00 0. -1.
        -12    1    6    6    0    0  0.30407586099E+02 -0.25042296437E+02  0.14941236108E+03  0.15451793277E+03  0.00000000000E+00 0.  1.
</event>
<event>
12    1  0.8421768E-002  0.2639994E+03  0.7818608E-02  0.1104896E+00
         21   -1    0    0  503  502  0.00000000000E+00  0.00000000000E+00  0.20840644282E+04  0.20840644282E+04  0.00000000000E+00 0.  1.
         21   -1    0    0  501  503 -0.00000000000E+00 -0.00000000000E+00 -0.43586177889E+02  0.43586177889E+02  0.00000000000E+00 0. -1.
          6    2    1    2  501    0 -0.19822644951E+03 -0.24615652371E+02  0.50283408196E+03  0.56750789317E+03  0.17124088063E+03 0.  0.
         24    2    3    3    0    0 -0.12658888876E+03  0.32966634587E+02  0.40882288244E+03  0.43594856998E+03  0.76180448349E+02 0.  0.
         -6    2    1    2    0  502  0.19822644951E+03  0.24615652371E+02  0.15376441684E+04  0.15601427130E+04  0.17261529653E+03 0.  0.
        -24    2    5    5    0    0  0.10739936340E+03  0.77140937006E+02  0.10457874098E+04  0.10571977597E+04  0.80687353890E+02 0.  0.
          5    1    3    3  501    0 -0.71637560748E+02 -0.57582286958E+02  0.94011199521E+02  0.13155932318E+03  0.47000000000E+01 0. -1.
        -11    1    4    4    0    0 -0.25021087230E+02  0.84155667301E+01  0.19427118384E+02  0.32776355781E+02  0.00000000000E+00 0.  1.
         12    1    4    4    0    0 -0.10156780153E+03  0.24551067857E+02  0.38939576406E+03  0.40317221420E+03  0.00000000000E+00 0. -1.
         -5    1    5    5    0  502  0.90827086107E+02 -0.52525284634E+02  0.49185675857E+03  0.50294495329E+03  0.47000000000E+01 0.  1.
         13    1    6    6    0    0  0.96197878390E+02  0.57722942666E+02  0.57300289828E+03  0.58388208686E+03  0.00000000000E+00 0. -1.
        -14    1    6    6    0    0  0.11201485014E+02  0.19417994339E+02  0.47278451156E+03  0.47331567282E+03  0.00000000000E+00 0.  1.
</event>
<event>
12    1  0.8421768E-002  0.2542179E+03  0.7818608E-02  0.1110948E+00
         21   -1    0    0  501  502  0.00000000000E+00  0.00000000000E+00  0.11164790558E+04  0.11164790558E+04  0.00000000000E+00 0.  1.
         21   -1    0    0  502  503 -0.00000000000E+00 -0.00000000000E+00 -0.11079085116E+03  0.11079085116E+03  0.00000000000E+00 0. -1.
         -6    2    1    2    0  503  0.24670728456E+02  0.18461525063E+03  0.76227977939E+02  0.26367089901E+03  0.17035317067E+03 0.  0.
        -24    2    3    3    0    0  0.11830562203E+02  0.14934723084E+03  0.11866323077E+03  0.20682423006E+03  0.79061635707E+02 0.  0.
          6    2    1    2  501    0 -0.24670728456E+02 -0.18461525063E+03  0.92946022671E+03  0.96359900795E+03  0.17301820563E+03 0.  0.
         24    2    5    5    0    0  0.31202608534E+02 -0.46506246898E+02  0.49208085678E+03  0.50151813847E+03  0.78996454524E+02 0.  0.
          5    1    5    5  501    0 -0.55873336990E+02 -0.13810900373E+03  0.43737936993E+03  0.46208086948E+03  0.47000000000E+01 0. -1.
        -11    1    6    6    0    0  0.31035977160E+02 -0.67236781921E+02  0.33582824973E+03  0.34389624894E+03  0.00000000000E+00 0.  1.
         12    1    6    6    0    0  0.16663137404E+00  0.20730535023E+02  0.15625260705E+03  0.15762188952E+03  0.00000000000E+00 0. -1.
         -5    1    3    3    0  503  0.12840166254E+02  0.35268019783E+02 -0.42435252826E+02  0.56846668954E+02  0.47000000000E+01 0.  1.
         11    1    4    4    0    0 -0.19280681771E+02  0.44545174658E+02  0.44809468774E+01  0.48745216789E+02  0.00000000000E+00 0. -1.
        -12    1    4    4    0    0  0.31111243974E+02  0.10480205618E+03  0.11418228389E+03  0.15807901327E+03  0.00000000000E+00 0.  1.
</event>
<event>
12    1  0.8421768E-002  0.1819868E+03  0.7818608E-02  0.1166077E+00
         21   -1    0    0  503  502  0.00000000000E+00  0.00000000000E+00  0.17143820562E+03  0.17143820562E+03  0.00000000000E+00 0. -1.
         21   -1    0    0  501  503 -0.00000000000E+00 -0.00000000000E+00 -0.59352632805E+03  0.59352632805E+03  0.00000000000E+00 0. -1.
          6    2    1    2  501    0 -0.50908403019E+02  0.32439068570E+02 -0.52563350059E+03  0.55624613446E+03  0.17168350676E+03 0.  0.
         24    2    3    3    0    0 -0.31554401389E+02  0.75234283192E+02 -0.23392482815E+03  0.26074309327E+03  0.81303492239E+02 0.  0.
         -6    2    1    2    0  502  0.50908403019E+02 -0.32439068570E+02  0.10354537817E+03  0.20871839920E+03  0.17087353849E+03 0.  0.
        -24    2    5    5    0    0  0.45677169707E+01 -0.67752104636E+02  0.20145963603E+02  0.10687527450E+03  0.80032822817E+02 0.  0.
          5    1    3    3  501    0 -0.19354001630E+02 -0.42795214623E+02 -0.29170867245E+03  0.29550304119E+03  0.47000000000E+01 0. -1.
        -13    1    4    4    0    0  0.20767857895E+02 -0.48526010396E+00 -0.25424794070E+02  0.32832294352E+02  0.00000000000E+00 0.  1.
         14    1    4    4    0    0 -0.52322259284E+02  0.75719543296E+02 -0.20850003408E+03  0.22791079892E+03  0.00000000000E+00 0. -1.
         -5    1    5    5    0  502  0.46340686048E+02  0.35313036067E+02  0.83399414569E+02  0.10184312471E+03  0.47000000000E+01 0.  1.
         13    1    6    6    0    0 -0.21863301993E+02 -0.63456091703E+02  0.35583470989E+02  0.75966196139E+02  0.00000000000E+00 0. -1.
        -14    1    6    6    0    0  0.26431018964E+02 -0.42960129338E+01 -0.15437507386E+02  0.30909078357E+02  0.00000000000E+00 0.  1.
</event>
<event>
12    1  0.8421768E-002  0.1804342E+03  0.7818608E-02  0.1168530E+00
         21   -1    0    0  501  502  0.00000000000E+00  0.00000000000E+00  0.25652005990E+03  0.25652005990E+03  0.00000000000E+00 0.  1.
         21   -1    0    0  502  503 -0.00000000000E+00 -0.00000000000E+00 -0.34749798444E+03  0.34749798444E+03  0.00000000000E+00 0.  1.
         -6    2    1    2    0  503  0.46106426973E+02  0.11572916695E+02 -0.28809306135E+03  0.33993252171E+03  0.17405968031E+03 0.  0.
        -24    2    3    3    0    0 -0.32456909509E+02  0.21661938753E+02 -0.10183304317E+03  0.13747543841E+03  0.83706851090E+02 0.  0.
          6    2    1    2  501    0 -0.46106426973E+02 -0.11572916695E+02  0.19711513680E+03  0.26408552263E+03  0.16919530460E+03 0.  0.
         24    2    5    5    0    0  0.78004662570E+01 -0.23770961699E+02  0.19065514568E+03  0.20824139201E+03  0.79932389407E+02 0.  0.
          5    1    5    5  501    0 -0.53906893230E+02  0.12198045004E+02  0.64599911188E+01  0.55844130622E+02  0.47000000000E+01 0. -1.
        -13    1    6    6    0    0  0.39297976706E+02 -0.63553196286E+01  0.55013343326E+02  0.67905736169E+02  0.00000000000E+00 0.  1.
         14    1    6    6    0    0 -0.31497510449E+02 -0.17415642070E+02  0.13564180236E+03  0.14033565584E+03  0.00000000000E+00 0. -1.
         -5    1    3    3    0  503  0.78563336483E+02 -0.10089022058E+02 -0.18626001818E+03  0.20245708329E+03  0.47000000000E+01 0.  1.
         11    1    4    4    0    0 -0.13889023497E+02 -0.21410591035E+02 -0.83164974476E+02  0.86992708670E+02  0.00000000000E+00 0. -1.
        -12    1    4    4    0    0 -0.18567886013E+02  0.43072529787E+02 -0.18668068694E+02  0.50482729740E+02  0.00000000000E+00 0.  1.
</event>
<event>
12    1  0.8421768E-002  0.1751953E+03  0.7818608E-02  0.1172797E+00
         21   -1    0    0  501  502  0.00000000000E+00  0.00000000000E+00  0.12529863667E+03  0.12529863667E+03  0.00000000000E+00 0.  1.
         21   -1    0    0  502  503 -0.00000000000E+00 -0.00000000000E+00 -0.24918077293E+03  0.24918077293E+03  0.00000000000E+00 0.  1.
         -6    2    1    2    0  503  0.30616501898E+02 -0.58713697408E+01 -0.90368879107E+02  0.19712923482E+03  0.17239941339E+03 0.  0.
        -24    2    3    3    0    0  0.65671984891E+02 -0.17065381423E+02 -0.61141511491E+01  0.10506870056E+03  0.79987574972E+02 0.  0.
          6    2    1    2  501    0 -0.30616501898E+02  0.58713697408E+01 -0.33513257154E+02  0.17735017478E+03  0.17134206406E+03 0.  0.
         24    2    5    5    0    0 -0.65397959975E+02  0.53328769225E+02 -0.26215325132E+02  0.11787493284E+03  0.78015419784E+02 0.  0.
          5    1    5    5  501    0  0.34781458077E+02 -0.47457399484E+02 -0.72979320219E+01  0.59475241938E+02  0.47000000000E+01 0. -1.
        -13    1    6    6    0    0 -0.64137691861E+02  0.72728045293E+01  0.62900417938E+00  0.64551784245E+02  0.00000000000E+00 0.  1.
         14    1    6    6    0    0 -0.12602681139E+01  0.46055964696E+02 -0.26844329312E+02  0.53323148594E+02  0.00000000000E+00 0. -1.
         -5    1    3    3    0  503 -0.35055482993E+02  0.11194011682E+02 -0.84254727958E+02  0.92060534263E+02  0.47000000000E+01 0.  1.
         13    1    4    4    0    0 -0.25459356064E+01  0.12554231589E+02  0.22085152147E+02  0.25531244863E+02  0.00000000000E+00 0. -1.
        -14    1    4    4    0    0  0.68217920497E+02 -0.29619613012E+02 -0.28199303296E+02  0.79537455694E+02  0.00000000000E+00 0.  1.
</event>
<event>
12    1  0.8421768E-002  0.2303446E+03  0.7818608E-02  0.1126565E+00
         21   -1    0    0  503  502  0.00000000000E+00  0.00000000000E+00  0.11156148513E+04  0.11156148513E+04  0.00000000000E+00 0. -1.
         21   -1    0    0  501  503 -0.00000000000E+00 -0.00000000000E+00 -0.49823108718E+02  0.49823108718E+02  0.00000000000E+00 0.  1.
          6    2    1    2  501    0  0.43502733707E+02 -0.14715570796E+03  0.40236849738E+03  0.46316376084E+03  0.17050798061E+03 0.  0.
         24    2    3    3    0    0  0.80490394507E+02 -0.86844322936E+02  0.17926914454E+03  0.22906770908E+03  0.79460361969E+02 0.  0.
         -6    2    1    2    0  502 -0.43502733707E+02  0.14715570796E+03  0.66342324517E+03  0.70227419914E+03  0.17178870254E+03 0.  0.
        -24    2    5    5    0    0 -0.32112038362E+02  0.10864553379E+03  0.64006579395E+03  0.65557899615E+03  0.85232415084E+02 0.  0.
          5    1    3    3  501    0 -0.36987660800E+02 -0.60311385025E+02  0.22309935284E+03  0.23409605176E+03  0.47000000000E+01 0. -1.
        -13    1    4    4    0    0  0.22455479974E+02 -0.43022162254E+02  0.17298592124E+02  0.51520833799E+02  0.00000000000E+00 0.  1.
         14    1    4    4    0    0  0.58034914533E+02 -0.43822160683E+02  0.16197055241E+03  0.17754687528E+03  0.00000000000E+00 0. -1.
         -5    1    5    5    0  502 -0.11390695345E+02  0.38510174171E+02  0.23357451216E+02  0.46695202992E+02  0.47000000000E+01 0.  1.
         13    1    6    6    0    0 -0.14536845580E+02  0.25685450013E+02  0.39792920929E+03  0.39902220218E+03  0.00000000000E+00 0. -1.
        -14    1    6    6    0    0 -0.17575192782E+02  0.82960083778E+02  0.24213658466E+03  0.25655679397E+03  0.00000000000E+00 0.  1.
</event>
<event>
12    1  0.8421768E-002  0.2250278E+03  0.7818608E-02  0.1131082E+00
         21   -1    0    0  501  502  0.00000000000E+00  0.00000000000E+00  0.47619786321E+02  0.47619786321E+02  0.00000000000E+00 0. -1.
         21   -1    0    0  502  503 -0.00000000000E+00 -0.00000000000E+00 -0.11975359647E+04  0.11975359647E+04  0.00000000000E+00 0. -1.
         -6    2    1    2    0  503 -0.13755664168E+03  0.48844619948E+02 -0.35496425181E+03  0.42028223045E+03  0.17125976351E+03 0.  0.
        -24    2    3    3    0    0 -0.16234666416E+03  0.67684840556E+02 -0.30983155716E+03  0.36524997397E+03  0.80462865139E+02 0.  0.
          6    2    1    2  501    0  0.13755664168E+03 -0.48844619948E+02 -0.79495192657E+03  0.82487352058E+03  0.16480331557E+03 0.  0.
         24    2    5    5    0    0  0.12837229783E+03 -0.52473810062E+02 -0.79785846615E+03  0.81355710926E+03  0.77872269933E+02 0.  0.
          5    1    5    5  501    0  0.91843438504E+01  0.36291901134E+01  0.29065395790E+01  0.11316411320E+02  0.47000000000E+01 0. -1.
        -11    1    6    6    0    0  0.29731544464E+02 -0.13554017223E+02 -0.41501047554E+03  0.41629481251E+03  0.00000000000E+00 0.  1.
         12    1    6    6    0    0  0.98640753368E+02 -0.38919792839E+02 -0.38284799061E+03  0.39726229674E+03  0.00000000000E+00 0. -1.
         -5    1    3    3    0  503  0.24790022474E+02 -0.18840220607E+02 -0.45132694651E+02  0.55032256480E+02  0.47000000000E+01 0.  1.
         13    1    4    4    0    0 -0.15633453017E+03  0.73221881281E+02 -0.24389520648E+03  0.29880897070E+03  0.00000000000E+00 0. -1.
        -14    1    4    4    0    0 -0.60121339842E+01 -0.55370407257E+01 -0.65936350677E+02  0.66441003271E+02  0.00000000000E+00 0.  1.
</event>
<event>
12    1  0.8421768E-002  0.1891912E+03  0.7818608E-02  0.1159383E+00
         21   -1    0    0  501  502  0.00000000000E+00  0.00000000000E+00  0.87464179216E+03  0.87464179216E+03  0.00000000000E+00 0. -1.
         21   -1    0    0  502  503 -0.00000000000E+00 -0.00000000000E+00 -0.65584697363E+02  0.65584697363E+02  0.00000000000E+00 0. -1.
         -6    2    1    2    0  503 -0.28136024570E+02 -0.71372586265E+02  0.11575516145E+03  0.22179400149E+03  0.17293825414E+03 0.  0.
        -24    2    3    3    0    0  0.22588280423E+02 -0.49858604725E+02  0.41843938031E+01  0.97271181443E+02  0.80299830075E+02 0.  0.
          6    2    1    2  501    0  0.28136024570E+02  0.71372586265E+02  0.69330193335E+03  0.71843248804E+03  0.17202321684E+03 0.  0.
         24    2    5    5    0    0  0.85518153039E+02  0.53040869896E+02  0.45748496790E+03  0.47499770892E+03  0.78763184552E+02 0.  0.
          5    1    5    5  501    0 -0.57382128470E+02  0.18331716370E+02  0.23581696544E+03  0.24343477912E+03  0.47000000000E+01 0. -1.
        -11    1    6    6    0    0  0.13172102484E+02 -0.20319537150E+02  0.71056810248E+02  0.75069688666E+02  0.00000000000E+00 0.  1.
         12    1    6    6    0    0  0.72346050555E+02  0.73360407046E+02  0.38642815766E+03  0.39992802025E+03  0.00000000000E+00 0. -1.
         -5    1    3    3    0  503 -0.50724304993E+02 -0.21513981540E+02  0.11157076765E+03  0.12452282004E+03  0.47000000000E+01 0.  1.
         13    1    4    4    0    0 -0.78799705161E+01 -0.28399669048E+02 -0.33262022023E+02  0.44440941107E+02  0.00000000000E+00 0. -1.
        -14    1    4    4    0    0  0.30468250940E+02 -0.21458935677E+02  0.37446415826E+02  0.52830240336E+02  0.00000000000E+00 0.  1.
</event>
<event>
12    1  0.8421768E-002  0.1764229E+03  0.7818608E-02  0.1175982E+00
         21   -1    0    0  503  502  0.00000000000E+00  0.00000000000E+00  0.18798710198E+03  0.18798710198E+03  0.00000000000E+00 0. -1.
         21   -1    0    0  501  503 -0.00000000000E+00 -0.00000000000E+00 -0.14961155076E+03  0.14961155076E+03  0.00000000000E+00 0. -1.
          6    2    1    2  501    0  0.26092146422E+02  0.32355973414E+02  0.12657615580E+02  0.17687639408E+03  0.17145650886E+03 0.  0.
         24    2    3    3    0    0  0.46832070173E+02 -0.38659497579E+02  0.20102144888E+02  0.10237235006E+03  0.79926230231E+02 0.  0.
         -6    2    1    2    0  502 -0.26092146422E+02 -0.32355973414E+02  0.25717935645E+02  0.16072225867E+03  0.15310951341E+03 0.  0.
        -24    2    5    5    0    0  0.16042091255E+02 -0.63899878807E+02  0.60964511297E+01  0.10435378692E+03  0.80696982136E+02 0.  0.
          5    1    3    3  501    0 -0.20739923751E+02  0.71015470993E+02 -0.74445293080E+01  0.74504044012E+02  0.47000000000E+01 0. -1.
        -11    1    4    4    0    0  0.68632187548E+02 -0.37222456748E+02  0.19691435104E+02  0.80521059795E+02  0.00000000000E+00 0.  1.
         12    1    4    4    0    0 -0.21800117375E+02 -0.14370408310E+01  0.41070978375E+00  0.21851290270E+02  0.00000000000E+00 0. -1.
         -5    1    5    5    0  502 -0.42134237677E+02  0.31543905393E+02  0.19621484515E+02  0.56368471743E+02  0.47000000000E+01 0.  1.
         13    1    6    6    0    0 -0.25509728550E+02 -0.35989425162E+02  0.25168335080E+02  0.50788089794E+02  0.00000000000E+00 0. -1.
        -14    1    6    6    0    0  0.41551819805E+02 -0.27910453644E+02 -0.19071883950E+02  0.53565697131E+02  0.00000000000E+00 0.  1.
</event>
<event>
12    1  0.8421768E-002  0.1753447E+03  0.7818608E-02  0.1172393E+00
         21   -1    0    0  503  502  0.00000000000E+00  0.00000000000E+00  0.97997190739E+02  0.97997190739E+02  0.00000000000E+00 0.  1.
         21   -1    0    0  501  503 -0.00000000000E+00 -0.00000000000E+00 -0.45544979504E+03  0.45544979504E+03  0.00000000000E+00 0.  1.
          6    2    1    2  501    0  0.14354338487E+02 -0.31251074614E+02 -0.24353201376E+02  0.17702779435E+03  0.17193918942E+03 0.  0.
         24    2    3    3    0    0  0.57884980605E+02 -0.44485841328E+02  0.22219377861E+02  0.11175014894E+03  0.81637821980E+02 0.  0.
         -6    2    1    2    0  502 -0.14354338487E+02  0.31251074614E+02 -0.33309940293E+03  0.37641919143E+03  0.17191136888E+03 0.  0.
        -24    2    5    5    0    0 -0.15503638833E+02 -0.34289322253E+02 -0.27604252508E+03  0.28938792221E+03  0.78292869598E+02 0.  0.
          5    1    3    3  501    0 -0.43530642119E+02  0.13234766714E+02 -0.46572579237E+02  0.65277645408E+02  0.47000000000E+01 0. -1.
        -13    1    4    4    0    0  0.77324841606E+02 -0.41423428565E+02  0.93094114769E+01  0.88213925802E+02  0.00000000000E+00 0.  1.
         14    1    4    4    0    0 -0.19439861000E+02 -0.30624127632E+01  0.12909966384E+02  0.23536223140E+02  0.00000000000E+00 0. -1.
         -5    1    5    5    0  502  0.11493003459E+01  0.65540396867E+02 -0.57056877846E+02  0.87031269222E+02  0.47000000000E+01 0.  1.
         13    1    6    6    0    0  0.30865827875E+02 -0.46589450376E+01 -0.11710098124E+03  0.12119011885E+03  0.00000000000E+00 0. -1.
        -14    1    6    6    0    0 -0.46369466708E+02 -0.29630377215E+02 -0.15894154384E+03  0.16819780336E+03  0.00000000000E+00 0.  1.
</event>
<event>
12    1  0.8421768E-002  0.1967378E+03  0.7818608E-02  0.1155437E+00
         21   -1    0    0  501  502  0.00000000000E+00  0.00000000000E+00  0.28967400758E+02  0.28967400758E+02  0.00000000000E+00 0. -1.
         21   -1    0    0  502  503 -0.00000000000E+00 -0.00000000000E+00 -0.12624402201E+04  0.12624402201E+04  0.00000000000E+00 0. -1.
         -6    2    1    2    0  503 -0.20690307905E+02 -0.90155037795E+02 -0.57123409429E+03  0.60416402178E+03  0.17363684818E+03 0.  0.
        -24    2    3    3    0    0  0.49953422431E+02 -0.43493909039E+02 -0.23045087424E+03  0.25299014655E+03  0.80680507417E+02 0.  0.
          6    2    1    2  501    0  0.20690307905E+02  0.90155037795E+02 -0.66223872501E+03  0.68724359905E+03  0.15870606743E+03 0.  0.
         24    2    5    5    0    0  0.26878246600E+02  0.11894951156E+03 -0.42351072171E+03  0.44665980519E+03  0.72610080077E+02 0.  0.
          5    1    5    5  501    0 -0.61879386954E+01 -0.28794473762E+02 -0.23872800331E+03  0.24058379386E+03  0.47000000000E+01 0. -1.
        -13    1    6    6    0    0  0.38327235274E+02  0.39964130349E+02 -0.11001298614E+03  0.12316235544E+03  0.00000000000E+00 0.  1.
         14    1    6    6    0    0 -0.11448988674E+02  0.78985381208E+02 -0.31349773557E+03  0.32349744975E+03  0.00000000000E+00 0. -1.
         -5    1    3    3    0  503 -0.70643730336E+02 -0.46661128756E+02 -0.34078322005E+03  0.35117387523E+03  0.47000000000E+01 0.  1.
         13    1    4    4    0    0  0.14200605445E+01  0.22125699030E+02 -0.61087272894E+02  0.64986291163E+02  0.00000000000E+00 0. -1.
        -14    1    4    4    0    0  0.48533361887E+02 -0.65619608069E+02 -0.16936360135E+03  0.18800385539E+03  0.00000000000E+00 0.  1.
</event>
<event>
12    1  0.8421768E-002  0.2391358E+03  0.7818608E-02  0.1120385E+00
         21   -1    0    0  503  502  0.00000000000E+00  0.00000000000E+00  0.11180502560E+03  0.11180502560E+03  0.00000000000E+00 0. -1.
         21   -1    0    0  501  503 -0.00000000000E+00 -0.00000000000E+00 -0.10255910631E+04  0.10255910631E+04  0.00000000000E+00 0. -1.
          6    2    1    2  501    0  0.80333051350E+02 -0.14481890786E+03 -0.85957267429E+03  0.89219201129E+03  0.17238180708E+03 0.  0.
         24    2    3    3    0    0  0.63981732838E+02 -0.92688730905E+02 -0.79665845139E+03  0.80873417517E+03  0.81862170411E+02 0.  0.
         -6    2    1    2    0  502 -0.80333051350E+02  0.14481890786E+03 -0.54213363254E+02  0.24520407746E+03  0.17251097250E+03 0.  0.
        -24    2    5    5    0    0 -0.57816317049E+00  0.22376927790E+02 -0.53764022648E+02  0.99001572077E+02  0.80060476968E+02 0.  0.
          5    1    3    3  501    0  0.16351318511E+02 -0.52130176954E+02 -0.62914222893E+02  0.83457836113E+02  0.47000000000E+01 0. -1.
        -13    1    4    4    0    0 -0.33207289889E+01  0.11809133697E+02 -0.13079592064E+03  0.13136991945E+03  0.00000000000E+00 0.  1.
         14    1    4    4    0    0  0.67302461827E+02 -0.10449786460E+03 -0.66586253075E+03  0.67736425572E+03  0.00000000000E+00 0. -1.
         -5    1    5    5    0  502 -0.79754888179E+02  0.12244198007E+03 -0.44934060604E+00  0.14620250538E+03  0.47000000000E+01 0.  1.
         13    1    6    6    0    0 -0.34087130353E+02  0.23146538336E+02 -0.50718480833E+02  0.65345688386E+02  0.00000000000E+00 0. -1.
        -14    1    6    6    0    0  0.33508967183E+02 -0.76961054634E+00 -0.30455418148E+01  0.33655883690E+02  0.00000000000E+00 0.  1.
</event>
<event>
12    1  0.8421768E-002  0.2043383E+03  0.7818608E-02  0.1146194E+00
         21   -1    0    0  501  502  0.00000000000E+00  0.00000000000E+00  0.54490217883E+02  0.54490217883E+02  0.00000000000E+00 0. -1.
         21   -1    0    0  502  503 -0.00000000000E+00 -0.00000000000E+00 -0.10675264654E+04  0.10675264654E+04  0.00000000000E+00 0. -1.
         -6    2    1    2    0  503 -0.15651171171E+02  0.10818899937E+03 -0.80484456756E+03  0.83030122209E+03  0.17226584899E+03 0.  0.
        -24    2    3    3    0    0 -0.16067616279E+02  0.73785376696E+02 -0.25727602619E+03  0.28163266989E+03  0.86160066085E+02 0.  0.
          6    2    1    2  501    0  0.15651171171E+02 -0.10818899937E+03 -0.20819168000E+03  0.29171546124E+03  0.17263926541E+03 0.  0.
         24    2    5    5    0    0  0.48997249936E+02 -0.12644653603E+03 -0.19671288462E+03  0.25172607068E+03  0.79250228421E+02 0.  0.
          5    1    5    5  501    0 -0.33346078764E+02  0.18257536666E+02 -0.11478795376E+02  0.39989390560E+02  0.47000000000E+01 0. -1.
        -11    1    6    6    0    0 -0.18729765006E+02 -0.75223531652E+01 -0.26836410069E+02  0.33579499694E+02  0.00000000000E+00 0.  1.
         12    1    6    6    0    0  0.67727014942E+02 -0.11892418287E+03 -0.16987647455E+03  0.21814657098E+03  0.00000000000E+00 0. -1.
         -5    1    3    3    0  503  0.41644510827E+00  0.34403622673E+02 -0.54756854137E+03  0.54866855220E+03  0.47000000000E+01 0.  1.
         11    1    4    4    0    0 -0.34386510584E+02  0.51694449744E+02 -0.24051285206E+03  0.24839722271E+03  0.00000000000E+00 0. -1.
        -12    1    4    4    0    0  0.18318894304E+02  0.22090926951E+02 -0.16763174133E+02  0.33235447178E+02  0.00000000000E+00 0.  1.
</event>
<event>
12    1  0.8421768E-002  0.2009907E+03  0.7818608E-02  0.1149624E+00
         21   -1    0    0  501  502  0.00000000000E+00  0.00000000000E+00  0.19126850697E+03  0.19126850697E+03  0.00000000000E+00 0.  1.
         21   -1    0    0  502  503 -0.00000000000E+00 -0.00000000000E+00 -0.23514567566E+03  0.23514567566E+03  0.00000000000E+00 0.  1.
         -6    2    1    2    0  503  0.98155075785E+02 -0.15004995458E+02 -0.95005353959E+02  0.22231348997E+03  0.17475039843E+03 0.  0.
        -24    2    3    3    0    0  0.61625578059E+02 -0.13116727824E+02 -0.13455904034E+03  0.16823434552E+03  0.78910704305E+02 0.  0.
          6    2    1    2  501    0 -0.98155075785E+02  0.15004995458E+02  0.51128185261E+02  0.20410069266E+03  0.17083159141E+03 0.  0.
         24    2    5    5    0    0 -0.92528005663E+02  0.30428224260E+01  0.96300332185E+02  0.15679984320E+03  0.82108137523E+02 0.  0.
          5    1    5    5  501    0 -0.56270701221E+01  0.11962173032E+02 -0.45172146923E+02  0.47300849458E+02  0.47000000000E+01 0. -1.
        -11    1    6    6    0    0 -0.10117040444E+03 -0.14722356401E+02  0.69991119339E+02  0.12389897215E+03  0.00000000000E+00 0.  1.
         12    1    6    6    0    0  0.86423987769E+01  0.17765178827E+02  0.26309212846E+02  0.32900871051E+02  0.00000000000E+00 0. -1.
         -5    1    3    3    0  503  0.36529497726E+02 -0.18882676335E+01  0.39553686383E+02  0.54079144457E+02  0.47000000000E+01 0.  1.
         11    1    4    4    0    0  0.18363809096E+00  0.24586862560E+02 -0.15541699613E+02  0.29087659932E+02  0.00000000000E+00 0. -1.
        -12    1    4    4    0    0  0.61441939968E+02 -0.37703590384E+02 -0.11901734073E+03  0.13914668558E+03  0.00000000000E+00 0.  1.
</event>
<event>
12    1  0.8421768E-002  0.1943057E+03  0.7818608E-02  0.1155886E+00
         21   -1    0    0  503  502  0.00000000000E+00  0.00000000000E+00  0.72180987572E+02  0.72180987572E+02  0.00000000000E+00 0.  1.
         21   -1    0    0  501  503 -0.00000000000E+00 -0.00000000000E+00 -0.84614062706E+03  0.84614062706E+03  0.00000000000E+00 0.  1.
          6    2    1    2  501    0  0.45230334583E+02  0.76796700386E+02 -0.67380201230E+03  0.69972093804E+03  0.16630310580E+03 0.  0.
         24    2    3    3    0    0  0.81092832260E+01  0.54478856701E+02 -0.63157480966E+03  0.63904734211E+03  0.80380712609E+02 0.  0.
         -6    2    1    2    0  502 -0.45230334583E+02 -0.76796700386E+02 -0.10015762719E+03  0.21860067659E+03  0.17265917052E+03 0.  0.
        -24    2    5    5    0    0  0.13867195775E+02 -0.10735912024E+02 -0.10043099261E+03  0.12983857555E+03  0.80399704587E+02 0.  0.
          5    1    3    3  501    0  0.37121051357E+02  0.22317843685E+02 -0.42227202643E+02  0.60673595935E+02  0.47000000000E+01 0. -1.
        -11    1    4    4    0    0  0.29696073432E+02  0.42363236007E+02 -0.57463718693E+03  0.57696134805E+03  0.00000000000E+00 0.  1.
         12    1    4    4    0    0 -0.21586790206E+02  0.12115620694E+02 -0.56937622731E+02  0.62085994060E+02  0.00000000000E+00 0. -1.
         -5    1    5    5    0  502 -0.59097530358E+02 -0.66060788362E+02  0.27336541974E+00  0.88762101046E+02  0.47000000000E+01 0.  1.
         11    1    6    6    0    0  0.38103042834E+02  0.17082680622E+01 -0.16429181775E+02  0.41529243513E+02  0.00000000000E+00 0. -1.
        -12    1    6    6    0    0 -0.24235847058E+02 -0.12444180086E+02 -0.84001810834E+02  0.88309332033E+02  0.00000000000E+00 0.  1.
</event>
<event>
12    1  0.8421768E-002  0.1750466E+03  0.7818608E-02  0.1172982E+00
         21   -1    0    0  501  502  0.00000000000E+00  0.00000000000E+00  0.58597215453E+03  0.58597215453E+03  0.00000000000E+00 0.  1.
         21   -1    0    0  502  503 -0.00000000000E+00 -0.00000000000E+00 -0.56663192394E+02  0.56663192394E+02  0.00000000000E+00 0.  1.
         -6    2    1    2    0  503  0.31085392322E+01  0.26615842922E+02  0.35661032827E+03  0.39673674418E+03  0.17178781052E+03 0.  0.
        -24    2    3    3    0    0 -0.63418119974E+02  0.62849999847E+01  0.18081430551E+03  0.20761913215E+03  0.79690223950E+02 0.  0.
          6    2    1    2  501    0 -0.31085392322E+01 -0.26615842922E+02  0.17269863386E+03  0.24589860274E+03  0.17298334770E+03 0.  0.
         24    2    5    5    0    0  0.32263696052E+02  0.29680526930E+02  0.42511312524E+02  0.99640936534E+02  0.78735155929E+02 0.  0.
          5    1    5    5  501    0 -0.35372235284E+02 -0.56296369852E+02  0.13018732133E+03  0.14625766620E+03  0.47000000000E+01 0. -1.
        -11    1    6    6    0    0  0.12808182416E+02  0.51813296735E+02  0.45348013933E+02  0.70036487798E+02  0.00000000000E+00 0.  1.
         12    1    6    6    0    0  0.19455513636E+02 -0.22132769805E+02 -0.28367014095E+01  0.29604448736E+02  0.00000000000E+00 0. -1.
         -5    1    3    3    0  503  0.66526659206E+02  0.20330842937E+02  0.17579602277E+03  0.18911761203E+03  0.47000000000E+01 0.  1.
         13    1    4    4    0    0 -0.31499532435E+02  0.29619570598E+02  0.15372676140E+03  0.15969175520E+03  0.00000000000E+00 0. -1.
        -14    1    4    4    0    0 -0.31918587539E+02 -0.23334570613E+02  0.27087544103E+02  0.47927376954E+02  0.00000000000E+00 0.  1.
</event>
<event>
12    1  0.8421768E-002  0.1818084E+03  0.7818608E-02  0.1167493E+00
         21   -1    0    0  503  502  0.00000000000E+00  0.00000000000E+00  0.77537952578E+03  0.77537952578E+03  0.00000000000E+00 0. -1.
         21   -1    0    0  501  503 -0.00000000000E+00 -0.00000000000E+00 -0.88923262843E+02  0.88923262843E+02  0.00000000000E+00 0. -1.
          6    2    1    2  501    0 -0.24965947773E+02  0.51800106217E+02  0.29485342074E+02  0.18418382768E+03  0.17247535311E+03 0.  0.
         24    2    3    3    0    0 -0.33607432046E+01  0.77611817174E+02  0.69173262270E+02  0.13193203062E+03  0.81155601962E+02 0.  0.
         -6    2    1    2    0  502  0.24965947773E+02 -0.51800106217E+02  0.65697092086E+03  0.68011896094E+03  0.16626623415E+03 0.  0.
        -24    2    5    5    0    0  0.64418046028E+02 -0.30742059418E+02  0.27241785242E+03  0.29294579317E+03  0.80690721574E+02 0.  0.
          5    1    3    3  501    0 -0.21605204568E+02 -0.25811710957E+02 -0.39687920197E+02  0.52251797065E+02  0.47000000000E+01 0. -1.
        -11    1    4    4    0    0 -0.15461954836E+02 -0.13353098888E+02  0.15265277522E+02  0.25503058544E+02  0.00000000000E+00 0.  1.
         12    1    4    4    0    0  0.12101211631E+02  0.90964916062E+02  0.53907984748E+02  0.10642897207E+03  0.00000000000E+00 0. -1.
         -5    1    5    5    0  502 -0.39452098255E+02 -0.21058046799E+02  0.38455306844E+03  0.38717316777E+03  0.47000000000E+01 0.  1.
         11    1    6    6    0    0 -0.16603324788E+02 -0.19424082330E+02  0.54999646442E+02  0.60645910638E+02  0.00000000000E+00 0. -1.
        -12    1    6    6    0    0  0.81021370815E+02 -0.11317977089E+02  0.21741820598E+03  0.23229988254E+03  0.00000000000E+00 0.  1.
</event>
<event>
12    1  0.8421768E-002  0.1987612E+03  0.7818608E-02  0.1151792E+00
         21   -1    0    0  501  502  0.00000000000E+00  0.00000000000E+00  0.44471339016E+03  0.44471339016E+03  0.00000000000E+00 0. -1.
         21   -1    0    0  502  503 -0.00000000000E+00 -0.00000000000E+00 -0.95761554649E+02  0.95761554649E+02  0.00000000000E+00 0. -1.
         -6    2    1    2    0  503 -0.35097399586E+02 -0.81116495103E+02  0.25918331574E+03  0.32662211434E+03  0.17802893356E+03 0.  0.
        -24    2    3    3    0    0 -0.41869803682E+02 -0.77872760370E+01  0.23064125363E+03  0.24750334832E+03  0.79049335410E+02 0.  0.
          6    2    1    2  501    0  0.35097399586E+02  0.81116495103E+02  0.89768519773E+02  0.21385283047E+03  0.17280894862E+03 0.  0.
         24    2    5    5    0    0 -0.31793501240E+02  0.86411075679E+02  0.31291290162E+02  0.12472314080E+03  0.78096198954E+02 0.  0.
          5    1    5    5  501    0  0.66890900826E+02 -0.52945805759E+01  0.58477229611E+02  0.89129689665E+02  0.47000000000E+01 0. -1.
        -13    1    6    6    0    0 -0.25206141570E+02  0.99609408486E+02  0.36559756801E+02  0.10905961512E+03  0.00000000000E+00 0.  1.
         14    1    6    6    0    0 -0.65873596698E+01 -0.13198332807E+02 -0.52684666392E+01  0.15663525689E+02  0.00000000000E+00 0. -1.
         -5    1    3    3    0  503  0.67724040963E+01 -0.73329219066E+02  0.28542062108E+02  0.79118766013E+02  0.47000000000E+01 0.  1.
         11    1    4    4    0    0 -0.64697195374E+02  0.20508497212E+01  0.15893032466E+03  0.17160647182E+03  0.00000000000E+00 0. -1.
        -12    1    4    4    0    0  0.22827391692E+02 -0.98381257581E+01  0.71710928970E+02  0.75896876508E+02  0.00000000000E+00 0.  1.
</event>
<event>
12    1  0.8421768E-002  0.1883319E+03  0.7818608E-02  0.1161046E+00
         21   -1    0    0  503  502  0.00000000000E+00  0.00000000000E+00  0.11605581031E+04  0.11605581031E+04  0.00000000000E+00 0.  1.
         21   -1    0    0  501  503 -0.00000000000E+00 -0.00000000000E+00 -0.66391867933E+02  0.66391867933E+02  0.00000000000E+00 0.  1.
          6    2    1    2  501    0  0.49175263905E+02 -0.52512567848E+02  0.94809462779E+02  0.21085003795E+03  0.17404921117E+03 0.  0.
         24    2    3    3    0    0  0.76234902976E+02 -0.32654988055E+02  0.63786058801E+01  0.11614706021E+03  0.81063828587E+02 0.  0.
         -6    2    1    2    0  502 -0.49175263905E+02  0.52512567848E+02  0.99935677239E+03  0.10160999331E+04  0.16902467017E+03 0.  0.
        -24    2    5    5    0    0 -0.81221111147E+02 -0.60633086349E+01  0.60867724653E+03  0.61972807288E+03  0.83314232095E+02 0.  0.
          5    1    3    3  501    0 -0.27059639071E+02 -0.19857579792E+02  0.88430856899E+02  0.94702977745E+02  0.47000000000E+01 0. -1.
        -13    1    4    4    0    0  0.84775374785E+02 -0.14613664414E+02  0.24225102301E+02  0.89371577915E+02  0.00000000000E+00 0.  1.
         14    1    4    4    0    0 -0.85404718091E+01 -0.18041323641E+02 -0.17846496421E+02  0.26775482292E+02  0.00000000000E+00 0. -1.
         -5    1    5    5    0  502  0.32045847242E+02  0.58575876483E+02  0.39067952587E+03  0.39637186020E+03  0.47000000000E+01 0.  1.
         13    1    6    6    0    0 -0.53801403902E+02 -0.10348672724E+02  0.14163967424E+03  0.15186666325E+03  0.00000000000E+00 0. -1.
        -14    1    6    6    0    0 -0.27419707245E+02  0.42853640887E+01  0.46703757229E+03  0.46786140963E+03  0.00000000000E+00 0.  1.
</event>
<event>
12    1  0.8421768E-002  0.1777273E+03  0.7818608E-02  0.1170501E+00
         21   -1    0    0  501  502  0.00000000000E+00  0.00000000000E+00  0.70329499102E+02  0.70329499102E+02  0.00000000000E+00 0. -1.
         21   -1    0    0  502  503 -0.00000000000E+00 -0.00000000000E+00 -0.47944076822E+03  0.47944076822E+03  0.00000000000E+00 0. -1.
         -6    2    1    2    0  503 -0.14577084762E+02 -0.34536536972E+02 -0.28007965556E+03  0.33171011352E+03  0.17372887544E+03 0.  0.
        -24    2    3    3    0    0 -0.73442949918E+02 -0.41277857694E+02 -0.20782074752E+03  0.23814689811E+03  0.80167035308E+02 0.  0.
          6    2    1    2  501    0  0.14577084762E+02  0.34536536972E+02 -0.12903161356E+03  0.21806015381E+03  0.17174344120E+03 0.  0.
         24    2    5    5    0    0 -0.17555596616E+02  0.82333069169E+02 -0.61147356598E+02  0.12891207450E+03  0.76107755718E+02 0.  0.
          5    1    5    5  501    0  0.32132681378E+02 -0.47796532197E+02 -0.67884256959E+02  0.89148079314E+02  0.47000000000E+01 0. -1.
        -13    1    6    6    0    0 -0.15704908033E+02 -0.65819228115E+01  0.53690167964E+01  0.17854752464E+02  0.00000000000E+00 0.  1.
         14    1    6    6    0    0 -0.18506885834E+01  0.88914991980E+02 -0.66516373395E+02  0.11105732203E+03  0.00000000000E+00 0. -1.
         -5    1    3    3    0  503  0.58865865156E+02  0.67413207215E+01 -0.72258908042E+02  0.93563215406E+02  0.47000000000E+01 0.  1.
         11    1    4    4    0    0 -0.68866800391E+02  0.30006696689E+01 -0.15080153469E+03  0.16580935764E+03  0.00000000000E+00 0. -1.
        -12    1    4    4    0    0 -0.45761495273E+01 -0.44278527362E+02 -0.57019212831E+02  0.72337540473E+02  0.00000000000E+00 0.  1.
</event>
<event>
12    1  0.8421768E-002  0.1934744E+03  0.7818608E-02  0.1155560E+00
         21   -1    0    0  501  502  0.00000000000E+00  0.00000000000E+00  0.20993140660E+03  0.20993140660E+03  0.00000000000E+00 0. -1.
         21   -1    0    0  502  503 -0.00000000000E+00 -0.00000000000E+00 -0.32304229241E+03  0.32304229241E+03  0.00000000000E+00 0. -1.
         -6    2    1    2    0  503  0.71111146048E+02 -0.53224244734E+02  0.12239260876E+03  0.22818812513E+03  0.17088081944E+03 0.  0.
        -24    2    3    3    0    0  0.25575582068E+02 -0.76108488322E+01  0.14621516581E+03  0.15931379249E+03  0.57358297975E+02 0.  0.
          6    2    1    2  501    0 -0.71111146048E+02  0.53224244734E+02 -0.23550349456E+03  0.30478557388E+03  0.17188000109E+03 0.  0.
         24    2    5    5    0    0 -0.10253285973E+03  0.10020661906E+02 -0.12108305618E+03  0.17842102038E+03  0.80991067609E+02 0.  0.
          5    1    5    5  501    0  0.31421713682E+02  0.43203582828E+02 -0.11442043839E+03  0.12636455350E+03  0.47000000000E+01 0. -1.
        -13    1    6    6    0    0 -0.57346578697E+02 -0.19681931265E+02 -0.10627856882E+03  0.12235662098E+03  0.00000000000E+00 0.  1.
         14    1    6    6    0    0 -0.45186281033E+02  0.29702593171E+02 -0.14804487352E+02  0.56064399403E+02  0.00000000000E+00 0. -1.
         -5    1    3    3    0  503  0.45535563979E+02 -0.45613395901E+02 -0.23822557047E+02  0.68874332642E+02  0.47000000000E+01 0.  1.
         11    1    4    4    0    0 -0.10682457604E+01 -0.18689768417E+02  0.12474871974E+02  0.22496022388E+02  0.00000000000E+00 0. -1.
        -12    1    4    4    0    0  0.26643827829E+02  0.11078919585E+02  0.13374029383E+03  0.13681777010E+03  0.00000000000E+00 0.  1.
</event>
<event>
12    1  0.8421768E-002  0.1862613E+03  0.7818608E-02  0.1162703E+00
         21   -1    0    0  503  502  0.00000000000E+00  0.00000000000E+00  0.44773222961E+03  0.44773222961E+03  0.00000000000E+00 0.  1.
         21   -1    0    0  501  503 -0.00000000000E+00 -0.00000000000E+00 -0.80347215070E+02  0.80347215070E+02  0.00000000000E+00 0.  1.
          6    2    1    2  501    0  0.57101621665E+02  0.11590718762E+02  0.12411464531E+03  0.22382522500E+03  0.17691338617E+03 0.  0.
         24    2    3    3    0    0 -0.19655560690E+02 -0.31245300953E+02  0.95083235609E+02  0.13113486748E+03  0.82419183913E+02 0.  0.
         -6    2    1    2    0  502 -0.57101621665E+02 -0.11590718762E+02  0.24327036922E+03  0.30425421968E+03  0.17319127487E+03 0.  0.
        -24    2    5    5    0    0 -0.61983357840E+02 -0.64945887111E+02  0.11798888342E+03  0.16791586842E+03  0.78831829580E+02 0.  0.
          5    1    3    3  501    0  0.76757182355E+02  0.42836019715E+02  0.29031409703E+02  0.92690357521E+02  0.47000000000E+01 0. -1.
        -13    1    4    4    0    0  0.19884027295E+02 -0.43593946584E+02  0.60483521057E+02  0.77162575383E+02  0.00000000000E+00 0.  1.
         14    1    4    4    0    0 -0.39539587985E+02  0.12348645631E+02  0.34599714552E+02  0.53972292095E+02  0.00000000000E+00 0. -1.
         -5    1    5    5    0  502  0.48817361745E+01  0.53355168349E+02  0.12528148581E+03  0.13633835126E+03  0.47000000000E+01 0.  1.
         13    1    6    6    0    0  0.32846574495E+01 -0.51754437421E+02  0.40872408640E+02  0.66029270445E+02  0.00000000000E+00 0. -1.
        -14    1    6    6    0    0 -0.65268015289E+02 -0.13191449690E+02  0.77116474777E+02  0.10188659797E+03  0.00000000000E+00 0.  1.
</event>
<event>
12    1  0.8421768E-002  0.1801234E+03  0.7818608E-02  0.1168083E+00
         21   -1    0    0  501  502  0.00000000000E+00  0.00000000000E+00  0.48680829570E+03  0.48680829570E+03  0.00000000000E+00 0.  1.
         21   -1    0    0  502  503 -0.00000000000E+00 -0.00000000000E+00 -0.67741041905E+02  0.67741041905E+02  0.00000000000E+00 0.  1.
         -6    2    1    2    0  503 -0.44637124351E+02  0.15276314128E+02  0.16466887623E+03  0.24283956960E+03  0.17213186551E+03 0.  0.
        -24    2    3    3    0    0  0.37348572969E+02 -0.18449606621E+02  0.86941750677E+02  0.12484512761E+03  0.79322972645E+02 0.  0.
          6    2    1    2  501    0  0.44637124351E+02 -0.15276314128E+02  0.25439837757E+03  0.31170976800E+03  0.17383499738E+03 0.  0.
         24    2    5    5    0    0  0.91303383123E+02 -0.37232729248E+02  0.16211027844E+03  0.20588440661E+03  0.79912843858E+02 0.  0.
          5    1    5    5  501    0 -0.46666258772E+02  0.21956415120E+02  0.92288099132E+02  0.10582536139E+03  0.47000000000E+01 0. -1.
        -13    1    6    6    0    0  0.74738164008E+02  0.10419505575E+02  0.84197816753E+02  0.11306472306E+03  0.00000000000E+00 0.  1.
         14    1    6    6    0    0  0.16565219115E+02 -0.47652234823E+02  0.77912461684E+02  0.92819683546E+02  0.00000000000E+00 0. -1.
         -5    1    3    3    0  503 -0.81985697320E+02  0.33725920749E+02  0.77727125550E+02  0.11799444199E+03  0.47000000000E+01 0.  1.
         11    1    4    4    0    0  0.51844616973E+02  0.11228601422E+02  0.69688850157E+02  0.87581285873E+02  0.00000000000E+00 0. -1.
        -12    1    4    4    0    0 -0.14496044004E+02 -0.29678208043E+02  0.17252900519E+02  0.37263841734E+02  0.00000000000E+00 0.  1.
</event>
<event>
12    1  0.8421768E-002  0.1815776E+03  0.7818608E-02  0.1167072E+00
         21   -1    0    0  503  502  0.00000000000E+00  0.00000000000E+00  0.23002430940E+03  0.23002430940E+03  0.00000000000E+00 0.  1.
         21   -1    0    0  501  503 -0.00000000000E+00 -0.00000000000E+00 -0.14469952950E+03  0.14469952950E+03  0.00000000000E+00 0. -1.
          6    2    1    2  501    0 -0.44886656790E+02 -0.17991487339E+02  0.11426794679E+02  0.17868471600E+03  0.17163668174E+03 0.  0.
         24    2    3    3    0    0 -0.42714930086E+02 -0.53528856703E+02 -0.49103208874E+02  0.10830295452E+03  0.68033088154E+02 0.  0.
         -6    2    1    2    0  502  0.44886656790E+02  0.17991487339E+02  0.73897985219E+02  0.19603912290E+03  0.17501977006E+03 0.  0.
        -24    2    5    5    0    0  0.39169736236E+02 -0.56765399290E+02  0.38112596484E+02  0.11282879105E+03  0.80753868551E+02 0.  0.
          5    1    3    3  501    0 -0.21717267040E+01  0.35537369364E+02  0.60530003554E+02  0.70381761476E+02  0.47000000000E+01 0. -1.
        -11    1    4    4    0    0 -0.29692765049E+02  0.63215704190E+01 -0.92071431719E+00  0.30372195569E+02  0.00000000000E+00 0.  1.
         12    1    4    4    0    0 -0.13022165037E+02 -0.59850427122E+02 -0.48182494557E+02  0.77930758951E+02  0.00000000000E+00 0. -1.
         -5    1    5    5    0  502  0.57169205537E+01  0.74756886628E+02  0.35785388735E+02  0.83210331846E+02  0.47000000000E+01 0.  1.
         13    1    6    6    0    0  0.13167440679E+02 -0.23425085328E+02 -0.25105292192E+02  0.36774880186E+02  0.00000000000E+00 0. -1.
        -14    1    6    6    0    0  0.26002295557E+02 -0.33340313962E+02  0.63217888675E+02  0.76053910865E+02  0.00000000000E+00 0.  1.
</event>
<event>
12    1  0.8421768E-002  0.2290751E+03  0.7818608E-02  0.1127924E+00
         21   -1    0    0  503  502  0.00000000000E+00  0.00000000000E+00  0.22258095029E+03  0.22258095029E+03  0.00000000000E+00 0. -1.
         21   -1    0    0  501  503 -0.00000000000E+00 -0.00000000000E+00 -0.23282635960E+03  0.23282635960E+03  0.00000000000E+00 0. -1.
          6    2    1    2  501    0 -0.12644415533E+03 -0.85368668923E+02 -0.17627962669E+02  0.22975232936E+03  0.17087847649E+03 0.  0.
         24    2    3    3    0    0 -0.12126693020E+03 -0.12365695292E+03 -0.16091422036E+02  0.19080047050E+03  0.78416677508E+02 0.  0.
         -6    2    1    2    0  502  0.12644415533E+03  0.85368668923E+02  0.73825533562E+01  0.22565498053E+03  0.16610157764E+03 0.  0.
        -24    2    5    5    0    0  0.20209165535E+02  0.82994327552E+02 -0.14288666008E+01  0.11892522050E+03  0.82732687823E+02 0.  0.
          5    1    3    3  501    0 -0.51772251276E+01  0.38288284001E+02 -0.15365406334E+01  0.38951858863E+02  0.47000000000E+01 0. -1.
        -11    1    4    4    0    0 -0.65394389667E+02 -0.52865018339E+02 -0.45919879976E+02  0.95811125351E+02  0.00000000000E+00 0.  1.
         12    1    4    4    0    0 -0.55872540538E+02 -0.70791934584E+02  0.29828457940E+02  0.94989345147E+02  0.00000000000E+00 0. -1.
         -5    1    5    5    0  502  0.10623498980E+03  0.23743413714E+01  0.88114199570E+01  0.10672976003E+03  0.47000000000E+01 0.  1.
         13    1    6    6    0    0 -0.23265525419E+02  0.68703229822E+02 -0.67716890511E+01  0.72851041404E+02  0.00000000000E+00 0. -1.
        -14    1    6    6    0    0  0.43474690954E+02  0.14291097730E+02  0.53428224503E+01  0.46074179098E+02  0.00000000000E+00 0.  1.
</event>
<event>
12    1  0.8421768E-002  0.1960639E+03  0.7818608E-02  0.1153161E+00
         21   -1    0    0  503  502  0.00000000000E+00  0.00000000000E+00  0.76418607636E+02  0.76418607636E+02  0.00000000000E+00 0.  1.
         21   -1    0    0  501  503 -0.00000000000E+00 -0.00000000000E+00 -0.13807942076E+04  0.13807942076E+04  0.00000000000E+00 0.  1.
          6    2    1    2  501    0  0.79020609355E+01 -0.92081202520E+02 -0.12331731753E+04  0.12486202602E+04  0.17261252415E+03 0.  0.
         24    2    3    3    0    0  0.43241800805E+02 -0.10984910796E+03 -0.73361713542E+03  0.74747864085E+03  0.81200599013E+02 0.  0.
         -6    2    1    2    0  502 -0.79020609355E+01  0.92081202520E+02 -0.71202424680E+02  0.20859255504E+03  0.17291523448E+03 0.  0.
        -24    2    5    5    0    0  0.18941054090E+02 -0.13753866426E+02 -0.55016045857E+02  0.98113129347E+02  0.77791313633E+02 0.  0.
          5    1    3    3  501    0 -0.35339739870E+02  0.17767905436E+02 -0.49955603985E+03  0.50114161934E+03  0.47000000000E+01 0. -1.
        -13    1    4    4    0    0  0.28787492674E+02 -0.21547301916E+02 -0.41443485171E+03  0.41599188966E+03  0.00000000000E+00 0.  1.
         14    1    4    4    0    0  0.14454308131E+02 -0.88301806039E+02 -0.31918228371E+03  0.33148675118E+03  0.00000000000E+00 0. -1.
         -5    1    5    5    0  502 -0.26843115026E+02  0.10583506895E+03 -0.16186378823E+02  0.11047942570E+03  0.47000000000E+01 0.  1.
         13    1    6    6    0    0  0.26690373276E+02  0.37785225986E+01  0.11190872281E+02  0.29187135541E+02  0.00000000000E+00 0. -1.
        -14    1    6    6    0    0 -0.77493191859E+01 -0.17532389024E+02 -0.66206918138E+02  0.68925993806E+02  0.00000000000E+00 0.  1.
</event>
<event>
12    1  0.8421768E-002  0.2527503E+03  0.7818608E-02  0.1111680E+00
         21   -1    0    0  503  502  0.00000000000E+00  0.00000000000E+00  0.74957108527E+03  0.74957108527E+03  0.00000000000E+00 0.  1.
         21   -1    0    0  501  503 -0.00000000000E+00 -0.00000000000E+00 -0.88493854442E+02  0.88493854442E+02  0.00000000000E+00 0. -1.
          6    2    1    2  501    0 -0.13968413742E+03 -0.12057524161E+03  0.24696041508E+03  0.35290985700E+03  0.17177273769E+03 0.  0.
         24    2    3    3    0    0 -0.15544480156E+03 -0.73434142597E+02  0.23479934380E+03  0.30152247134E+03  0.78926606680E+02 0.  0.
         -6    2    1    2    0  502  0.13968413742E+03  0.12057524161E+03  0.41411681575E+03  0.48515508272E+03  0.17272136539E+03 0.  0.
        -24    2    5    5    0    0  0.15952007897E+03  0.13544312357E+03  0.34276883911E+03  0.40947719782E+03  0.79934993306E+02 0.  0.
          5    1    3    3  501    0  0.15760664138E+02 -0.47141099011E+02  0.12161071278E+02  0.51387385657E+02  0.47000000000E+01 0. -1.
        -11    1    4    4    0    0 -0.10108943044E+03 -0.86701353422E+02  0.16818173723E+03  0.21452574291E+03  0.00000000000E+00 0.  1.
         12    1    4    4    0    0 -0.54355371123E+02  0.13267210824E+02  0.66617606566E+02  0.86996728431E+02  0.00000000000E+00 0. -1.
         -5    1    5    5    0  502 -0.19835941549E+02 -0.14867881963E+02  0.71347976646E+02  0.75677884898E+02  0.47000000000E+01 0.  1.
         13    1    6    6    0    0  0.13519156171E+03  0.80415401481E+02  0.19925688822E+03  0.25386355125E+03  0.00000000000E+00 0. -1.
        -14    1    6    6    0    0  0.24328517267E+02  0.55027722091E+02  0.14351195089E+03  0.15561364657E+03  0.00000000000E+00 0.  1.
</event>
<event>
12    1  0.8421768E-002  0.1928433E+03  0.7818608E-02  0.1156345E+00
         21   -1    0    0  503  502  0.00000000000E+00  0.00000000000E+00  0.26306643622E+03  0.26306643622E+03  0.00000000000E+00 0.  1.
         21   -1    0    0  501  503 -0.00000000000E+00 -0.00000000000E+00 -0.18619379432E+03  0.18619379432E+03  0.00000000000E+00 0. -1.
          6    2    1    2  501    0 -0.41597561036E+02 -0.72801118390E+02  0.15049859592E+03  0.24461883977E+03  0.17366113403E+03 0.  0.
         24    2    3    3    0    0  0.33551513652E+02 -0.28926221378E+01  0.92567925614E+02  0.12666701131E+03  0.79634411971E+02 0.  0.
         -6    2    1    2    0  502  0.41597561036E+02  0.72801118390E+02 -0.73625954024E+02  0.20464139077E+03  0.17154287449E+03 0.  0.
        -24    2    5    5    0    0 -0.35311540074E+02  0.61013261463E+02 -0.65525232117E+02  0.12627255067E+03  0.81741532104E+02 0.  0.
          5    1    3    3  501    0 -0.75149074688E+02 -0.69908496252E+02  0.57930670303E+02  0.11795182846E+03  0.47000000000E+01 0. -1.
        -11    1    4    4    0    0  0.28023892206E+02 -0.40051048919E+02  0.51245494183E+02  0.70820376502E+02  0.00000000000E+00 0.  1.
         12    1    4    4    0    0  0.55276214463E+01  0.37158426781E+02  0.41322431431E+02  0.55846634806E+02  0.00000000000E+00 0. -1.
         -5    1    5    5    0  502  0.76909101110E+02  0.11787856927E+02 -0.81007219071E+01  0.78368840108E+02  0.47000000000E+01 0.  1.
         13    1    6    6    0    0 -0.25109604958E+02  0.80589415050E+02 -0.59862926609E+02  0.10348292642E+03  0.00000000000E+00 0. -1.
        -14    1    6    6    0    0 -0.10201935115E+02 -0.19576153587E+02 -0.56623055076E+01  0.22789624240E+02  0.00000000000E+00 0.  1.
</event>
<event>
12    1  0.8421768E-002  0.2441815E+03  0.7818608E-02  0.1117087E+00
         21   -1    0    0  501  502  0.00000000000E+00  0.00000000000E+00  0.56372526113E+02  0.56372526113E+02  0.00000000000E+00 0.  1.
         21   -1    0    0  502  503 -0.00000000000E+00 -0.00000000000E+00 -0.19479373913E+04  0.19479373913E+04  0.00000000000E+00 0. -1.
         -6    2    1    2    0  503  0.13418448690E+03 -0.11033359502E+03 -0.16234499370E+04  0.16416665284E+04  0.17117334440E+03 0.  0.
        -24    2    3    3    0    0  0.10849925324E+03 -0.26627723940E+01 -0.91047444018E+03  0.92013421012E+03  0.76838012049E+02 0.  0.
          6    2    1    2  501    0 -0.13418448690E+03  0.11033359502E+03 -0.26811492824E+03  0.36264338906E+03  0.17159730233E+03 0.  0.
         24    2    5    5    0    0 -0.95748216925E+02  0.89799105033E+02 -0.88658789832E+02  0.17791221210E+03  0.80998604247E+02 0.  0.
          5    1    5    5  501    0 -0.38436269975E+02  0.20534489986E+02 -0.17945613841E+03  0.18473117696E+03  0.47000000000E+01 0. -1.
        -13    1    6    6    0    0  0.98661354348E+01  0.13954285374E+02 -0.31583540491E+02  0.35910760764E+02  0.00000000000E+00 0.  1.
         14    1    6    6    0    0 -0.10561435236E+03  0.75844819660E+02 -0.57075249341E+02  0.14200145133E+03  0.00000000000E+00 0. -1.
         -5    1    3    3    0  503  0.25685233663E+02 -0.10767082262E+03 -0.71297549679E+03  0.72153231826E+03  0.47000000000E+01 0.  1.
         11    1    4    4    0    0  0.46487535689E+02 -0.39368233677E+02 -0.41638036565E+03  0.42081297235E+03  0.00000000000E+00 0. -1.
        -12    1    4    4    0    0  0.62011717547E+02  0.36705461283E+02 -0.49409407453E+03  0.49932123777E+03  0.00000000000E+00 0.  1.
</event>
<event>
12    1  0.8421768E-002  0.1753825E+03  0.7818608E-02  0.1173404E+00
         21   -1    0    0  503  502  0.00000000000E+00  0.00000000000E+00  0.20004501761E+03  0.20004501761E+03  0.00000000000E+00 0. -1.
         21   -1    0    0  501  503 -0.00000000000E+00 -0.00000000000E+00 -0.78146745696E+03  0.78146745696E+03  0.00000000000E+00 0. -1.
          6    2    1    2  501    0  0.30253351023E+02 -0.15139676956E+02 -0.73113777397E+03  0.75091822433E+03  0.16784296244E+03 0.  0.
         24    2    3    3    0    0  0.68602001352E+02  0.15133194697E+02 -0.34656118786E+03  0.36322207226E+03  0.83008244653E+02 0.  0.
         -6    2    1    2    0  502 -0.30253351023E+02  0.15139676956E+02  0.14971533461E+03  0.23059425024E+03  0.17208879034E+03 0.  0.
        -24    2    5    5    0    0  0.54235524364E+01 -0.51114562299E+02  0.11203607278E+03  0.14630734478E+03  0.78813984375E+02 0.  0.
          5    1    3    3  501    0 -0.38348650329E+02 -0.30272871653E+02 -0.38457658611E+03  0.38769615207E+03  0.47000000000E+01 0. -1.
        -11    1    4    4    0    0  0.29969865847E+02  0.47464017082E+02 -0.21885345374E+03  0.22593773476E+03  0.00000000000E+00 0.  1.
         12    1    4    4    0    0  0.38632135505E+02 -0.32330822385E+02 -0.12770773412E+03  0.13728433750E+03  0.00000000000E+00 0. -1.
         -5    1    5    5    0  502 -0.35676903459E+02  0.66254239255E+02  0.37679261838E+02  0.84286905462E+02  0.47000000000E+01 0.  1.
         13    1    6    6    0    0  0.25192964494E+02 -0.18173569169E+02  0.10196418139E+03  0.10659108013E+03  0.00000000000E+00 0. -1.
        -14    1    6    6    0    0 -0.19769412057E+02 -0.32940993130E+02  0.10071891382E+02  0.39716264647E+02  0.00000000000E+00 0.  1.
</event>
<event>
12    1  0.8421768E-002  0.2030646E+03  0.7818608E-02  0.1147182E+00
         21   -1    0    0  503  502  0.00000000000E+00  0.00000000000E+00  0.37362179233E+03  0.37362179233E+03  0.00000000000E+00 0.  1.
         21   -1    0    0  501  503 -0.00000000000E+00 -0.00000000000E+00 -0.11517801852E+03  0.11517801852E+03  0.00000000000E+00 0. -1.
          6    2    1    2  501    0  0.30299491681E+02  0.10388227389E+03  0.79232404811E+02  0.21797481374E+03  0.17183032163E+03 0.  0.
         24    2    3    3    0    0  0.45813871211E+02  0.13472859778E+03  0.50377398613E+02  0.17273221155E+03  0.83951347584E+02 0.  0.
         -6    2    1    2    0  502 -0.30299491681E+02 -0.10388227389E+03  0.17921136900E+03  0.27082499711E+03  0.17181349848E+03 0.  0.
        -24    2    5    5    0    0  0.34546279306E+02 -0.77933637426E+02  0.16000933738E+03  0.19823633569E+03  0.80172061727E+02 0.  0.
          5    1    3    3  501    0 -0.15514379530E+02 -0.30846323896E+02  0.28855006197E+02  0.45242602188E+02  0.47000000000E+01 0. -1.
        -11    1    4    4    0    0  0.54732014349E+02  0.35182606991E+02  0.24166793123E+02  0.69407803015E+02  0.00000000000E+00 0.  1.
         12    1    4    4    0    0 -0.89181431379E+01  0.99545990793E+02  0.26210605490E+02  0.10332440854E+03  0.00000000000E+00 0. -1.
         -5    1    5    5    0  502 -0.64845770988E+02 -0.25948636463E+02  0.19202031618E+02  0.72588661425E+02  0.47000000000E+01 0.  1.
         11    1    6    6    0    0 -0.26895742518E+01  0.15280821933E+02  0.32019919521E+02  0.35581070455E+02  0.00000000000E+00 0. -1.
        -12    1    6    6    0    0  0.37235853558E+02 -0.93214459359E+02  0.12798941786E+03  0.16265526523E+03  0.00000000000E+00 0.  1.
</event>
<event>
12    1  0.8421768E-002  0.1911380E+03  0.7818608E-02  0.1157487E+00
         21   -1    0    0  501  502  0.00000000000E+00  0.00000000000E+00  0.63530029530E+02  0.63530029530E+02  0.00000000000E+00 0. -1.
         21   -1    0    0  502  503 -0.00000000000E+00 -0.00000000000E+00 -0.58220647012E+03  0.58220647012E+03  0.00000000000E+00 0. -1.
         -6    2    1    2    0  503 -0.80751000790E+02 -0.12025034544E+02 -0.22184323445E+03  0.29268735505E+03  0.17258662044E+03 0.  0.
        -24    2    3    3    0    0 -0.24506531245E+02 -0.30655069080E+02 -0.21361660921E+03  0.23268497257E+03  0.83486150911E+02 0.  0.
          6    2    1    2  501    0  0.80751000790E+02  0.12025034544E+02 -0.29683320614E+03  0.35304914460E+03  0.17282482648E+03 0.  0.
         24    2    5    5    0    0  0.55150555137E+02 -0.59936798425E+02 -0.19190587920E+03  0.22318104936E+03  0.79673777261E+02 0.  0.
          5    1    5    5  501    0  0.25600445653E+02  0.71961832969E+02 -0.10492732694E+03  0.12986809524E+03  0.47000000000E+01 0. -1.
        -13    1    6    6    0    0  0.61262160954E+02 -0.31234158271E+02 -0.71303583092E+02  0.99059709112E+02  0.00000000000E+00 0.  1.
         14    1    6    6    0    0 -0.61116058170E+01 -0.28702640155E+02 -0.12060229611E+03  0.12412134025E+03  0.00000000000E+00 0. -1.
         -5    1    3    3    0  503 -0.56244469545E+02  0.18630034536E+02 -0.82266252376E+01  0.60002382486E+02  0.47000000000E+01 0.  1.
         13    1    4    4    0    0 -0.53980591101E+02 -0.20248654743E+02 -0.10653634085E+03  0.12113589128E+03  0.00000000000E+00 0. -1.
        -14    1    4    4    0    0  0.29474059857E+02 -0.10406414337E+02 -0.10708026836E+03  0.11154908129E+03  0.00000000000E+00 0.  1.
</event>
<event>
12    1  0.8421768E-002  0.2215814E+03  0.7818608E-02  0.1134298E+00
         21   -1    0    0  503  502  0.00000000000E+00  0.00000000000E+00  0.37656208059E+03  0.37656208059E+03  0.00000000000E+00 0. -1.
         21   -1    0    0  501  503 -0.00000000000E+00 -0.00000000000E+00 -0.12556074044E+03  0.12556074044E+03  0.00000000000E+00 0. -1.
          6    2    1    2  501    0 -0.53260114361E+02 -0.13176022470E+03  0.12134989947E+03  0.25263435520E+03  0.17000271390E+03 0.  0.
         24    2    3    3    0    0  0.33436857322E+02 -0.42290591510E+02  0.58860827528E+02  0.11317771580E+03  0.80237651871E+02 0.  0.
         -6    2    1    2    0  502  0.53260114361E+02  0.13176022470E+03  0.12965144068E+03  0.24948846583E+03  0.15886346942E+03 0.  0.
        -24    2    5    5    0    0  0.65515817036E+02  0.48063440744E+02  0.11795193014E+03  0.16396465371E+03  0.79808102497E+02 0.  0.
          5    1    3    3  501    0 -0.86696971683E+02 -0.89469633188E+02  0.62489071947E+02  0.13945663941E+03  0.47000000000E+01 0. -1.
        -11    1    4    4    0    0  0.12033884322E+02  0.22334715774E+02  0.38678926226E+01  0.25663485615E+02  0.00000000000E+00 0.  1.
         12    1    4    4    0    0  0.21402973000E+02 -0.64625307284E+02  0.54992934905E+02  0.87514230181E+02  0.00000000000E+00 0. -1.
         -5    1    5    5    0  502 -0.12255702675E+02  0.83696783954E+02  0.11699510545E+02  0.85523812118E+02  0.47000000000E+01 0.  1.
         13    1    6    6    0    0  0.61203528312E+02  0.48590560200E+02  0.43601599020E+02  0.89487506701E+02  0.00000000000E+00 0. -1.
        -14    1    6    6    0    0  0.43122887243E+01 -0.52711945620E+00  0.74350331118E+02  0.74477147007E+02  0.00000000000E+00 0.  1.
</event>
<event>
12    1  0.8421768E-002  0.2119283E+03  0.7818608E-02  0.1140708E+00
         21   -1    0    0  501  502  0.00000000000E+00  0.00000000000E+00  0.66298347272E+02  0.66298347272E+02  0.00000000000E+00 0. -1.
         21   -1    0    0  502  503 -0.00000000000E+00 -0.00000000000E+00 -0.84514322082E+03  0.84514322082E+03  0.00000000000E+00 0. -1.
         -6    2    1    2    0  503 -0.10943344969E+03  0.33529247125E+01 -0.59632071704E+03  0.63174766167E+03  0.17753813236E+03 0.  0.
        -24    2    3    3    0    0 -0.13514510907E+03  0.39188933372E+02 -0.49944496365E+03  0.52520043956E+03  0.81180397837E+02 0.  0.
          6    2    1    2  501    0  0.10943344969E+03 -0.33529247125E+01 -0.18252415652E+03  0.27969390643E+03  0.18145713424E+03 0.  0.
         24    2    5    5    0    0  0.28268439831E+02 -0.69000928068E+02 -0.86395095776E+02  0.13770691587E+03  0.77063930208E+02 0.  0.
          5    1    5    5  501    0  0.81165009857E+02  0.65648003356E+02 -0.96129060740E+02  0.14198699056E+03  0.47000000000E+01 0. -1.
        -11    1    6    6    0    0 -0.12090220240E+02  0.75059532560E+01 -0.33296787168E+02  0.36210341002E+02  0.00000000000E+00 0.  1.
         12    1    6    6    0    0  0.40358660070E+02 -0.76506881324E+02 -0.53098308607E+02  0.10149657487E+03  0.00000000000E+00 0. -1.
         -5    1    3    3    0  503  0.25711659383E+02 -0.35836008659E+02 -0.96875753383E+02  0.10654722211E+03  0.47000000000E+01 0.  1.
         13    1    4    4    0    0 -0.36729480279E+02 -0.20358539970E+02 -0.20133233328E+03  0.20566534296E+03  0.00000000000E+00 0. -1.
        -14    1    4    4    0    0 -0.98415628792E+02  0.59547473342E+02 -0.29811263038E+03  0.31953509660E+03  0.00000000000E+00 0.  1.
</event>
<event>
12    1  0.8421768E-002  0.2445745E+03  0.7818608E-02  0.1116791E+00
         21   -1    0    0  501  502  0.00000000000E+00  0.00000000000E+00  0.62299511498E+03  0.62299511498E+03  0.00000000000E+00 0.  1.
         21   -1    0    0  502  503 -0.00000000000E+00 -0.00000000000E+00 -0.12030682679E+03  0.12030682679E+03  0.00000000000E+00 0. -1.
         -6    2    1    2    0  503  0.50529688967E+02 -0.16799937375E+03  0.84243927332E+02  0.25862434543E+03  0.17033048379E+03 0.  0.
        -24    2    3    3    0    0  0.35474528403E+02 -0.70511134339E+02 -0.21079469690E+02  0.11424386668E+03  0.79856463733E+02 0.  0.
          6    2    1    2  501    0 -0.50529688967E+02  0.16799937375E+03  0.41844436086E+03  0.48467759635E+03  0.17041024094E+03 0.  0.
         24    2    5    5    0    0  0.27654957776E+02  0.11798608610E+03  0.30855439831E+03  0.34076073911E+03  0.78908500175E+02 0.  0.
          5    1    5    5  501    0 -0.78184646743E+02  0.50013287656E+02  0.10988996255E+03  0.14391685724E+03  0.47000000000E+01 0. -1.
        -13    1    6    6    0    0  0.36606577865E+02  0.60882414609E+02  0.24390414921E+03  0.25403925672E+03  0.00000000000E+00 0.  1.
         14    1    6    6    0    0 -0.89516200895E+01  0.57103671487E+02  0.64650249100E+02  0.86721482392E+02  0.00000000000E+00 0. -1.
         -5    1    3    3    0  503  0.15055160563E+02 -0.97488239413E+02  0.10532339702E+03  0.14438047875E+03  0.47000000000E+01 0.  1.
         13    1    4    4    0    0  0.43134714815E+02 -0.68457592021E+02  0.10583283816E+02  0.81603011120E+02  0.00000000000E+00 0. -1.
        -14    1    4    4    0    0 -0.76601864119E+01 -0.20535423174E+01 -0.31662753506E+02  0.32640855558E+02  0.00000000000E+00 0.  1.
</event>
<event>
12    1  0.8421768E-002  0.1839599E+03  0.7818608E-02  0.1164253E+00
         21   -1    0    0  503  502  0.00000000000E+00  0.00000000000E+00  0.22098752774E+03  0.22098752774E+03  0.00000000000E+00 0. -1.
         21   -1    0    0  501  503 -0.00000000000E+00 -0.00000000000E+00 -0.57504691513E+03  0.57504691513E+03  0.00000000000E+00 0. -1.
          6    2    1    2  501    0 -0.43170838719E+02 -0.43710430708E+02 -0.51840329945E+03  0.55007564298E+03  0.17339812297E+03 0.  0.
         24    2    3    3    0    0 -0.91039722569E+01  0.40798779592E+02 -0.30013198165E+03  0.31350257564E+03  0.80356927494E+02 0.  0.
         -6    2    1    2    0  502  0.43170838719E+02  0.43710430708E+02  0.16434391206E+03  0.24595879988E+03  0.17237310329E+03 0.  0.
        -24    2    5    5    0    0  0.40424582568E+01  0.40011495173E+02  0.18318561738E+03  0.20212032202E+03  0.75355112273E+02 0.  0.
          5    1    3    3  501    0 -0.34066866462E+02 -0.84509210300E+02 -0.21827131781E+03  0.23657306735E+03  0.47000000000E+01 0. -1.
        -11    1    4    4    0    0 -0.29744202116E+02  0.14886592998E+02 -0.43591570170E+02  0.54832045380E+02  0.00000000000E+00 0.  1.
         12    1    4    4    0    0  0.20640229859E+02  0.25912186594E+02 -0.25654041148E+03  0.25867053026E+03  0.00000000000E+00 0. -1.
         -5    1    5    5    0  502  0.39128380462E+02  0.36989355354E+01 -0.18841705314E+02  0.43838477857E+02  0.47000000000E+01 0.  1.
         11    1    6    6    0    0  0.38490278190E+02  0.14619317695E+02  0.10839937290E+03  0.11595537939E+03  0.00000000000E+00 0. -1.
        -12    1    6    6    0    0 -0.34447819934E+02  0.25392177478E+02  0.74786244476E+02  0.86164942628E+02  0.00000000000E+00 0.  1.
</event>
<event>
12    1  0.8421768E-002  0.1739683E+03  0.7818608E-02  0.1173819E+00
         21   -1    0    0  501  502  0.00000000000E+00  0.00000000000E+00  0.60788491934E+03  0.60788491934E+03  0.00000000000E+00 0. -1.
         21   -1    0    0  502  503 -0.00000000000E+00 -0.00000000000E+00 -0.53176241165E+02  0.53176241165E+02  0.00000000000E+00 0. -1.
         -6    2    1    2    0  503  0.24672164818E+02  0.10261923091E+02  0.19339648926E+03  0.26012916083E+03  0.17190391349E+03 0.  0.
        -24    2    3    3    0    0  0.34520048609E+02 -0.21063492681E+02  0.31418447699E+02  0.94789394177E+02  0.79765944567E+02 0.  0.
          6    2    1    2  501    0 -0.24672164818E+02 -0.10261923091E+02  0.36131218891E+03  0.40093199967E+03  0.17171472774E+03 0.  0.
         24    2    5    5    0    0  0.17571487453E+02  0.49160946819E+02  0.25316623271E+03  0.27042053861E+03  0.79426509779E+02 0.  0.
          5    1    5    5  501    0 -0.42243652271E+02 -0.59422869910E+02  0.10814595620E+03  0.13051146106E+03  0.47000000000E+01 0. -1.
        -11    1    6    6    0    0 -0.26994914220E+02  0.41746610377E+02  0.12490715574E+03  0.13443698311E+03  0.00000000000E+00 0.  1.
         12    1    6    6    0    0  0.44566401673E+02  0.74143364415E+01  0.12825907697E+03  0.13598355550E+03  0.00000000000E+00 0. -1.
         -5    1    3    3    0  503 -0.98478837914E+01  0.31325415772E+02  0.16197804156E+03  0.16533976666E+03  0.47000000000E+01 0.  1.
         13    1    4    4    0    0  0.44136175436E+02 -0.13357641532E+01 -0.12329290987E+02  0.45845366878E+02  0.00000000000E+00 0. -1.
        -14    1    4    4    0    0 -0.96161268265E+01 -0.19727728528E+02  0.43747738687E+02  0.48944027299E+02  0.00000000000E+00 0.  1.
</event>
<event>
12    1  0.8421768E-002  0.2229419E+03  0.7818608E-02  0.1131743E+00
         21   -1    0    0  501  502  0.00000000000E+00  0.00000000000E+00  0.21151669390E+03  0.21151669390E+03  0.00000000000E+00 0. -1.
         21   -1    0    0  502  503 -0.00000000000E+00 -0.00000000000E+00 -0.28136055167E+03  0.28136055167E+03  0.00000000000E+00 0. -1.
         -6    2    1    2    0  503  0.72586083453E+02 -0.11891328163E+03 -0.13519948615E+03  0.26073356810E+03  0.17405167170E+03 0.  0.
        -24    2    3    3    0    0  0.24878127776E+02 -0.13315441115E+03 -0.56752854079E+02  0.16770226752E+03  0.80957678052E+02 0.  0.
          6    2    1    2  501    0 -0.72586083453E+02  0.11891328163E+03  0.65355628380E+02  0.23214367747E+03  0.17381087645E+03 0.  0.
         24    2    5    5    0    0 -0.11612329161E+03  0.95842751055E+02  0.35320568278E+02  0.17424779930E+03  0.80276405208E+02 0.  0.
          5    1    5    5  501    0  0.43537208153E+02  0.23070530571E+02  0.30035060101E+02  0.57895878177E+02  0.47000000000E+01 0. -1.
        -11    1    6    6    0    0 -0.97123258506E+01 -0.14425126080E+02  0.37863125959E+01  0.17797463272E+02  0.00000000000E+00 0.  1.
         12    1    6    6    0    0 -0.10641096576E+03  0.11026787714E+03  0.31534255683E+02  0.15645033602E+03  0.00000000000E+00 0. -1.
         -5    1    3    3    0  503  0.47707955677E+02  0.14241129521E+02 -0.78446632066E+02  0.93031300579E+02  0.47000000000E+01 0.  1.
         11    1    4    4    0    0  0.25765902650E+02 -0.60003382056E+02 -0.67317872470E+02  0.93786905010E+02  0.00000000000E+00 0. -1.
        -12    1    4    4    0    0 -0.88777487427E+00 -0.73151029091E+02  0.10565018391E+02  0.73915362509E+02  0.00000000000E+00 0.  1.
</event>
<event>
12    1  0.8421768E-002  0.2110592E+03  0.7818608E-02  0.1140832E+00
         21   -1    0    0  503  502  0.00000000000E+00  0.00000000000E+00  0.43112169962E+03  0.43112169962E+03  0.00000000000E+00 0. -1.
         21   -1    0    0  501  503 -0.00000000000E+00 -0.00000000000E+00 -0.16324015206E+03  0.16324015206E+03  0.00000000000E+00 0. -1.
          6    2    1    2  501    0  0.11498734971E+03 -0.39900084138E+02  0.31425760897E+03  0.37826757121E+03  0.17179756495E+03 0.  0.
         24    2    3    3    0    0  0.27314228851E+01 -0.46307874162E+02  0.18869914353E+03  0.20965715894E+03  0.78720249281E+02 0.  0.
         -6    2    1    2    0  502 -0.11498734971E+03  0.39900084138E+02 -0.46376061408E+02  0.21609428047E+03  0.17242938170E+03 0.  0.
        -24    2    5    5    0    0 -0.10809278520E+03 -0.31270110087E+02 -0.38408078000E+02  0.14399497170E+03  0.81225004907E+02 0.  0.
          5    1    3    3  501    0  0.11225592682E+03  0.64077900236E+01  0.12555846544E+03  0.16861041226E+03  0.47000000000E+01 0. -1.
        -13    1    4    4    0    0 -0.16667628506E+02  0.17591414924E+02  0.58804203083E+02  0.63601902639E+02  0.00000000000E+00 0.  1.
         14    1    4    4    0    0  0.19399051391E+02 -0.63899289086E+02  0.12989494045E+03  0.14605525631E+03  0.00000000000E+00 0. -1.
         -5    1    5    5    0  502 -0.68945645074E+01  0.71170194225E+02 -0.79679834084E+01  0.72099308772E+02  0.47000000000E+01 0.  1.
         13    1    6    6    0    0 -0.69098168498E+02  0.21001885362E+02 -0.30147743633E+02  0.78259328676E+02  0.00000000000E+00 0. -1.
        -14    1    6    6    0    0 -0.38994616700E+02 -0.52271995449E+02 -0.82603343670E+01  0.65735643023E+02  0.00000000000E+00 0.  1.
</event>
<event>
12    1  0.8421768E-002  0.1878436E+03  0.7818608E-02  0.1160801E+00
         21   -1    0    0  503  502  0.00000000000E+00  0.00000000000E+00  0.83378156192E+02  0.83378156192E+02  0.00000000000E+00 0.  1.
         21   -1    0    0  501  503 -0.00000000000E+00 -0.00000000000E+00 -0.43751316862E+03  0.43751316862E+03  0.00000000000E+00 0. -1.
          6    2    1    2  501    0  0.37863256228E+02 -0.60817137865E+02 -0.23069595161E+03  0.29749928608E+03  0.17364576787E+03 0.  0.
         24    2    3    3    0    0  0.84234054593E+02 -0.64586689810E+02 -0.12357667713E+03  0.18061862289E+03  0.78006892970E+02 0.  0.
         -6    2    1    2    0  502 -0.37863256228E+02  0.60817137865E+02 -0.12343906082E+03  0.22339203873E+03  0.17185590127E+03 0.  0.
        -24    2    5    5    0    0 -0.57443646994E+02  0.82710461874E+02 -0.13930920387E+03  0.18967763855E+03  0.80185779285E+02 0.  0.
          5    1    3    3  501    0 -0.46370798365E+02  0.37695519453E+01 -0.10711927447E+03  0.11688066318E+03  0.47000000000E+01 0. -1.
        -11    1    4    4    0    0 -0.31111854773E+01 -0.21195610779E+02  0.21143201787E+01  0.21526814469E+02  0.00000000000E+00 0.  1.
         12    1    4    4    0    0  0.87345240070E+02 -0.43391079031E+02 -0.12569099731E+03  0.15909180842E+03  0.00000000000E+00 0. -1.
         -5    1    5    5    0  502  0.19580390766E+02 -0.21893324009E+02  0.15870143055E+02  0.33714400178E+02  0.47000000000E+01 0.  1.
         13    1    6    6    0    0 -0.30180737615E+02  0.97725940511E+01 -0.94845764466E+02  0.10001049722E+03  0.00000000000E+00 0. -1.
        -14    1    6    6    0    0 -0.27262909379E+02  0.72937867823E+02 -0.44463439408E+02  0.89667141331E+02  0.00000000000E+00 0.  1.
</event>
<event>
12    1  0.8421768E-002  0.2214750E+03  0.7818608E-02  0.1133068E+00
         21   -1    0    0  503  502  0.00000000000E+00  0.00000000000E+00  0.11082180364E+04  0.11082180364E+04  0.00000000000E+00 0. -1.
         21   -1    0    0  501  503 -0.00000000000E+00 -0.00000000000E+00 -0.14451258282E+03  0.14451258282E+03  0.00000000000E+00 0.  1.
          6    2    1    2  501    0  0.13125245127E+03  0.40365394790E+02 -0.40126870501E+02  0.22508071666E+03  0.17376591212E+03 0.  0.
         24    2    3    3    0    0  0.68425161138E+02  0.88437191264E+02 -0.14015140788E+02  0.14164164650E+03  0.85806715212E+02 0.  0.
         -6    2    1    2    0  502 -0.13125245127E+03 -0.40365394790E+02  0.10038323241E+04  0.10276499025E+04  0.17183834354E+03 0.  0.
        -24    2    5    5    0    0 -0.47500997412E+02 -0.76241685886E+02  0.42650595842E+03  0.44315932370E+03  0.80085667879E+02 0.  0.
          5    1    3    3  501    0  0.62827290129E+02 -0.48071796474E+02 -0.26111729714E+02  0.83439070164E+02  0.47000000000E+01 0. -1.
        -11    1    4    4    0    0  0.87249531581E+02  0.82747377431E+02 -0.17967129595E+02  0.12158300448E+03  0.00000000000E+00 0.  1.
         12    1    4    4    0    0 -0.18824370442E+02  0.56898138336E+01  0.39519888074E+01  0.20058642016E+02  0.00000000000E+00 0. -1.
         -5    1    5    5    0  502 -0.83751453856E+02  0.35876291096E+02  0.57732636565E+03  0.58449057884E+03  0.47000000000E+01 0.  1.
         11    1    6    6    0    0 -0.21438176812E+02 -0.34229885030E+02  0.34831860371E+03  0.35065243497E+03  0.00000000000E+00 0. -1.
        -12    1    6    6    0    0 -0.26062820599E+02 -0.42011800855E+02  0.78187354702E+02  0.92506888738E+02  0.00000000000E+00 0.  1.
</event>
<event>
12    1  0.8421768E-002  0.1732499E+03  0.7818608E-02  0.1174636E+00
         21   -1    0    0  501  502  0.00000000000E+00  0.00000000000E+00  0.62330372819E+02  0.62330372819E+02  0.00000000000E+00 0. -1.
         21   -1    0    0  502  503 -0.00000000000E+00 -0.00000000000E+00 -0.59711835890E+03  0.59711835890E+03  0.00000000000E+00 0. -1.
         -6    2    1    2    0  503 -0.19515055098E+00  0.20330809991E+02 -0.41370431660E+03  0.44851620413E+03  0.17205273572E+03 0.  0.
        -24    2    3    3    0    0 -0.54722372200E+02  0.16018617304E+02 -0.18255718624E+03  0.21093906132E+03  0.88977678242E+02 0.  0.
          6    2    1    2  501    0  0.19515055098E+00 -0.20330809991E+02 -0.12108366948E+03  0.21093252759E+03  0.17151646062E+03 0.  0.
         24    2    5    5    0    0 -0.50281304724E+02  0.32478327862E+02 -0.65546438032E+02  0.11904590368E+03  0.79325533457E+02 0.  0.
          5    1    5    5  501    0  0.50476455275E+02 -0.52809137853E+02 -0.55537231446E+02  0.91886623916E+02  0.47000000000E+01 0. -1.
        -11    1    6    6    0    0 -0.42070773532E+02  0.81868025039E+01  0.57823530175E+01  0.43248229180E+02  0.00000000000E+00 0.  1.
         12    1    6    6    0    0 -0.82105311925E+01  0.24291525358E+02 -0.71328791049E+02  0.75797674498E+02  0.00000000000E+00 0. -1.
         -5    1    3    3    0  503  0.54527221649E+02  0.43121926867E+01 -0.23114713036E+03  0.23757714280E+03  0.47000000000E+01 0.  1.
         13    1    4    4    0    0 -0.19735422068E+02 -0.36892953197E+02 -0.81750361036E+02  0.91835169785E+02  0.00000000000E+00 0. -1.
        -14    1    4    4    0    0 -0.34986950132E+02  0.52911570501E+02 -0.10080682520E+03  0.11910389154E+03  0.00000000000E+00 0.  1.
</event>
<event>
12    1  0.8421768E-002  0.1848365E+03  0.7818608E-02  0.1164999E+00
         21   -1    0    0  501  502  0.00000000000E+00  0.00000000000E+00  0.60285603964E+03  0.60285603964E+03  0.00000000000E+00 0. -1.
         21   -1    0    0  502  503 -0.00000000000E+00 -0.00000000000E+00 -0.13644783532E+03  0.13644783532E+03  0.00000000000E+00 0. -1.
         -6    2    1    2    0  503  0.73391051080E+01  0.50837265997E+02 -0.55361481593E+02  0.18576242558E+03  0.16971887059E+03 0.  0.
        -24    2    3    3    0    0 -0.24569744654E+02  0.44415032564E+02 -0.95938107970E+02  0.13353243053E+03  0.77784458416E+02 0.  0.
          6    2    1    2  501    0 -0.73391051080E+01 -0.50837265997E+02  0.52176968591E+03  0.55354144938E+03  0.17755630363E+03 0.  0.
         24    2    5    5    0    0 -0.61940906430E+02 -0.59324225618E+02  0.42469582969E+03  0.44174337805E+03  0.86108214793E+02 0.  0.
          5    1    5    5  501    0  0.54601801322E+02  0.84869596203E+01  0.97073856221E+02  0.11179807133E+03  0.47000000000E+01 0. -1.
        -11    1    6    6    0    0  0.20725185819E+02 -0.11617474800E+02  0.54734801884E+02  0.59669067239E+02  0.00000000000E+00 0.  1.
         12    1    6    6    0    0 -0.82666092249E+02 -0.47706750818E+02  0.36996102781E+03  0.38207431081E+03  0.00000000000E+00 0. -1.
         -5    1    3    3    0  503  0.31908849762E+02  0.64222334338E+01  0.40576626378E+02  0.52229995056E+02  0.47000000000E+01 0.  1.
         13    1    4    4    0    0 -0.88361128254E+01  0.52146387446E+02 -0.10207100371E+03  0.11496004702E+03  0.00000000000E+00 0. -1.
        -14    1    4    4    0    0 -0.15733631828E+02 -0.77313548828E+01  0.61328957374E+01  0.18572383502E+02  0.00000000000E+00 0.  1.
</event>
<event>
12    1  0.8421768E-002  0.1849592E+03  0.7818608E-02  0.1167118E+00
         21   -1    0    0  501  502  0.00000000000E+00  0.00000000000E+00  0.63996851113E+03  0.63996851113E+03  0.00000000000E+00 0. -1.
         21   -1    0    0  502  503 -0.00000000000E+00 -0.00000000000E+00 -0.55529014016E+02  0.55529014016E+02  0.00000000000E+00 0.  1.
         -6    2    1    2    0  503  0.52359342049E+02  0.42110458188E+02  0.15948059774E+03  0.23203234158E+03  0.15456440436E+03 0.  0.
        -24    2    3    3    0    0 -0.73735886772E+00 -0.20808591887E+02  0.55611808380E+02  0.99409259453E+02  0.79724440664E+02 0.  0.
          6    2    1    2  501    0 -0.52359342049E+02 -0.42110458188E+02  0.42495889937E+03  0.46346518356E+03  0.17232271710E+03 0.  0.
         24    2    5    5    0    0 -0.93057719721E+02 -0.16591178328E+02  0.22056021883E+03  0.25344494121E+03  0.81562992202E+02 0.  0.
          5    1    5    5  501    0  0.40698377672E+02 -0.25519279860E+02  0.20439868054E+03  0.21002024235E+03  0.47000000000E+01 0. -1.
        -13    1    6    6    0    0 -0.85879394636E+02  0.38093701894E+01  0.21434860189E+03  0.23094394311E+03  0.00000000000E+00 0.  1.
         14    1    6    6    0    0 -0.71783250843E+01 -0.20400548517E+02  0.62116169418E+01  0.22500998108E+02  0.00000000000E+00 0. -1.
         -5    1    3    3    0  503  0.53096700917E+02  0.62919050075E+02  0.10386878936E+03  0.13262308213E+03  0.47000000000E+01 0.  1.
         13    1    4    4    0    0 -0.28948039974E+02 -0.30452990325E+02  0.55480876658E+02  0.69595267891E+02  0.00000000000E+00 0. -1.
        -14    1    4    4    0    0  0.28210681107E+02  0.96443984377E+01  0.13093172216E+00  0.29813991562E+02  0.00000000000E+00 0.  1.
</event>
<event>
12    1  0.8421768E-002  0.3397284E+03  0.7818608E-02  0.1067046E+00
         21   -1    0    0  503  502  0.00000000000E+00  0.00000000000E+00  0.65663694910E+03  0.65663694910E+03  0.00000000000E+00 0.  1.
         21   -1    0    0  501  503 -0.00000000000E+00 -0.00000000000E+00 -0.19380634324E+03  0.19380634324E+03  0.00000000000E+00 0.  1.
          6    2    1    2  501    0 -0.29056021375E+03 -0.39635365440E+02  0.98990150331E+02  0.35265294195E+03  0.16902321615E+03 0.  0.
         24    2    3    3    0    0 -0.57896025957E+02 -0.29560505401E+02  0.54012131505E+02  0.11542048367E+03  0.78605371311E+02 0.  0.
         -6    2    1    2    0  502  0.29056021375E+03  0.39635365440E+02  0.36384045553E+03  0.49779035039E+03  0.17152013251E+03 0.  0.
        -24    2    5    5    0    0  0.23428364836E+03  0.11780984574E+02  0.35690245824E+03  0.43444096877E+03  0.79573683850E+02 0.  0.
          5    1    3    3  501    0 -0.23266418779E+03 -0.10074860039E+02  0.44978018826E+02  0.23723245828E+03  0.47000000000E+01 0. -1.
        -11    1    4    4    0    0 -0.76802677066E+02 -0.27596046083E+02  0.35874096778E+02  0.89146754195E+02  0.00000000000E+00 0.  1.
         12    1    4    4    0    0  0.18906651109E+02 -0.19644593176E+01  0.18138034727E+02  0.26273729471E+02  0.00000000000E+00 0. -1.
         -5    1    5    5    0  502  0.56276565391E+02  0.27854380866E+02  0.69379972890E+01  0.63349381623E+02  0.47000000000E+01 0.  1.
         13    1    6    6    0    0  0.38800872702E+02 -0.28290565672E+02  0.75162441892E+02  0.89192244616E+02  0.00000000000E+00 0. -1.
        -14    1    6    6    0    0  0.19548277565E+03  0.40071550246E+02  0.28174001635E+03  0.34524872415E+03  0.00000000000E+00 0.  1.
</event>
<event>
12    1  0.8421768E-002  0.2357672E+03  0.7818608E-02  0.1122813E+00
         21   -1    0    0  501  502  0.00000000000E+00  0.00000000000E+00  0.44181571577E+03  0.44181571577E+03  0.00000000000E+00 0. -1.
         21   -1    0    0  502  503 -0.00000000000E+00 -0.00000000000E+00 -0.12581483981E+03  0.12581483981E+03  0.00000000000E+00 0. -1.
         -6    2    1    2    0  503 -0.15084190972E+03  0.53601846402E+02  0.17669338573E+03  0.29462982582E+03  0.17308882701E+03 0.  0.
        -24    2    3    3    0    0 -0.16028325440E+03  0.62235284702E+02  0.19488431513E+03  0.27189933619E+03  0.79908700623E+02 0.  0.
          6    2    1    2  501    0  0.15084190972E+03 -0.53601846402E+02  0.13930749023E+03  0.27300072975E+03  0.17174510749E+03 0.  0.
         24    2    5    5    0    0  0.78919932787E+02 -0.66541399712E+02  0.15100316709E+03  0.19884493657E+03  0.77982297113E+02 0.  0.
          5    1    5    5  501    0  0.71921976931E+02  0.12939553310E+02 -0.11695676859E+02  0.74155793184E+02  0.47000000000E+01 0. -1.
        -13    1    6    6    0    0 -0.69839111350E+01 -0.17395298210E+02  0.65262564763E+02  0.67901205983E+02  0.00000000000E+00 0.  1.
         14    1    6    6    0    0  0.85903843922E+02 -0.49146101502E+02  0.85740602324E+02  0.13094373059E+03  0.00000000000E+00 0. -1.
         -5    1    3    3    0  503  0.94413446847E+01 -0.86334383001E+01 -0.18190929398E+02  0.22730489627E+02  0.47000000000E+01 0.  1.
         13    1    4    4    0    0 -0.87332299858E+02  0.59900970716E+02  0.15776946464E+03  0.19001647524E+03  0.00000000000E+00 0. -1.
        -14    1    4    4    0    0 -0.72950954545E+02  0.23343139863E+01  0.37114850493E+02  0.81882860953E+02  0.00000000000E+00 0.  1.
</event>
<event>
12    1  0.8421768E-002  0.2161028E+03  0.7818608E-02  0.1137277E+00
         21   -1    0    0  501  502  0.00000000000E+00  0.00000000000E+00  0.57112765306E+02  0.57112765306E+02  0.00000000000E+00 0.  1.
         21   -1    0    0  502  503 -0.00000000000E+00 -0.00000000000E+00 -0.82065467740E+03  0.82065467740E+03  0.00000000000E+00 0.  1.
         -6    2    1    2    0  503 -0.10163674757E+03 -0.78180133278E+02 -0.43255289709E+03  0.48247747997E+03  0.17099809413E+03 0.  0.
        -24    2    3    3    0    0 -0.94197558647E+02  0.93891530520E+01 -0.28646730044E+03  0.31192891507E+03  0.79213619938E+02 0.  0.
          6    2    1    2  501    0  0.10163674757E+03  0.78180133278E+02 -0.33098901500E+03  0.39528996274E+03  0.17394902958E+03 0.  0.
         24    2    5    5    0    0  0.70571675441E+01  0.74702072586E+02 -0.11187000781E+03  0.15655868456E+03  0.79784207731E+02 0.  0.
          5    1    5    5  501    0  0.94579580029E+02  0.34780606920E+01 -0.21911900719E+03  0.23873127817E+03  0.47000000000E+01 0. -1.
        -11    1    6    6    0    0  0.33535305582E+02  0.29781642532E+02 -0.16358553270E+02  0.47740603446E+02  0.00000000000E+00 0.  1.
         12    1    6    6    0    0 -0.26478138038E+02  0.44920430055E+02 -0.95511454538E+02  0.10881808112E+03  0.00000000000E+00 0. -1.
         -5    1    3    3    0  503 -0.74391889260E+01 -0.87569286330E+02 -0.14608559665E+03  0.17054856490E+03  0.47000000000E+01 0.  1.
         13    1    4    4    0    0 -0.58708917473E+02  0.17526033406E+02 -0.72661836867E+02  0.95045470038E+02  0.00000000000E+00 0. -1.
        -14    1    4    4    0    0 -0.35488641174E+02 -0.81368803545E+01 -0.21380546357E+03  0.21688344503E+03  0.00000000000E+00 0.  1.
</event>
<event>
12    1  0.8421768E-002  0.1860560E+03  0.7818608E-02  0.1162146E+00
         21   -1    0    0  501  502  0.00000000000E+00  0.00000000000E+00  0.59175972455E+03  0.59175972455E+03  0.00000000000E+00 0. -1.
         21   -1    0    0  502  503 -0.00000000000E+00 -0.00000000000E+00 -0.85216896924E+02  0.85216896924E+02  0.00000000000E+00 0. -1.
         -6    2    1    2    0  503  0.49762845860E+02  0.50694565696E+02  0.63199027742E+02  0.19617463594E+03  0.17159280538E+03 0.  0.
        -24    2    3    3    0    0  0.92478661668E+02  0.44159451061E+02  0.18876279450E+02  0.13409448887E+03  0.84395841356E+02 0.  0.
          6    2    1    2  501    0 -0.49762845860E+02 -0.50694565696E+02  0.44334379988E+03  0.48080198553E+03  0.17196088096E+03 0.  0.
         24    2    5    5    0    0  0.81154435732E+01 -0.25832242141E+01  0.10163706304E+03  0.13087316195E+03  0.82007063509E+02 0.  0.
          5    1    5    5  501    0 -0.57878289433E+02 -0.48111341482E+02  0.34170673685E+03  0.34992882358E+03  0.47000000000E+01 0. -1.
        -11    1    6    6    0    0  0.20435113489E+02 -0.28629883781E+02  0.95003578500E+02  0.10130618953E+03  0.00000000000E+00 0.  1.
         12    1    6    6    0    0 -0.12319669916E+02  0.26046659567E+02  0.66334845378E+01  0.29566972428E+02  0.00000000000E+00 0. -1.
         -5    1    3    3    0  503 -0.42715815808E+02  0.65351146347E+01  0.44322748292E+02  0.62080147065E+02  0.47000000000E+01 0.  1.
         11    1    4    4    0    0  0.59096234514E+02 -0.15907951080E+02  0.22684421314E+02  0.65268758312E+02  0.00000000000E+00 0. -1.
        -12    1    4    4    0    0  0.33382427154E+02  0.60067402141E+02 -0.38081418639E+01  0.68825730560E+02  0.00000000000E+00 0.  1.
</event>
<event>
12    1  0.8421768E-002  0.1934664E+03  0.7818608E-02  0.1155451E+00
         21   -1    0    0  501  502  0.00000000000E+00  0.00000000000E+00  0.33760459156E+03  0.33760459156E+03  0.00000000000E+00 0.  1.
         21   -1    0    0  502  503 -0.00000000000E+00 -0.00000000000E+00 -0.14798504266E+03  0.14798504266E+03  0.00000000000E+00 0.  1.
         -6    2    1    2    0  503 -0.46202399945E+02 -0.72609227290E+02 -0.27058559742E+02  0.19534947674E+03  0.17326999382E+03 0.  0.
        -24    2    3    3    0    0  0.18415222073E+02 -0.36220162582E+02 -0.65691215043E+02  0.11159881607E+03  0.80547746299E+02 0.  0.
          6    2    1    2  501    0  0.46202399945E+02  0.72609227290E+02  0.21667810864E+03  0.29024015748E+03  0.17286753484E+03 0.  0.
         24    2    5    5    0    0  0.67816431784E+02  0.11708970360E+02  0.65140347147E+02  0.12543181174E+03  0.82180935526E+02 0.  0.
          5    1    5    5  501    0 -0.21614031839E+02  0.60900256930E+02  0.15153776149E+03  0.16480834574E+03  0.47000000000E+01 0. -1.
        -13    1    6    6    0    0  0.20821265366E+02 -0.33548444972E+02  0.11949168879E+02  0.41252950057E+02  0.00000000000E+00 0.  1.
         14    1    6    6    0    0  0.46995166418E+02  0.45257415332E+02  0.53191178268E+02  0.84178861686E+02  0.00000000000E+00 0. -1.
         -5    1    3    3    0  503 -0.64617622019E+02 -0.36389064708E+02  0.38632655301E+02  0.83750660662E+02  0.47000000000E+01 0.  1.
         13    1    4    4    0    0  0.26806347015E+02 -0.21728922728E+02  0.85024181693E+01  0.35538956625E+02  0.00000000000E+00 0. -1.
        -14    1    4    4    0    0 -0.83911249420E+01 -0.14491239854E+02 -0.74193633212E+02  0.76059859450E+02  0.00000000000E+00 0.  1.
</event>
<event>
12    1  0.8421768E-002  0.1778024E+03  0.7818608E-02  0.1169991E+00
         21   -1    0    0  503  502  0.00000000000E+00  0.00000000000E+00  0.44041291258E+02  0.44041291258E+02  0.00000000000E+00 0. -1.
         21   -1    0    0  501  503 -0.00000000000E+00 -0.00000000000E+00 -0.72281519256E+03  0.72281519256E+03  0.00000000000E+00 0.  1.
          6    2    1    2  501    0  0.41354105718E+02  0.13975503084E+02 -0.30512623698E+03  0.35306153707E+03  0.17217709406E+03 0.  0.
         24    2    3    3    0    0  0.35017576034E+02 -0.45878047505E+02 -0.10639566627E+03  0.14536336938E+03  0.80495002843E+02 0.  0.
         -6    2    1    2    0  502 -0.41354105718E+02 -0.13975503084E+02 -0.37364766432E+03  0.41379494674E+03  0.17236068042E+03 0.  0.
        -24    2    5    5    0    0  0.35778991197E+02  0.44253157779E+02 -0.13814339354E+03  0.15918849918E+03  0.54944543935E+02 0.  0.
          5    1    3    3  501    0  0.63365296836E+01  0.59853550588E+02 -0.19873057071E+03  0.20769816769E+03  0.47000000000E+01 0. -1.
        -11    1    4    4    0    0 -0.15757828124E+01 -0.23481736175E+02 -0.99085422046E+02  0.10184201435E+03  0.00000000000E+00 0.  1.
         12    1    4    4    0    0  0.36593358847E+02 -0.22396311330E+02 -0.73102442218E+01  0.43521355028E+02  0.00000000000E+00 0. -1.
         -5    1    5    5    0  502 -0.77133096915E+02 -0.58228660863E+02 -0.23550427078E+03  0.25460644756E+03  0.47000000000E+01 0.  1.
         13    1    6    6    0    0  0.26470726930E+02  0.35581767211E+02 -0.13951432445E+03  0.14639333410E+03  0.00000000000E+00 0. -1.
        -14    1    6    6    0    0  0.93082642669E+01  0.86713905680E+01  0.13709309043E+01  0.12795165086E+02  0.00000000000E+00 0.  1.
</event>
<event>
12    1  0.8421768E-002  0.2242832E+03  0.7818608E-02  0.1130801E+00
         21   -1    0    0  501  502  0.00000000000E+00  0.00000000000E+00  0.54313776151E+03  0.54313776151E+03  0.00000000000E+00 0. -1.
         21   -1    0    0  502  503 -0.00000000000E+00 -0.00000000000E+00 -0.23045243402E+03  0.23045243402E+03  0.00000000000E+00 0. -1.
         -6    2    1    2    0  503 -0.10945302601E+03 -0.93894864839E+02 -0.14302628846E+03  0.26567679678E+03  0.17126421287E+03 0.  0.
        -24    2    3    3    0    0  0.32021918580E+01 -0.71801957298E+02 -0.51056225635E+02  0.11850384705E+03  0.79187426305E+02 0.  0.
          6    2    1    2  501    0  0.10945302601E+03  0.93894864839E+02  0.45571161595E+03  0.50791339875E+03  0.17177524029E+03 0.  0.
         24    2    5    5    0    0  0.11542057687E+03  0.50623038815E+02  0.43755671114E+03  0.46037653769E+03  0.67868102785E+02 0.  0.
          5    1    5    5  501    0 -0.59675508560E+01  0.43271826024E+02  0.18154904811E+02  0.47536861060E+02  0.47000000000E+01 0. -1.
        -11    1    6    6    0    0 -0.61368229642E+01  0.22512731010E+01  0.43650330652E+01  0.78601743193E+01  0.00000000000E+00 0.  1.
         12    1    6    6    0    0  0.12155739983E+03  0.48371765714E+02  0.43319167807E+03  0.45251636337E+03  0.00000000000E+00 0. -1.
         -5    1    3    3    0  503 -0.11265521787E+03 -0.22092907541E+02 -0.91970062824E+02  0.14717294973E+03  0.47000000000E+01 0.  1.
         13    1    4    4    0    0  0.39744945301E-01 -0.69249628200E+02 -0.70392451359E+02  0.98745176053E+02  0.00000000000E+00 0. -1.
        -14    1    4    4    0    0  0.31624469127E+01 -0.25523290980E+01  0.19336225723E+02  0.19758670996E+02  0.00000000000E+00 0.  1.
</event>
<event>
12    1  0.8421768E-002  0.1977020E+03  0.7818608E-02  0.1151719E+00
         21   -1    0    0  503  502  0.00000000000E+00  0.00000000000E+00  0.58398241797E+02  0.58398241797E+02  0.00000000000E+00 0.  1.
         21   -1    0    0  501  503 -0.00000000000E+00 -0.00000000000E+00 -0.75583290045E+03  0.75583290045E+03  0.00000000000E+00 0.  1.
          6    2    1    2  501    0  0.68698493901E+02  0.67532773319E+02 -0.48689237604E+03  0.52549999907E+03  0.17264386650E+03 0.  0.
         24    2    3    3    0    0  0.86327258708E+02 -0.85300133882E+01 -0.33369660469E+03  0.35349024577E+03  0.77953660264E+02 0.  0.
         -6    2    1    2    0  502 -0.68698493901E+02 -0.67532773319E+02 -0.21054228261E+03  0.28873114317E+03  0.17250351224E+03 0.  0.
        -24    2    5    5    0    0 -0.72182213589E+02  0.17465070315E+02 -0.94508493336E+02  0.14477733121E+03  0.80705140361E+02 0.  0.
          5    1    3    3  501    0 -0.17628764807E+02  0.76062786707E+02 -0.15319577135E+03  0.17200975330E+03  0.47000000000E+01 0. -1.
        -13    1    4    4    0    0  0.30927442405E+02  0.69117099608E+01 -0.24963051181E+03  0.25163400179E+03  0.00000000000E+00 0.  1.
         14    1    4    4    0    0  0.55399816303E+02 -0.15441723349E+02 -0.84066092878E+02  0.10185624398E+03  0.00000000000E+00 0. -1.
         -5    1    5    5    0  502  0.34837196878E+01 -0.84997843634E+02 -0.11603378927E+03  0.14395381196E+03  0.47000000000E+01 0.  1.
         13    1    6    6    0    0  0.80821532014E+01 -0.43150603304E+01  0.84232757472E+01  0.12445582362E+02  0.00000000000E+00 0. -1.
        -14    1    6    6    0    0 -0.80264366790E+02  0.21780130645E+02 -0.10293176908E+03  0.13233174885E+03  0.00000000000E+00 0.  1.
</event>
<event>
12    1  0.8421768E-002  0.3463539E+03  0.7818608E-02  0.1064151E+00
         21   -1    0    0  501  502  0.00000000000E+00  0.00000000000E+00  0.56581381840E+03  0.56581381840E+03  0.00000000000E+00 0.  1.
         21   -1    0    0  502  503 -0.00000000000E+00 -0.00000000000E+00 -0.29787622735E+03  0.29787622735E+03  0.00000000000E+00 0. -1.
         -6    2    1    2    0  503 -0.12006281270E+03 -0.27554671108E+03 -0.98155198562E+02  0.35972085995E+03  0.17153304375E+03 0.  0.
        -24    2    3    3    0    0 -0.11340734551E+03 -0.26353066325E+03 -0.12987964503E+03  0.32483230663E+03  0.79609476500E+02 0.  0.
          6    2    1    2  501    0  0.12006281270E+03  0.27554671108E+03  0.36609278961E+03  0.50396918581E+03  0.17210444694E+03 0.  0.
         24    2    5    5    0    0  0.36018404291E+02  0.10610738247E+03  0.75691313075E+02  0.15737395179E+03  0.80506420652E+02 0.  0.
          5    1    5    5  501    0  0.84044408406E+02  0.16943932861E+03  0.29040147654E+03  0.34659523401E+03  0.47000000000E+01 0. -1.
        -11    1    6    6    0    0  0.28771455307E+02  0.60541992214E+02  0.87041178248E+02  0.10986034850E+03  0.00000000000E+00 0.  1.
         12    1    6    6    0    0  0.72469489834E+01  0.45565390252E+02 -0.11349865173E+02  0.47513603292E+02  0.00000000000E+00 0. -1.
         -5    1    3    3    0  503 -0.66554671893E+01 -0.12016047834E+02  0.31724446471E+02  0.34888553322E+02  0.47000000000E+01 0.  1.
         13    1    4    4    0    0 -0.31165095123E+00 -0.91980752348E+02 -0.46726436762E+02  0.10316935505E+03  0.00000000000E+00 0. -1.
        -14    1    4    4    0    0 -0.11309569456E+03 -0.17154991090E+03 -0.83153208270E+02  0.22166295158E+03  0.00000000000E+00 0.  1.
</event>
<event>
12    1  0.8421768E-002  0.2215076E+03  0.7818608E-02  0.1132912E+00
         21   -1    0    0  503  502  0.00000000000E+00  0.00000000000E+00  0.59532174535E+03  0.59532174535E+03  0.00000000000E+00 0. -1.
         21   -1    0    0  501  503 -0.00000000000E+00 -0.00000000000E+00 -0.46572391004E+03  0.46572391004E+03  0.00000000000E+00 0. -1.
          6    2    1    2  501    0 -0.70852337116E+02 -0.11896474013E+03 -0.41670397573E+03  0.47154476737E+03  0.17187088517E+03 0.  0.
         24    2    3    3    0    0 -0.48533379297E+02 -0.14419922019E+03 -0.26323203272E+03  0.31434857735E+03  0.79843728787E+02 0.  0.
         -6    2    1    2    0  502  0.70852337116E+02  0.11896474013E+03  0.54630181105E+03  0.58950088802E+03  0.17289582169E+03 0.  0.
        -24    2    5    5    0    0  0.37598329583E+02  0.15237441676E+03  0.42939539896E+03  0.46336114529E+03  0.75442329275E+02 0.  0.
          5    1    3    3  501    0 -0.22318957819E+02  0.25234480055E+02 -0.15347194302E+03  0.15719619001E+03  0.47000000000E+01 0. -1.
        -13    1    4    4    0    0 -0.25064835335E+02 -0.32920728985E+02 -0.20243763265E+02  0.46063329432E+02  0.00000000000E+00 0.  1.
         14    1    4    4    0    0 -0.23468543962E+02 -0.11127849120E+03 -0.24298826945E+03  0.26828524792E+03  0.00000000000E+00 0. -1.
         -5    1    5    5    0  502  0.33254007533E+02 -0.33409676629E+02  0.11690641209E+03  0.12613974273E+03  0.47000000000E+01 0.  1.
         13    1    6    6    0    0 -0.16771674643E+02  0.88728621971E+02  0.23171106135E+03  0.24868468666E+03  0.00000000000E+00 0. -1.
        -14    1    6    6    0    0  0.54370004226E+02  0.63645794789E+02  0.19768433761E+03  0.21467645863E+03  0.00000000000E+00 0.  1.
</event>
<event>
12    1  0.8421768E-002  0.1865043E+03  0.7818608E-02  0.1161757E+00
         21   -1    0    0  501  502  0.00000000000E+00  0.00000000000E+00  0.26527628396E+02  0.26527628396E+02  0.00000000000E+00 0. -1.
         21   -1    0    0  502  503 -0.00000000000E+00 -0.00000000000E+00 -0.15505734466E+04  0.15505734466E+04  0.00000000000E+00 0. -1.
         -6    2    1    2    0  503  0.67690935082E+02  0.12323132011E+02 -0.10746635764E+04  0.10907271296E+04  0.17334920406E+03 0.  0.
        -24    2    3    3    0    0  0.22206144809E+02 -0.25068780621E+02 -0.93697218341E+03  0.94090045981E+03  0.79090114256E+02 0.  0.
          6    2    1    2  501    0 -0.67690935082E+02 -0.12323132011E+02 -0.44938224189E+03  0.48637394547E+03  0.17286206419E+03 0.  0.
         24    2    5    5    0    0 -0.34813606190E+02 -0.71993734606E+02 -0.31837383329E+03  0.33863501122E+03  0.83166628551E+02 0.  0.
          5    1    5    5  501    0 -0.32877328892E+02  0.59670602595E+02 -0.13100840860E+03  0.14773893425E+03  0.47000000000E+01 0. -1.
        -13    1    6    6    0    0 -0.41350426968E+02 -0.73037613520E-01 -0.14604436971E+03  0.15178544420E+03  0.00000000000E+00 0.  1.
         14    1    6    6    0    0  0.65368207784E+01 -0.71920696993E+02 -0.17232946358E+03  0.18684956703E+03  0.00000000000E+00 0. -1.
         -5    1    3    3    0  503  0.45484790272E+02  0.37391912632E+02 -0.13769139296E+03  0.14982666976E+03  0.47000000000E+01 0.  1.
         11    1    4    4    0    0  0.33259914195E+02 -0.46115527084E+02 -0.78746422722E+03  0.78951426389E+03  0.00000000000E+00 0. -1.
        -12    1    4    4    0    0 -0.11053769386E+02  0.21046746463E+02 -0.14950795619E+03  0.15138619593E+03  0.00000000000E+00 0.  1.
</event>
<event>
12    1  0.8421768E-002  0.1781486E+03  0.7818608E-02  0.1169909E+00
         21   -1    0    0  503  502  0.00000000000E+00  0.00000000000E+00  0.15793728038E+03  0.15793728038E+03  0.00000000000E+00 0. -1.
         21   -1    0    0  501  503 -0.00000000000E+00 -0.00000000000E+00 -0.22295068680E+03  0.22295068680E+03  0.00000000000E+00 0. -1.
          6    2    1    2  501    0 -0.32873713420E+02 -0.27098557708E+02  0.29272871350E+02  0.17932697130E+03  0.17171560434E+03 0.  0.
         24    2    3    3    0    0 -0.35481676539E+02  0.49060444837E+02  0.35487415520E+01  0.98761370734E+02  0.77944455641E+02 0.  0.
         -6    2    1    2    0  502  0.32873713420E+02  0.27098557708E+02 -0.94286277765E+02  0.20156099588E+03  0.17297953643E+03 0.  0.
        -24    2    5    5    0    0  0.50605511064E+02 -0.44015304509E+02 -0.63113676211E+02  0.12177741904E+03  0.79675208698E+02 0.  0.
          5    1    3    3  501    0  0.26079631194E+01 -0.76159002545E+02  0.25724129798E+02  0.80565600563E+02  0.47000000000E+01 0. -1.
        -13    1    4    4    0    0  0.80868444201E+01 -0.16671707626E+02  0.70452654854E+01  0.19823689203E+02  0.00000000000E+00 0.  1.
         14    1    4    4    0    0 -0.43568520959E+02  0.65732152463E+02 -0.34965239334E+01  0.78937681532E+02  0.00000000000E+00 0. -1.
         -5    1    5    5    0  502 -0.17731797644E+02  0.71113862217E+02 -0.31172601553E+02  0.79783576848E+02  0.47000000000E+01 0.  1.
         13    1    6    6    0    0  0.19010253723E+02  0.10717646635E+02  0.10949087848E+02  0.24415982894E+02  0.00000000000E+00 0. -1.
        -14    1    6    6    0    0  0.31595257341E+02 -0.54732951144E+02 -0.74062764059E+02  0.97361436141E+02  0.00000000000E+00 0.  1.
</event>
<event>
12    1  0.8421768E-002  0.2268470E+03  0.7818608E-02  0.1129642E+00
         21   -1    0    0  501  502  0.00000000000E+00  0.00000000000E+00  0.12792366247E+03  0.12792366247E+03  0.00000000000E+00 0. -1.
         21   -1    0    0  502  503 -0.00000000000E+00 -0.00000000000E+00 -0.43373075820E+03  0.43373075820E+03  0.00000000000E+00 0.  1.
         -6    2    1    2    0  503 -0.73071768783E+02  0.12131713607E+03 -0.23831728583E+03  0.32902081542E+03  0.17720676443E+03 0.  0.
        -24    2    3    3    0    0 -0.50680376982E+02  0.67393911150E+02 -0.49765501250E+02  0.13157980124E+03  0.87898800386E+02 0.  0.
          6    2    1    2  501    0  0.73071768783E+02 -0.12131713607E+03 -0.67489809909E+02  0.23263360525E+03  0.17177365616E+03 0.  0.
         24    2    5    5    0    0  0.35877015884E+02  0.41568855506E+00 -0.75105776044E+00  0.88833461737E+02  0.81261840803E+02 0.  0.
          5    1    5    5  501    0  0.37194752899E+02 -0.12173282463E+03 -0.66738752148E+02  0.14380014351E+03  0.47000000000E+01 0. -1.
        -11    1    6    6    0    0  0.19031268048E+02  0.91903202479E+01 -0.39994493482E+02  0.45235060060E+02  0.00000000000E+00 0.  1.
         12    1    6    6    0    0  0.16845747837E+02 -0.87746316928E+01  0.39243435722E+02  0.43598401677E+02  0.00000000000E+00 0. -1.
         -5    1    3    3    0  503 -0.22391391801E+02  0.53923224923E+02 -0.18855178458E+03  0.19744101418E+03  0.47000000000E+01 0.  1.
         13    1    4    4    0    0 -0.59474543991E+02  0.27135216549E+02 -0.60419116225E+02  0.89016913930E+02  0.00000000000E+00 0. -1.
        -14    1    4    4    0    0  0.87941670091E+01  0.40258694601E+02  0.10653614976E+02  0.42562887313E+02  0.00000000000E+00 0.  1.
</event>
<event>
12    1  0.8421768E-002  0.2088727E+03  0.7818608E-02  0.1143575E+00
         21   -1    0    0  501  502  0.00000000000E+00  0.00000000000E+00  0.26549504533E+03  0.26549504533E+03  0.00000000000E+00 0. -1.
         21   -1    0    0  502  503 -0.00000000000E+00 -0.00000000000E+00 -0.73087648976E+03  0.73087648976E+03  0.00000000000E+00 0. -1.
         -6    2    1    2    0  503 -0.11316933380E+03  0.33046878916E+02 -0.67364494500E+03  0.70528386858E+03  0.17241934069E+03 0.  0.
        -24    2    3    3    0    0 -0.28815116510E+02  0.15184294356E+02 -0.53539034019E+03  0.54227732991E+03  0.79755955404E+02 0.  0.
          6    2    1    2  501    0  0.11316933380E+03 -0.33046878916E+02  0.20826350057E+03  0.29108766650E+03  0.16570742169E+03 0.  0.
         24    2    5    5    0    0  0.10114433174E+01 -0.36495102134E+02  0.66246959062E+02  0.11002946950E+03  0.79905626058E+02 0.  0.
          5    1    5    5  501    0  0.11215789048E+03  0.34482232181E+01  0.14201654151E+03  0.18105819701E+03  0.47000000000E+01 0. -1.
        -11    1    6    6    0    0 -0.25140300500E+02  0.12789026425E+02  0.78811477935E+01  0.29286624877E+02  0.00000000000E+00 0.  1.
         12    1    6    6    0    0  0.26151743818E+02 -0.49284128559E+02  0.58365811269E+02  0.80742844621E+02  0.00000000000E+00 0. -1.
         -5    1    3    3    0  503 -0.84354217292E+02  0.17862584560E+02 -0.13825460480E+03  0.16300653868E+03  0.47000000000E+01 0.  1.
         11    1    4    4    0    0 -0.30895825366E+02  0.42057386442E+02 -0.23727983204E+03  0.24295080669E+03  0.00000000000E+00 0. -1.
        -12    1    4    4    0    0  0.20807088556E+01 -0.26873092085E+02 -0.29811050816E+03  0.29932652322E+03  0.00000000000E+00 0.  1.
</event>
<event>
12    1  0.8421768E-002  0.2395586E+03  0.7818608E-02  0.1120384E+00
         21   -1    0    0  503  502  0.00000000000E+00  0.00000000000E+00  0.23503785306E+03  0.23503785306E+03  0.00000000000E+00 0.  1.
         21   -1    0    0  501  503 -0.00000000000E+00 -0.00000000000E+00 -0.26950177069E+03  0.26950177069E+03  0.00000000000E+00 0.  1.
          6    2    1    2  501    0  0.93914440089E+02 -0.13321725338E+03 -0.97341799633E+02  0.25858024972E+03  0.17556070441E+03 0.  0.
         24    2    3    3    0    0  0.56385131260E+02 -0.28337804026E+02 -0.10498344263E+03  0.14682769885E+03  0.80960087435E+02 0.  0.
         -6    2    1    2    0  502 -0.93914440089E+02  0.13321725338E+03  0.62877882001E+02  0.24595937403E+03  0.17313470759E+03 0.  0.
        -24    2    5    5    0    0 -0.13056072599E+02  0.70473777109E+02 -0.26346378811E+02  0.11009960027E+03  0.79314412380E+02 0.  0.
          5    1    3    3  501    0  0.37529308829E+02 -0.10487944935E+03  0.76416430010E+01  0.11175255087E+03  0.47000000000E+01 0. -1.
        -13    1    4    4    0    0  0.71546770676E+02 -0.38070742877E+02 -0.98780745629E+02  0.12777307058E+03  0.00000000000E+00 0.  1.
         14    1    4    4    0    0 -0.15161639416E+02  0.97329388508E+01 -0.62026970046E+01  0.19054628272E+02  0.00000000000E+00 0. -1.
         -5    1    5    5    0  502 -0.80858367490E+02  0.62743476270E+02  0.89224260812E+02  0.13585977376E+03  0.47000000000E+01 0.  1.
         13    1    6    6    0    0 -0.33302347094E+02  0.28661788827E+02 -0.42290372132E+02  0.60983768625E+02  0.00000000000E+00 0. -1.
        -14    1    6    6    0    0  0.20246274495E+02  0.41811988283E+02  0.15943993321E+02  0.49115831644E+02  0.00000000000E+00 0.  1.
</event>
<event>
12    1  0.8421768E-002  0.2156796E+03  0.7818608E-02  0.1138085E+00
         21   -1    0    0  503  502  0.00000000000E+00  0.00000000000E+00  0.30527182870E+03  0.30527182870E+03  0.00000000000E+00 0. -1.
         21   -1    0    0  501  503 -0.00000000000E+00 -0.00000000000E+00 -0.15067194420E+03  0.15067194420E+03  0.00000000000E+00 0. -1.
          6    2    1    2  501    0  0.49575678672E+02  0.11261930254E+03  0.10064986579E+03  0.23361903786E+03  0.17119171752E+03 0.  0.
         24    2    3    3    0    0  0.25559448971E+02  0.14371748297E+03  0.59054713871E+02  0.17620716819E+03  0.79079115768E+02 0.  0.
         -6    2    1    2    0  502 -0.49575678672E+02 -0.11261930254E+03  0.53950018713E+02  0.22232473504E+03  0.17713505602E+03 0.  0.
        -24    2    5    5    0    0  0.38076320437E+02 -0.85883890380E+02  0.43638078007E+02  0.12998795292E+03  0.78528575991E+02 0.  0.
          5    1    3    3  501    0  0.24016229701E+02 -0.31098180431E+02  0.41595151916E+02  0.57411869662E+02  0.47000000000E+01 0. -1.
        -11    1    4    4    0    0 -0.25229411948E+02  0.22282970021E+02  0.55256376174E+01  0.34111385947E+02  0.00000000000E+00 0.  1.
         12    1    4    4    0    0  0.50788860919E+02  0.12143451295E+03  0.53529076254E+02  0.14209578225E+03  0.00000000000E+00 0. -1.
         -5    1    5    5    0  502 -0.87651999109E+02 -0.26735412156E+02  0.10311940706E+02  0.92336782118E+02  0.47000000000E+01 0.  1.
         13    1    6    6    0    0 -0.77170659678E+00 -0.40293779338E+02  0.55836668123E+02  0.68861583568E+02  0.00000000000E+00 0. -1.
        -14    1    6    6    0    0  0.38848027033E+02 -0.45590111042E+02 -0.12198590116E+02  0.61126369351E+02  0.00000000000E+00 0.  1.
</event>
<event>
12    1  0.8421768E-002  0.2093791E+03  0.7818608E-02  0.1142519E+00
         21   -1    0    0  501  502  0.00000000000E+00  0.00000000000E+00  0.34984208009E+03  0.34984208009E+03  0.00000000000E+00 0.  1.
         21   -1    0    0  502  503 -0.00000000000E+00 -0.00000000000E+00 -0.12793447494E+03  0.12793447494E+03  0.00000000000E+00 0.  1.
         -6    2    1    2    0  503 -0.71909072662E+02 -0.95146838895E+02  0.15377264308E+03  0.25978000426E+03  0.17209238556E+03 0.  0.
        -24    2    3    3    0    0  0.25014208263E+02 -0.45314234785E+02  0.10247359608E+03  0.13923502078E+03  0.78781105788E+02 0.  0.
          6    2    1    2  501    0  0.71909072662E+02  0.95146838895E+02  0.68134962067E+02  0.21799655078E+03  0.16928168068E+03 0.  0.
         24    2    5    5    0    0  0.20151153482E+02  0.33421359268E+01  0.81950274088E+02  0.11160135102E+03  0.72950498748E+02 0.  0.
          5    1    5    5  501    0  0.51757919181E+02  0.91804702968E+02 -0.13815312022E+02  0.10639519976E+03  0.47000000000E+01 0. -1.
        -13    1    6    6    0    0  0.44556397480E+02  0.14393254929E+02  0.38797513098E+02  0.60808596155E+02  0.00000000000E+00 0.  1.
         14    1    6    6    0    0 -0.24405243998E+02 -0.11051119002E+02  0.43152760990E+02  0.50792754866E+02  0.00000000000E+00 0. -1.
         -5    1    3    3    0  503 -0.96923280925E+02 -0.49832604110E+02  0.51299047005E+02  0.12054498348E+03  0.47000000000E+01 0.  1.
         11    1    4    4    0    0  0.45808762288E+02 -0.35621138465E+02  0.34536051693E+02  0.67528120620E+02  0.00000000000E+00 0. -1.
        -12    1    4    4    0    0 -0.20794554025E+02 -0.96930963197E+01  0.67937544386E+02  0.71706900160E+02  0.00000000000E+00 0.  1.
</event>
<event>
12    1  0.8421768E-002  0.2054720E+03  0.7818608E-02  0.1146251E+00
         21   -1    0    0  501  502  0.00000000000E+00  0.00000000000E+00  0.15047259060E+03  0.15047259060E+03  0.00000000000E+00 0. -1.
         21   -1    0    0  502  503 -0.00000000000E+00 -0.00000000000E+00 -0.28023968387E+03  0.28023968387E+03  0.00000000000E+00 0. -1.
         -6    2    1    2    0  503  0.24065658906E+02  0.10127145856E+03 -0.31143771898E+02  0.20279717023E+03  0.17123578326E+03 0.  0.
        -24    2    3    3    0    0  0.28300647574E+02  0.13696732300E+03 -0.91076983388E+01  0.16037302139E+03  0.77946017210E+02 0.  0.
          6    2    1    2  501    0 -0.24065658906E+02 -0.10127145856E+03 -0.98623321369E+02  0.22791510424E+03  0.17715437044E+03 0.  0.
         24    2    5    5    0    0 -0.74150438179E+02 -0.36601951520E+02 -0.88531065485E+02  0.14536467187E+03  0.80343935277E+02 0.  0.
          5    1    5    5  501    0  0.50084779272E+02 -0.64669507040E+02 -0.10092255883E+02  0.82550432369E+02  0.47000000000E+01 0. -1.
        -11    1    6    6    0    0  0.13056958407E+01 -0.36215138246E+02 -0.46624837025E+02  0.59051812059E+02  0.00000000000E+00 0.  1.
         12    1    6    6    0    0 -0.75456134019E+02 -0.38681327361E+00 -0.41906228460E+02  0.86312859815E+02  0.00000000000E+00 0. -1.
         -5    1    3    3    0  503 -0.42349886684E+01 -0.35695864436E+02 -0.22036073559E+02  0.42424148839E+02  0.47000000000E+01 0.  1.
         13    1    4    4    0    0  0.39586101836E+02  0.11716214376E+03 -0.32337712659E+02  0.12782705132E+03  0.00000000000E+00 0. -1.
        -14    1    4    4    0    0 -0.11285454261E+02  0.19805179234E+02  0.23230014320E+02  0.32545970068E+02  0.00000000000E+00 0.  1.
</event>
<event>
12    1  0.8421768E-002  0.6989915E+03  0.7818608E-02  0.9719097E-01
         21   -1    0    0  503  502  0.00000000000E+00  0.00000000000E+00  0.43280218178E+03  0.43280218178E+03  0.00000000000E+00 0. -1.
         21   -1    0    0  501  503 -0.00000000000E+00 -0.00000000000E+00 -0.11795705524E+04  0.11795705524E+04  0.00000000000E+00 0.  1.
          6    2    1    2  501    0 -0.62029908972E+03 -0.27259318389E+03 -0.20551277334E+03  0.72857710873E+03  0.17178794702E+03 0.  0.
         24    2    3    3    0    0 -0.13168188540E+03 -0.66285783126E+02 -0.62114106899E+02  0.17912758101E+03  0.80589106062E+02 0.  0.
         -6    2    1    2    0  502  0.62029908972E+03  0.27259318389E+03 -0.54125559728E+03  0.88379562546E+03  0.17046724428E+03 0.  0.
        -24    2    5    5    0    0  0.54966357910E+03  0.26615422129E+03 -0.53022529012E+03  0.81186097959E+03  0.70790339673E+02 0.  0.
          5    1    3    3  501    0 -0.48861720432E+03 -0.20630740076E+03 -0.14339866644E+03  0.54944952772E+03  0.47000000000E+01 0. -1.
        -11    1    4    4    0    0 -0.72414335016E+02 -0.20255593153E+02  0.90137676081E+01  0.75732245287E+02  0.00000000000E+00 0.  1.
         12    1    4    4    0    0 -0.59267550384E+02 -0.46030189973E+02 -0.71127874508E+02  0.10339533572E+03  0.00000000000E+00 0. -1.
         -5    1    5    5    0  502  0.70635510624E+02  0.64389626036E+01 -0.11030307160E+02  0.71934645871E+02  0.47000000000E+01 0.  1.
         11    1    6    6    0    0  0.17352989717E+03  0.52800413558E+02 -0.13606890519E+03  0.22674932380E+03  0.00000000000E+00 0. -1.
        -12    1    6    6    0    0  0.37613368193E+03  0.21335380773E+03 -0.39415638493E+03  0.58511165579E+03  0.00000000000E+00 0.  1.
</event>
<event>
12    1  0.8421768E-002  0.1733613E+03  0.7818608E-02  0.1174421E+00
         21   -1    0    0  501  502  0.00000000000E+00  0.00000000000E+00  0.42078234775E+03  0.42078234775E+03  0.00000000000E+00 0.  1.
         21   -1    0    0  502  503 -0.00000000000E+00 -0.00000000000E+00 -0.33670082587E+03  0.33670082587E+03  0.00000000000E+00 0.  1.
         -6    2    1    2    0  503 -0.10608668971E+02 -0.20108788744E+02 -0.29416892971E+03  0.34145205833E+03  0.17186402094E+03 0.  0.
        -24    2    3    3    0    0 -0.10850675018E+02 -0.15664989773E+02 -0.47675746454E+02  0.94873905799E+02  0.79780650215E+02 0.  0.
          6    2    1    2  501    0  0.10608668971E+02  0.20108788744E+02  0.37825045159E+03  0.41603111528E+03  0.17173111980E+03 0.  0.
         24    2    5    5    0    0 -0.35106236224E+01  0.42857033577E+02  0.37831399778E+03  0.38884782806E+03  0.78943667671E+02 0.  0.
          5    1    5    5  501    0  0.14119292593E+02 -0.22748244833E+02 -0.63546180924E-01  0.27183287227E+02  0.47000000000E+01 0. -1.
        -13    1    6    6    0    0  0.33476613526E+01  0.63361267625E+02  0.21682730548E+03  0.22592020156E+03  0.00000000000E+00 0.  1.
         14    1    6    6    0    0 -0.68582849750E+01 -0.20504234048E+02  0.16148669229E+03  0.16292762649E+03  0.00000000000E+00 0. -1.
         -5    1    3    3    0  503  0.24200604739E+00 -0.44437989710E+01 -0.24649318326E+03  0.24657815254E+03  0.47000000000E+01 0.  1.
         11    1    4    4    0    0 -0.15015431847E+01 -0.25282839703E+02 -0.66842489194E+02  0.71480032016E+02  0.00000000000E+00 0. -1.
        -12    1    4    4    0    0 -0.93491318334E+01  0.96178499301E+01  0.19166742740E+02  0.23393873783E+02  0.00000000000E+00 0.  1.
</event>
<event>
12    1  0.8421768E-002  0.2812173E+03  0.7818608E-02  0.1095047E+00
         21   -1    0    0  503  502  0.00000000000E+00  0.00000000000E+00  0.20172622471E+03  0.20172622471E+03  0.00000000000E+00 0.  1.
         21   -1    0    0  501  503 -0.00000000000E+00 -0.00000000000E+00 -0.53537524968E+03  0.53537524968E+03  0.00000000000E+00 0.  1.
          6    2    1    2  501    0  0.18485397134E+03  0.12271718821E+03 -0.35770718192E+03  0.45501385637E+03  0.17277928837E+03 0.  0.
         24    2    3    3    0    0  0.15349775267E+03  0.42369322408E+02 -0.16283261280E+03  0.24185387026E+03  0.81376379950E+02 0.  0.
         -6    2    1    2    0  502 -0.18485397134E+03 -0.12271718821E+03  0.24058156950E+02  0.28208761802E+03  0.17252284000E+03 0.  0.
        -24    2    5    5    0    0 -0.33269974929E+02 -0.52920352819E+02 -0.33577849186E+02  0.10547135206E+03  0.78033833524E+02 0.  0.
          5    1    3    3  501    0  0.31356218670E+02  0.80347865801E+02 -0.19487456912E+03  0.21315998611E+03  0.47000000000E+01 0. -1.
        -13    1    4    4    0    0  0.16695707202E+02  0.11433720588E+02  0.71640978806E+01  0.21466273638E+02  0.00000000000E+00 0.  1.
         14    1    4    4    0    0  0.13680204547E+03  0.30935601821E+02 -0.16999671068E+03  0.22038759662E+03  0.00000000000E+00 0. -1.
         -5    1    5    5    0  502 -0.15158399641E+03 -0.69796835391E+02  0.57636006135E+02  0.17661626596E+03  0.47000000000E+01 0.  1.
         11    1    6    6    0    0  0.13898187704E+02  0.11947669533E+02  0.48383895030E+00  0.18334135618E+02  0.00000000000E+00 0. -1.
        -12    1    6    6    0    0 -0.47168162633E+02 -0.64868022352E+02 -0.34061688136E+02  0.87137216439E+02  0.00000000000E+00 0.  1.
</event>
<event>
12    1  0.8421768E-002  0.2293393E+03  0.7818608E-02  0.1127167E+00
         21   -1    0    0  501  502  0.00000000000E+00  0.00000000000E+00  0.22534339901E+03  0.22534339901E+03  0.00000000000E+00 0.  1.
         21   -1    0    0  502  503 -0.00000000000E+00 -0.00000000000E+00 -0.26288975417E+03  0.26288975417E+03  0.00000000000E+00 0. -1.
         -6    2    1    2    0  503 -0.14438552247E+03 -0.46171024371E+02  0.63456390674E+02  0.23795634920E+03  0.17209755378E+03 0.  0.
        -24    2    3    3    0    0 -0.34953515266E+02  0.28403651137E+02  0.51653148774E+02  0.10492194408E+03  0.79448416870E+02 0.  0.
          6    2    1    2  501    0  0.14438552247E+03  0.46171024371E+02 -0.10100274583E+03  0.25027680397E+03  0.17163327576E+03 0.  0.
         24    2    5    5    0    0  0.16658431339E+03  0.25251696567E+02 -0.11338275216E+03  0.21702384695E+03  0.76522676424E+02 0.  0.
          5    1    5    5  501    0 -0.22198790920E+02  0.20919327805E+02  0.12380006330E+02  0.33252957024E+02  0.47000000000E+01 0. -1.
        -11    1    6    6    0    0  0.73922667209E+02  0.24180227162E+02 -0.10372630156E+02  0.78465505601E+02  0.00000000000E+00 0.  1.
         12    1    6    6    0    0  0.92661646184E+02  0.10714694051E+01 -0.10301012201E+03  0.13855834135E+03  0.00000000000E+00 0. -1.
         -5    1    3    3    0  503 -0.10943200721E+03 -0.74574675508E+02  0.11803241900E+02  0.13303440513E+03  0.47000000000E+01 0.  1.
         13    1    4    4    0    0  0.99313832314E+01  0.10160976996E+02 -0.16198887597E+02  0.21547199024E+02  0.00000000000E+00 0. -1.
        -14    1    4    4    0    0 -0.44884898498E+02  0.18242674140E+02  0.67852036371E+02  0.83374745053E+02  0.00000000000E+00 0.  1.
</event>
<event>
12    1  0.8421768E-002  0.1809252E+03  0.7818608E-02  0.1168290E+00
         21   -1    0    0  503  502  0.00000000000E+00  0.00000000000E+00  0.88184651869E+02  0.88184651869E+02  0.00000000000E+00 0.  1.
         21   -1    0    0  501  503 -0.00000000000E+00 -0.00000000000E+00 -0.38313868941E+03  0.38313868941E+03  0.00000000000E+00 0.  1.
          6    2    1    2  501    0  0.51604641235E+02 -0.14894763029E+02 -0.20355281644E+03  0.26862134886E+03  0.16684959400E+03 0.  0.
         24    2    3    3    0    0  0.33280645676E+02 -0.68152449683E+02 -0.17204983828E+03  0.20391680780E+03  0.78921225759E+02 0.  0.
         -6    2    1    2    0  502 -0.51604641235E+02  0.14894763029E+02 -0.91401221098E+02  0.20270199242E+03  0.17276869378E+03 0.  0.
        -24    2    5    5    0    0  0.29115158963E+02  0.28157065861E+02 -0.85623988528E+02  0.12056161723E+03  0.74586347929E+02 0.  0.
          5    1    3    3  501    0  0.18323995560E+02  0.53257686654E+02 -0.31502978160E+02  0.64704541062E+02  0.47000000000E+01 0. -1.
        -13    1    4    4    0    0  0.23876476050E+02  0.12716589141E+02 -0.31802609202E+02  0.41751690983E+02  0.00000000000E+00 0.  1.
         14    1    4    4    0    0  0.94041696258E+01 -0.80869038824E+02 -0.14024722908E+03  0.16216511682E+03  0.00000000000E+00 0. -1.
         -5    1    5    5    0  502 -0.80719800199E+02 -0.13262302832E+02 -0.57772325695E+01  0.82140375192E+02  0.47000000000E+01 0.  1.
         11    1    6    6    0    0  0.33396770015E+02 -0.18143186501E+02 -0.32956327915E+02  0.50305457095E+02  0.00000000000E+00 0. -1.
        -12    1    6    6    0    0 -0.42816110522E+01  0.46300252362E+02 -0.52667660613E+02  0.70256160131E+02  0.00000000000E+00 0.  1.
</event>
<event>
12    1  0.8421768E-002  0.2883296E+03  0.7818608E-02  0.1091285E+00
         21   -1    0    0  503  502  0.00000000000E+00  0.00000000000E+00  0.30374068629E+03  0.30374068629E+03  0.00000000000E+00 0. -1.
         21   -1    0    0  501  503 -0.00000000000E+00 -0.00000000000E+00 -0.27569128186E+03  0.27569128186E+03  0.00000000000E+00 0.  1.
          6    2    1    2  501    0  0.16600480549E+03 -0.16041366790E+03  0.41233545060E+02  0.29126302063E+03  0.17275358652E+03 0.  0.
         24    2    3    3    0    0  0.97960559226E+02 -0.19894907113E+02 -0.72424893443E+01  0.12771621543E+03  0.79163751413E+02 0.  0.
         -6    2    1    2    0  502 -0.16600480549E+03  0.16041366790E+03 -0.13184140632E+02  0.28816894752E+03  0.17198075606E+03 0.  0.
        -24    2    5    5    0    0 -0.61012508763E+02  0.10772112867E+03 -0.63341061774E+02  0.16034996300E+03  0.79835159811E+02 0.  0.
          5    1    3    3  501    0  0.68044246268E+02 -0.14051876078E+03  0.48476034404E+02  0.16354680521E+03  0.47000000000E+01 0. -1.
        -13    1    4    4    0    0  0.42790314028E+02 -0.28880031239E+02 -0.37826311820E+02  0.63999195658E+02  0.00000000000E+00 0.  1.
         14    1    4    4    0    0  0.55170245198E+02  0.89851241261E+01  0.30583822476E+02  0.63717019767E+02  0.00000000000E+00 0. -1.
         -5    1    5    5    0  502 -0.10499229673E+03  0.52692539228E+02  0.50156921142E+02  0.12781898451E+03  0.47000000000E+01 0.  1.
         13    1    6    6    0    0 -0.14405815681E+02  0.19451366937E+02  0.19143932304E+02  0.30860546742E+02  0.00000000000E+00 0. -1.
        -14    1    6    6    0    0 -0.46606693082E+02  0.88269761731E+02 -0.82484994078E+02  0.12948941626E+03  0.00000000000E+00 0.  1.
</event>
<event>
12    1  0.8421768E-002  0.2044561E+03  0.7818608E-02  0.1146861E+00
         21   -1    0    0  503  502  0.00000000000E+00  0.00000000000E+00  0.41346711762E+03  0.41346711762E+03  0.00000000000E+00 0.  1.
         21   -1    0    0  501  503 -0.00000000000E+00 -0.00000000000E+00 -0.10103348784E+03  0.10103348784E+03  0.00000000000E+00 0.  1.
          6    2    1    2  501    0 -0.15154574380E+01  0.10778553744E+03  0.12246271972E+03  0.23832631413E+03  0.17373052581E+03 0.  0.
         24    2    3    3    0    0 -0.56225250570E+02  0.64593530197E+02  0.11935229887E+03  0.16839437814E+03  0.82329171011E+02 0.  0.
         -6    2    1    2    0  502  0.15154574380E+01 -0.10778553744E+03  0.18997091006E+03  0.27617429133E+03  0.16900672716E+03 0.  0.
        -24    2    5    5    0    0  0.43312074859E+02 -0.16563473741E+02  0.12883561195E+03  0.15858161805E+03  0.79995188515E+02 0.  0.
          5    1    3    3  501    0  0.54709793132E+02  0.43192007241E+02  0.31104208485E+01  0.69931935994E+02  0.47000000000E+01 0. -1.
        -11    1    4    4    0    0 -0.22227450659E+02  0.39473411792E+02  0.39258818868E+01  0.45471115556E+02  0.00000000000E+00 0.  1.
         12    1    4    4    0    0 -0.33997799911E+02  0.25120118405E+02  0.11542641698E+03  0.12292326258E+03  0.00000000000E+00 0. -1.
         -5    1    5    5    0  502 -0.41796617421E+02 -0.91222063697E+02  0.61135298119E+02  0.11759267328E+03  0.47000000000E+01 0.  1.
         13    1    6    6    0    0  0.19831452226E+01  0.28324745529E+02  0.23533573767E+02  0.36878898690E+02  0.00000000000E+00 0. -1.
        -14    1    6    6    0    0  0.41328929636E+02 -0.44888219271E+02  0.10530203818E+03  0.12170271936E+03  0.00000000000E+00 0.  1.
</event>
<event>
12    1  0.8421768E-002  0.1921643E+03  0.7818608E-02  0.1157364E+00
         21   -1    0    0  503  502  0.00000000000E+00  0.00000000000E+00  0.36755347573E+03  0.36755347573E+03  0.00000000000E+00 0.  1.
         21   -1    0    0  501  503 -0.00000000000E+00 -0.00000000000E+00 -0.16698592487E+03  0.16698592487E+03  0.00000000000E+00 0. -1.
          6    2    1    2  501    0 -0.67081846591E+02 -0.42535817249E+02 -0.70266505037E+02  0.20460812837E+03  0.17497952616E+03 0.  0.
         24    2    3    3    0    0 -0.81402367831E+02 -0.87279031368E+02 -0.58918803661E+02  0.15604998935E+03  0.81462868515E+02 0.  0.
         -6    2    1    2    0  502  0.67081846591E+02  0.42535817249E+02  0.27083405590E+03  0.32993127223E+03  0.17086336258E+03 0.  0.
        -24    2    5    5    0    0 -0.12676721772E-01  0.43135219719E+02  0.23841690347E+03  0.25526537564E+03  0.80356361301E+02 0.  0.
          5    1    3    3  501    0  0.14320521240E+02  0.44743214120E+02 -0.11347701376E+02  0.48558139018E+02  0.47000000000E+01 0. -1.
        -13    1    4    4    0    0  0.44899364444E+00 -0.15236452666E+02  0.17265784382E+02  0.23031682428E+02  0.00000000000E+00 0.  1.
         14    1    4    4    0    0 -0.81851361476E+02 -0.72042578702E+02 -0.76184588043E+02  0.13301830692E+03  0.00000000000E+00 0. -1.
         -5    1    5    5    0  502  0.67094523313E+02 -0.59940247013E+00  0.32417152430E+02  0.74665896590E+02  0.47000000000E+01 0.  1.
         11    1    6    6    0    0  0.21277177218E+02  0.76190248649E+01  0.12990998806E+02  0.26067870266E+02  0.00000000000E+00 0. -1.
        -12    1    6    6    0    0 -0.21289853940E+02  0.35516194854E+02  0.22542590466E+03  0.22919750537E+03  0.00000000000E+00 0.  1.
</event>
<event>
12    1  0.8421768E-002  0.3348779E+03  0.7818608E-02  0.1069114E+00
         21   -1    0    0  503  502  0.00000000000E+00  0.00000000000E+00  0.12012301601E+03  0.12012301601E+03  0.00000000000E+00 0.  1.
         21   -1    0    0  501  503 -0.00000000000E+00 -0.00000000000E+00 -0.12488707581E+04  0.12488707581E+04  0.00000000000E+00 0. -1.
          6    2    1    2  501    0 -0.13456854261E+03 -0.25372415445E+03 -0.91058888302E+03  0.97021404968E+03  0.17221657613E+03 0.  0.
         24    2    3    3    0    0 -0.45712921139E+02 -0.17047860015E+03 -0.38938565201E+03  0.43495706299E+03  0.80086430734E+02 0.  0.
         -6    2    1    2    0  502  0.13456854261E+03  0.25372415445E+03 -0.21815885902E+03  0.39877972439E+03  0.17013918304E+03 0.  0.
        -24    2    5    5    0    0  0.84143284635E+02  0.22322099318E+03 -0.10798626042E+03  0.27374676485E+03  0.79803224760E+02 0.  0.
          5    1    3    3  501    0 -0.88855621475E+02 -0.83245554306E+02 -0.52120323101E+03  0.53525698668E+03  0.47000000000E+01 0. -1.
        -13    1    4    4    0    0 -0.24545178588E+02 -0.20709689088E+02 -0.25904887361E+02  0.41260395093E+02  0.00000000000E+00 0.  1.
         14    1    4    4    0    0 -0.21167742551E+02 -0.14976891106E+03 -0.36348076465E+03  0.39369666790E+03  0.00000000000E+00 0. -1.
         -5    1    5    5    0  502  0.50425257980E+02  0.30503161275E+02 -0.11017259860E+03  0.12503295954E+03  0.47000000000E+01 0.  1.
         13    1    6    6    0    0 -0.12613276716E+02  0.16084499360E+02 -0.20527030832E+02  0.28968342444E+02  0.00000000000E+00 0. -1.
        -14    1    6    6    0    0  0.96756561351E+02  0.20713649382E+03 -0.87459229587E+02  0.24477842240E+03  0.00000000000E+00 0.  1.
</event>
<event>
12    1  0.8421768E-002  0.1866825E+03  0.7818608E-02  0.1164197E+00
         21   -1    0    0  503  502  0.00000000000E+00  0.00000000000E+00  0.14635899333E+03  0.14635899333E+03  0.00000000000E+00 0. -1.
         21   -1    0    0  501  503 -0.00000000000E+00 -0.00000000000E+00 -0.27369117467E+03  0.27369117467E+03  0.00000000000E+00 0.  1.
          6    2    1    2  501    0 -0.40432618315E+02  0.16223774006E+02 -0.15488456463E+03  0.24256874780E+03  0.18152785346E+03 0.  0.
         24    2    3    3    0    0 -0.26181976564E+01  0.29762660029E+02 -0.17679355589E+03  0.19657607727E+03  0.80582391754E+02 0.  0.
         -6    2    1    2    0  502  0.40432618315E+02 -0.16223774006E+02  0.27552383291E+02  0.17748142019E+03  0.16983083708E+03 0.  0.
        -24    2    5    5    0    0  0.62423788435E+02 -0.29204630797E+02  0.70888199679E+02  0.12696214478E+03  0.79653057257E+02 0.  0.
          5    1    3    3  501    0 -0.37814420659E+02 -0.13538886024E+02  0.21908991258E+02  0.45992670530E+02  0.47000000000E+01 0. -1.
        -13    1    4    4    0    0  0.16625317818E+02  0.50286741029E+02 -0.81348704312E+02  0.97070949357E+02  0.00000000000E+00 0.  1.
         14    1    4    4    0    0 -0.19243515475E+02 -0.20524081000E+02 -0.95444851575E+02  0.99505127913E+02  0.00000000000E+00 0. -1.
         -5    1    5    5    0  502 -0.21991170120E+02  0.12980856792E+02 -0.43335816388E+02  0.50519275414E+02  0.47000000000E+01 0.  1.
         13    1    6    6    0    0  0.39628500106E+02  0.24144204898E+02  0.39846953723E+02  0.61164862232E+02  0.00000000000E+00 0. -1.
        -14    1    6    6    0    0  0.22795288329E+02 -0.53348835695E+02  0.31041245957E+02  0.65797282547E+02  0.00000000000E+00 0.  1.
</event>
<event>
12    1  0.8421768E-002  0.2187065E+03  0.7818608E-02  0.1135047E+00
         21   -1    0    0  501  502  0.00000000000E+00  0.00000000000E+00  0.45503500624E+03  0.45503500624E+03  0.00000000000E+00 0.  1.
         21   -1    0    0  502  503 -0.00000000000E+00 -0.00000000000E+00 -0.40518628149E+03  0.40518628149E+03  0.00000000000E+00 0. -1.
         -6    2    1    2    0  503  0.31649786397E+02 -0.13009949448E+03 -0.34550438278E+03  0.40890805026E+03  0.17293041261E+03 0.  0.
        -24    2    3    3    0    0 -0.19853475662E+02 -0.58957768830E+02 -0.28266571675E+03  0.30081309626E+03  0.81966044537E+02 0.  0.
          6    2    1    2  501    0 -0.31649786397E+02  0.13009949448E+03  0.39535310754E+03  0.45131323747E+03  0.17161576626E+03 0.  0.
         24    2    5    5    0    0 -0.42179323330E+02  0.16133309105E+03  0.33273931927E+03  0.38039789933E+03  0.78610722150E+02 0.  0.
          5    1    5    5  501    0  0.10529536932E+02 -0.31233596567E+02  0.62613788266E+02  0.70915338140E+02  0.47000000000E+01 0. -1.
        -11    1    6    6    0    0  0.22752052101E+01  0.45411163987E+02  0.16841687216E+03  0.17444653393E+03  0.00000000000E+00 0.  1.
         12    1    6    6    0    0 -0.44454528540E+02  0.11592192706E+03  0.16432244711E+03  0.20595136539E+03  0.00000000000E+00 0. -1.
         -5    1    3    3    0  503  0.51503262060E+02 -0.71141725652E+02 -0.62838666036E+02  0.10809495400E+03  0.47000000000E+01 0.  1.
         11    1    4    4    0    0  0.10088422386E+02 -0.44725640172E+02 -0.25035934574E+03  0.25452300712E+03  0.00000000000E+00 0. -1.
        -12    1    4    4    0    0 -0.29941898048E+02 -0.14232128658E+02 -0.32306371006E+02  0.46290089138E+02  0.00000000000E+00 0.  1.
</event>
<event>
12    1  0.8421768E-002  0.3124223E+03  0.7818608E-02  0.1079257E+00
         21   -1    0    0  501  502  0.00000000000E+00  0.00000000000E+00  0.68478801433E+03  0.68478801433E+03  0.00000000000E+00 0. -1.
         21   -1    0    0  502  503 -0.00000000000E+00 -0.00000000000E+00 -0.48094856428E+03  0.48094856428E+03  0.00000000000E+00 0. -1.
         -6    2    1    2    0  503  0.24235497560E+03  0.96558425722E+02 -0.38716380987E+03  0.49749725563E+03  0.17189601482E+03 0.  0.
        -24    2    3    3    0    0  0.42472304693E+02  0.24772391313E+01 -0.88939566564E+02  0.12633133438E+03  0.78989405411E+02 0.  0.
          6    2    1    2  501    0 -0.24235497560E+03 -0.96558425722E+02  0.59100325993E+03  0.66823932298E+03  0.17087854094E+03 0.  0.
         24    2    5    5    0    0 -0.58628760740E+02 -0.14879733011E+02  0.12791510052E+03  0.16336363110E+03  0.81649647788E+02 0.  0.
          5    1    5    5  501    0 -0.18372621486E+03 -0.81678692710E+02  0.46308815941E+03  0.50487569188E+03  0.47000000000E+01 0. -1.
        -11    1    6    6    0    0 -0.30852172310E+02  0.14606341745E+02  0.56970510210E+01  0.34607197889E+02  0.00000000000E+00 0.  1.
         12    1    6    6    0    0 -0.27776588430E+02 -0.29486074756E+02  0.12221804950E+03  0.12875643321E+03  0.00000000000E+00 0. -1.
         -5    1    3    3    0  503  0.19988267090E+03  0.94081186590E+02 -0.29822424331E+03  0.37116592125E+03  0.47000000000E+01 0.  1.
         11    1    4    4    0    0  0.39216691348E+02  0.11739028283E+02 -0.10204899030E+03  0.10995339962E+03  0.00000000000E+00 0. -1.
        -12    1    4    4    0    0  0.32556133451E+01 -0.92617891516E+01  0.13109423738E+02  0.16377934769E+02  0.00000000000E+00 0.  1.
</event>
<event>
12    1  0.8421768E-002  0.2537255E+03  0.7818608E-02  0.1111104E+00
         21   -1    0    0  501  502  0.00000000000E+00  0.00000000000E+00  0.58945624696E+03  0.58945624696E+03  0.00000000000E+00 0. -1.
         21   -1    0    0  502  503 -0.00000000000E+00 -0.00000000000E+00 -0.13779109797E+03  0.13779109797E+03  0.00000000000E+00 0.  1.
         -6    2    1    2    0  503 -0.17433097971E+03  0.65269894242E+02  0.58885798434E+02  0.25964467146E+03  0.17116181986E+03 0.  0.
        -24    2    3    3    0    0 -0.76885320422E+02 -0.25007735609E+02  0.50892775805E+02  0.12648429681E+03  0.82894290353E+02 0.  0.
          6    2    1    2  501    0  0.17433097971E+03 -0.65269894242E+02  0.39277935056E+03  0.46760267347E+03  0.17240995454E+03 0.  0.
         24    2    5    5    0    0  0.15127133214E+03 -0.86792456569E+02  0.21980695753E+03  0.29171490589E+03  0.79790609042E+02 0.  0.
          5    1    5    5  501    0  0.23059647571E+02  0.21522562327E+02  0.17297239302E+03  0.17588776758E+03  0.47000000000E+01 0. -1.
        -13    1    6    6    0    0  0.13684754880E+03 -0.47375183860E+02  0.13937756407E+03  0.20099195264E+03  0.00000000000E+00 0.  1.
         14    1    6    6    0    0  0.14423783341E+02 -0.39417272710E+02  0.80429393461E+02  0.90722953249E+02  0.00000000000E+00 0. -1.
         -5    1    3    3    0  503 -0.97445659292E+02  0.90277629851E+02  0.79930226293E+01  0.13316037465E+03  0.47000000000E+01 0.  1.
         13    1    4    4    0    0 -0.69814950700E+02 -0.52429740793E+02  0.41296856389E+02  0.96583825812E+02  0.00000000000E+00 0. -1.
        -14    1    4    4    0    0 -0.70703697219E+01  0.27422005184E+02  0.95959194158E+01  0.29900470996E+02  0.00000000000E+00 0.  1.
</event>
<event>
12    1  0.8421768E-002  0.1747289E+03  0.7818608E-02  0.1174067E+00
         21   -1    0    0  501  502  0.00000000000E+00  0.00000000000E+00  0.28251988669E+03  0.28251988669E+03  0.00000000000E+00 0.  1.
         21   -1    0    0  502  503 -0.00000000000E+00 -0.00000000000E+00 -0.32761014173E+03  0.32761014173E+03  0.00000000000E+00 0.  1.
         -6    2    1    2    0  503  0.89434558650E+01 -0.26900859265E+02 -0.27363924429E+03  0.32244128695E+03  0.16818533195E+03 0.  0.
        -24    2    3    3    0    0  0.70770406399E+02 -0.14939318273E+02 -0.18200751278E+03  0.21115735058E+03  0.78924383705E+02 0.  0.
          6    2    1    2  501    0 -0.89434558650E+01  0.26900859265E+02  0.22854898925E+03  0.28768874147E+03  0.17241383313E+03 0.  0.
         24    2    5    5    0    0  0.32314181030E+02  0.27512635125E+02  0.22893954608E+03  0.24615791670E+03  0.79870224787E+02 0.  0.
          5    1    5    5  501    0 -0.41257636895E+02 -0.61177585993E+00 -0.39055683220E+00  0.41530824775E+02  0.47000000000E+01 0. -1.
        -13    1    6    6    0    0  0.16759099211E+02  0.62639493760E+01  0.21613833339E+03  0.21687757751E+03  0.00000000000E+00 0.  1.
         14    1    6    6    0    0  0.15555081819E+02  0.21248685749E+02  0.12801212690E+02  0.29280339185E+02  0.00000000000E+00 0. -1.
         -5    1    3    3    0  503 -0.61826950534E+02 -0.11961540992E+02 -0.91631731510E+02  0.11128393637E+03  0.47000000000E+01 0.  1.
         13    1    4    4    0    0  0.66523601768E+01  0.26232795938E+02 -0.25968537362E+02  0.37507044823E+02  0.00000000000E+00 0. -1.
        -14    1    4    4    0    0  0.64118046223E+02 -0.41172114211E+02 -0.15603897541E+03  0.17365030575E+03  0.00000000000E+00 0.  1.
</event>
<event>
12    1  0.8421768E-002  0.1780109E+03  0.7818608E-02  0.1169914E+00
         21   -1    0    0  501  502  0.00000000000E+00  0.00000000000E+00  0.69847867611E+03  0.69847867611E+03  0.00000000000E+00 0. -1.
         21   -1    0    0  502  503 -0.00000000000E+00 -0.00000000000E+00 -0.45857452037E+03  0.45857452037E+03  0.00000000000E+00 0. -1.
         -6    2    1    2    0  503 -0.15276369886E+02 -0.39663870715E+02 -0.42930706196E+03  0.46474987792E+03  0.17286209956E+03 0.  0.
        -24    2    3    3    0    0 -0.62083880210E+02 -0.37212286106E+02 -0.20329268085E+03  0.23387860695E+03  0.90178302739E+02 0.  0.
          6    2    1    2  501    0  0.15276369886E+02  0.39663870715E+02  0.66921121770E+03  0.69230331856E+03  0.17214424439E+03 0.  0.
         24    2    5    5    0    0  0.22005785018E+02  0.58024722387E+01  0.14799404174E+03  0.16992288837E+03  0.80334477912E+02 0.  0.
          5    1    5    5  501    0 -0.67294151311E+01  0.33861398476E+02  0.52121717596E+03  0.52238043019E+03  0.47000000000E+01 0. -1.
        -13    1    6    6    0    0  0.50527113932E+02  0.16302429849E+02  0.92775033980E+02  0.10689230745E+03  0.00000000000E+00 0.  1.
         14    1    6    6    0    0 -0.28521328915E+02 -0.10499957611E+02  0.55219007761E+02  0.63030580919E+02  0.00000000000E+00 0. -1.
         -5    1    3    3    0  503  0.46807510323E+02 -0.24515846086E+01 -0.22601438111E+03  0.23087127097E+03  0.47000000000E+01 0.  1.
         13    1    4    4    0    0 -0.72203987183E+02 -0.33419123367E+02 -0.20753866338E+03  0.22226684497E+03  0.00000000000E+00 0. -1.
        -14    1    4    4    0    0  0.10120106973E+02 -0.37931627390E+01  0.42459825375E+01  0.11611761986E+02  0.00000000000E+00 0.  1.
</event>
<event>
12    1  0.8421768E-002  0.1931104E+03  0.7818608E-02  0.1155705E+00
         21   -1    0    0  503  502  0.00000000000E+00  0.00000000000E+00  0.35510497647E+02  0.35510497647E+02  0.00000000000E+00 0.  1.
         21   -1    0    0  501  503 -0.00000000000E+00 -0.00000000000E+00 -0.11838244564E+04  0.11838244564E+04  0.00000000000E+00 0.  1.
          6    2    1    2  501    0 -0.80586113830E+02 -0.33443910542E+02 -0.36904001255E+03  0.41651190380E+03  0.17227599441E+03 0.  0.
         24    2    3    3    0    0 -0.20732151444E+02 -0.61061232716E+02 -0.31449201634E+03  0.33082183910E+03  0.79872176891E+02 0.  0.
         -6    2    1    2    0  502  0.80586113830E+02  0.33443910542E+02 -0.77927394625E+03  0.80282305029E+03  0.17217534634E+03 0.  0.
        -24    2    5    5    0    0  0.60736421358E+02 -0.42163950196E+02 -0.55910451837E+03  0.56914115997E+03  0.76531600834E+02 0.  0.
          5    1    3    3  501    0 -0.59853962386E+02  0.27617322174E+02 -0.54547996214E+02  0.85690064700E+02  0.47000000000E+01 0. -1.
        -11    1    4    4    0    0 -0.17374877238E+02 -0.23117742389E+02 -0.27287893673E+03  0.27440705254E+03  0.00000000000E+00 0.  1.
         12    1    4    4    0    0 -0.33572742060E+01 -0.37943490327E+02 -0.41613079607E+02  0.56414786560E+02  0.00000000000E+00 0. -1.
         -5    1    5    5    0  502  0.19849692472E+02  0.75607860737E+02 -0.22016942787E+03  0.23368189033E+03  0.47000000000E+01 0.  1.
         11    1    6    6    0    0  0.42033357568E+02 -0.18646081836E+02 -0.50631526342E+03  0.50839908093E+03  0.00000000000E+00 0. -1.
        -12    1    6    6    0    0  0.18703063790E+02 -0.23517868360E+02 -0.52789254953E+02  0.60742079038E+02  0.00000000000E+00 0.  1.
</event>
<event>
12    1  0.8421768E-002  0.1774334E+03  0.7818608E-02  0.1170603E+00
         21   -1    0    0  503  502  0.00000000000E+00  0.00000000000E+00  0.26967255008E+03  0.26967255008E+03  0.00000000000E+00 0.  1.
         21   -1    0    0  501  503 -0.00000000000E+00 -0.00000000000E+00 -0.11661822511E+03  0.11661822511E+03  0.00000000000E+00 0.  1.
          6    2    1    2  501    0 -0.30729868684E+02 -0.27738878107E+02  0.90695924055E+02  0.19821845323E+03  0.17132143583E+03 0.  0.
         24    2    3    3    0    0 -0.26451482580E+02  0.28687373755E+02  0.10771507322E+03  0.13893972243E+03  0.78607017034E+02 0.  0.
         -6    2    1    2    0  502  0.30729868684E+02  0.27738878107E+02  0.62358400916E+02  0.18807232196E+03  0.17253654086E+03 0.  0.
        -24    2    5    5    0    0  0.18461837692E+01  0.81959510179E+02  0.36290544245E+02  0.12117114597E+03  0.81514865584E+02 0.  0.
          5    1    3    3  501    0 -0.42783861040E+01 -0.56426251862E+02 -0.17019149168E+02  0.59278730800E+02  0.47000000000E+01 0. -1.
        -13    1    4    4    0    0 -0.41023834560E+02 -0.88794120789E+01  0.30639910164E+02  0.51967326810E+02  0.00000000000E+00 0.  1.
         14    1    4    4    0    0  0.14572351980E+02  0.37566785834E+02  0.77075163059E+02  0.86972395624E+02  0.00000000000E+00 0. -1.
         -5    1    5    5    0  502  0.28883684914E+02 -0.54220632072E+02  0.26067856671E+02  0.66901175983E+02  0.47000000000E+01 0.  1.
         13    1    6    6    0    0 -0.19565003919E+02  0.78112813496E+02  0.50626644092E+02  0.95118127098E+02  0.00000000000E+00 0. -1.
        -14    1    6    6    0    0  0.21411187688E+02  0.38466966830E+01 -0.14336099848E+02  0.26053018873E+02  0.00000000000E+00 0.  1.
</event>
<event>
12    1  0.8421768E-002  0.2402169E+03  0.7818608E-02  0.1119789E+00
         21   -1    0    0  501  502  0.00000000000E+00  0.00000000000E+00  0.38881443343E+03  0.38881443343E+03  0.00000000000E+00 0. -1.
         21   -1    0    0  502  503 -0.00000000000E+00 -0.00000000000E+00 -0.22096539231E+03  0.22096539231E+03  0.00000000000E+00 0.  1.
         -6    2    1    2    0  503 -0.15743425881E+03 -0.56874588642E+02 -0.91311662396E+02  0.25698635197E+03  0.17229016434E+03 0.  0.
        -24    2    3    3    0    0 -0.87447397229E+01 -0.24591659882E+01 -0.46503019276E+02  0.92367046275E+02  0.79288224003E+02 0.  0.
          6    2    1    2  501    0  0.15743425881E+03  0.56874588642E+02  0.25916070352E+03  0.35279347378E+03  0.17111019904E+03 0.  0.
         24    2    5    5    0    0  0.96571067538E+02  0.35110996066E+01  0.63220358570E+02  0.14073994565E+03  0.80452592615E+02 0.  0.
          5    1    5    5  501    0  0.60863191269E+02  0.53363489036E+02  0.19594034495E+03  0.21205352813E+03  0.47000000000E+01 0. -1.
        -13    1    6    6    0    0  0.27954806547E+02 -0.52920046964E+01 -0.18295713087E+02  0.33826167979E+02  0.00000000000E+00 0.  1.
         14    1    6    6    0    0  0.68616260991E+02  0.88031043030E+01  0.81516071657E+02  0.10691377767E+03  0.00000000000E+00 0. -1.
         -5    1    3    3    0  503 -0.14868951908E+03 -0.54415422654E+02 -0.44808643120E+02  0.16461930569E+03  0.47000000000E+01 0.  1.
         11    1    4    4    0    0  0.11842792603E+02  0.18790049498E+02  0.13127361364E+02  0.25800102967E+02  0.00000000000E+00 0. -1.
        -12    1    4    4    0    0 -0.20587532325E+02 -0.21249215486E+02 -0.59630380640E+02  0.66566943307E+02  0.00000000000E+00 0.  1.
</event>
<event>
12    1  0.8421768E-002  0.1938143E+03  0.7818608E-02  0.1155181E+00
         21   -1    0    0  501  502  0.00000000000E+00  0.00000000000E+00  0.17372795928E+03  0.17372795928E+03  0.00000000000E+00 0. -1.
         21   -1    0    0  502  503 -0.00000000000E+00 -0.00000000000E+00 -0.21952056881E+03  0.21952056881E+03  0.00000000000E+00 0. -1.
         -6    2    1    2    0  503  0.33766637185E+00  0.89499010108E+02  0.32817330414E+01  0.19331788156E+03  0.17132088820E+03 0.  0.
        -24    2    3    3    0    0  0.69332194501E+02  0.55284586526E+02 -0.19526389920E+01  0.11598509199E+03  0.74735467237E+02 0.  0.
          6    2    1    2  501    0 -0.33766637185E+00 -0.89499010108E+02 -0.49074342575E+02  0.19993064653E+03  0.17191214470E+03 0.  0.
         24    2    5    5    0    0 -0.66196140925E+02 -0.61473844668E+02 -0.45539902416E+02  0.12811608787E+03  0.78605894230E+02 0.  0.
          5    1    5    5  501    0  0.65858474553E+02 -0.28025165440E+02 -0.35344401594E+01  0.71814558661E+02  0.47000000000E+01 0. -1.
        -13    1    6    6    0    0  0.13867474710E+02 -0.58600636898E+01  0.78404770136E+01  0.16974106193E+02  0.00000000000E+00 0.  1.
         14    1    6    6    0    0 -0.80063615634E+02 -0.55613780978E+02 -0.53380379429E+02  0.11114198168E+03  0.00000000000E+00 0. -1.
         -5    1    3    3    0  503 -0.68994528130E+02  0.34214423582E+02  0.52343720334E+01  0.77332789575E+02  0.47000000000E+01 0.  1.
         13    1    4    4    0    0 -0.29965384412E+01  0.41748155800E+02  0.46092265884E+01  0.42108582558E+02  0.00000000000E+00 0. -1.
        -14    1    4    4    0    0  0.72328732943E+02  0.13536430726E+02 -0.65618655805E+01  0.73876509431E+02  0.00000000000E+00 0.  1.
</event>
<event>
12    1  0.8421768E-002  0.1833073E+03  0.7818608E-02  0.1165250E+00
         21   -1    0    0  503  502  0.00000000000E+00  0.00000000000E+00  0.12399333004E+03  0.12399333004E+03  0.00000000000E+00 0.  1.
         21   -1    0    0  501  503 -0.00000000000E+00 -0.00000000000E+00 -0.34857880347E+03  0.34857880347E+03  0.00000000000E+00 0.  1.
          6    2    1    2  501    0  0.55194064516E+02 -0.98135912361E+01 -0.22583942970E+03  0.28926056666E+03  0.17182996272E+03 0.  0.
         24    2    3    3    0    0  0.59556795776E+02 -0.34834137630E+02 -0.23800186119E+03  0.26071103241E+03  0.81024239734E+02 0.  0.
         -6    2    1    2    0  502 -0.55194064516E+02  0.98135912361E+01  0.12539562664E+01  0.18331156686E+03  0.17452468824E+03 0.  0.
        -24    2    5    5    0    0 -0.85332279328E+02 -0.24452923329E+02  0.40180620326E+02  0.12314611841E+03  0.75305649684E+02 0.  0.
          5    1    3    3  501    0 -0.43627312598E+01  0.25020546394E+02  0.12162431493E+02  0.28549534247E+02  0.47000000000E+01 0. -1.
        -11    1    4    4    0    0  0.31776491193E+02 -0.39772093143E+02 -0.52696966060E+02  0.73270287412E+02  0.00000000000E+00 0.  1.
         12    1    4    4    0    0  0.27780304583E+02  0.49379555134E+01 -0.18530489513E+03  0.18744074500E+03  0.00000000000E+00 0. -1.
         -5    1    5    5    0  502  0.30138214812E+02  0.34266514565E+02 -0.38926664060E+02  0.60165448451E+02  0.47000000000E+01 0.  1.
         13    1    6    6    0    0 -0.16221088815E+02 -0.40195862334E+02  0.39043613404E+01  0.43520973204E+02  0.00000000000E+00 0. -1.
        -14    1    6    6    0    0 -0.69111190513E+02  0.15742939005E+02  0.36276258986E+02  0.79625145203E+02  0.00000000000E+00 0.  1.
</event>
<event>
12    1  0.8421768E-002  0.1826333E+03  0.7818608E-02  0.1165329E+00
         21   -1    0    0  501  502  0.00000000000E+00  0.00000000000E+00  0.18913992452E+03  0.18913992452E+03  0.00000000000E+00 0.  1.
         21   -1    0    0  502  503 -0.00000000000E+00 -0.00000000000E+00 -0.17869532958E+03  0.17869532958E+03  0.00000000000E+00 0. -1.
         -6    2    1    2    0  503 -0.38358541707E+02  0.47152786516E+02  0.27190071108E+02  0.18464617114E+03  0.17222121110E+03 0.  0.
        -24    2    3    3    0    0 -0.71253748568E-01  0.92379658065E+02  0.27238193614E+02  0.12520310052E+03  0.79999318037E+02 0.  0.
          6    2    1    2  501    0  0.38358541707E+02 -0.47152786516E+02 -0.16745476160E+02  0.18318908296E+03  0.17199728529E+03 0.  0.
         24    2    5    5    0    0  0.77405580459E+02  0.77027164567E+01  0.96748360433E+01  0.11070515137E+03  0.78173348151E+02 0.  0.
          5    1    5    5  501    0 -0.39047038752E+02 -0.54855502972E+02 -0.26420312204E+02  0.72483931589E+02  0.47000000000E+01 0. -1.
        -13    1    6    6    0    0  0.83041296958E+01  0.12882473022E+02  0.33975324370E+02  0.37272501220E+02  0.00000000000E+00 0.  1.
         14    1    6    6    0    0  0.69101450763E+02 -0.51797565650E+01 -0.24300488327E+02  0.73432650153E+02  0.00000000000E+00 0. -1.
         -5    1    3    3    0  503 -0.38287287958E+02 -0.45226871549E+02 -0.48122505534E-01  0.59443070623E+02  0.47000000000E+01 0.  1.
         13    1    4    4    0    0  0.11809006195E+02 -0.52141785516E+01 -0.13594037976E+02  0.18746683808E+02  0.00000000000E+00 0. -1.
        -14    1    4    4    0    0 -0.11880259944E+02  0.97593836617E+02  0.40832231590E+02  0.10645641671E+03  0.00000000000E+00 0.  1.
</event>
<event>
12    1  0.8421768E-002  0.1977994E+03  0.7818608E-02  0.1153337E+00
         21   -1    0    0  501  502  0.00000000000E+00  0.00000000000E+00  0.35772544641E+03  0.35772544641E+03  0.00000000000E+00 0. -1.
         21   -1    0    0  502  503 -0.00000000000E+00 -0.00000000000E+00 -0.10773022228E+03  0.10773022228E+03  0.00000000000E+00 0. -1.
         -6    2    1    2    0  503 -0.41425437432E+01 -0.96631267696E+02  0.90746997718E+02  0.21762265396E+03  0.17253938494E+03 0.  0.
        -24    2    3    3    0    0 -0.22373474120E+02 -0.12444571487E+03  0.35866699904E+02  0.15328023107E+03  0.78873955021E+02 0.  0.
          6    2    1    2  501    0  0.41425437432E+01  0.96631267696E+02  0.15924822642E+03  0.24783301474E+03  0.16342106049E+03 0.  0.
         24    2    5    5    0    0 -0.33925031283E+02  0.45641684315E+00  0.52336948576E+02  0.99001386597E+02  0.76883042981E+02 0.  0.
          5    1    5    5  501    0  0.38067575026E+02  0.96174850853E+02  0.10691127784E+03  0.14883162814E+03  0.47000000000E+01 0. -1.
        -11    1    6    6    0    0  0.78181835775E+01 -0.16654603531E+02  0.50614187489E+02  0.53854394328E+02  0.00000000000E+00 0.  1.
         12    1    6    6    0    0 -0.41743214860E+02  0.17111020375E+02  0.17227610863E+01  0.45146992268E+02  0.00000000000E+00 0. -1.
         -5    1    3    3    0  503  0.18230930377E+02  0.27814447179E+02  0.54880297814E+02  0.64342422883E+02  0.47000000000E+01 0.  1.
         13    1    4    4    0    0  0.21221018612E+02 -0.64304957769E+02  0.40419188328E+02  0.78861714474E+02  0.00000000000E+00 0. -1.
        -14    1    4    4    0    0 -0.43594492733E+02 -0.60140757106E+02 -0.45524884235E+01  0.74418516598E+02  0.00000000000E+00 0.  1.
</event>
<event>
12    1  0.8421768E-002  0.2406305E+03  0.7818608E-02  0.1119769E+00
         21   -1    0    0  501  502  0.00000000000E+00  0.00000000000E+00  0.49606084601E+02  0.49606084601E+02  0.00000000000E+00 0.  1.
         21   -1    0    0  502  503 -0.00000000000E+00 -0.00000000000E+00 -0.30704812320E+04  0.30704812320E+04  0.00000000000E+00 0. -1.
         -6    2    1    2    0  503  0.59136256796E+02  0.15685128560E+03 -0.27451710982E+04  0.27556972610E+04  0.17263723069E+03 0.  0.
        -24    2    3    3    0    0  0.10411119795E+03  0.14798494706E+03 -0.22110432859E+04  0.22195853631E+04  0.71470872646E+02 0.  0.
          6    2    1    2  501    0 -0.59136256796E+02 -0.15685128560E+03 -0.27570404924E+03  0.36439005560E+03  0.16931617523E+03 0.  0.
         24    2    5    5    0    0 -0.87609481765E+02 -0.62425431594E+02 -0.19986494505E+03  0.23988854489E+03  0.77641238430E+02 0.  0.
          5    1    5    5  501    0  0.28473224969E+02 -0.94425854009E+02 -0.75839104182E+02  0.12450151071E+03  0.47000000000E+01 0. -1.
        -13    1    6    6    0    0 -0.46633572432E+02 -0.76147109809E+02 -0.14016522211E+03  0.16619073951E+03  0.00000000000E+00 0.  1.
         14    1    6    6    0    0 -0.40975909333E+02  0.13721678214E+02 -0.59699722942E+02  0.73697805382E+02  0.00000000000E+00 0. -1.
         -5    1    3    3    0  503 -0.44974941155E+02  0.88663385397E+01 -0.53412781227E+03  0.53611189796E+03  0.47000000000E+01 0.  1.
         13    1    4    4    0    0  0.84371940544E+02  0.58340341522E+02 -0.12134087154E+04  0.12177368067E+04  0.00000000000E+00 0. -1.
        -14    1    4    4    0    0  0.19739257407E+02  0.89644605542E+02 -0.99763457050E+03  0.10018485563E+04  0.00000000000E+00 0.  1.
</event>
<event>
12    1  0.8421768E-002  0.1914429E+03  0.7818608E-02  0.1157505E+00
         21   -1    0    0  501  502  0.00000000000E+00  0.00000000000E+00  0.69629564211E+02  0.69629564211E+02  0.00000000000E+00 0. -1.
         21   -1    0    0  502  503 -0.00000000000E+00 -0.00000000000E+00 -0.53690283092E+03  0.53690283092E+03  0.00000000000E+00 0. -1.
         -6    2    1    2    0  503  0.35868258589E+02 -0.73083840287E+02 -0.28468192892E+03  0.34306584117E+03  0.17327028321E+03 0.  0.
        -24    2    3    3    0    0  0.50506283206E+02 -0.10195461244E+03 -0.27617217959E+03  0.30926792581E+03  0.80186965975E+02 0.  0.
          6    2    1    2  501    0 -0.35868258589E+02  0.73083840287E+02 -0.18259133779E+03  0.26346655396E+03  0.17160200678E+03 0.  0.
         24    2    5    5    0    0 -0.80340643673E+02  0.49777882390E+02 -0.79966306623E+02  0.14912081625E+03  0.83126115293E+02 0.  0.
          5    1    5    5  501    0  0.44472385084E+02  0.23305957897E+02 -0.10262503117E+03  0.11434573770E+03  0.47000000000E+01 0. -1.
        -11    1    6    6    0    0 -0.72911152600E+02  0.10786531986E+02 -0.80869312078E+02  0.10941769090E+03  0.00000000000E+00 0.  1.
         12    1    6    6    0    0 -0.74294910722E+01  0.38991350403E+02  0.90300545533E+00  0.39703125352E+02  0.00000000000E+00 0. -1.
         -5    1    3    3    0  503 -0.14638024617E+02  0.28870772153E+02 -0.85097493220E+01  0.33797915364E+02  0.47000000000E+01 0.  1.
         13    1    4    4    0    0 -0.73315745335E+01 -0.20894984989E+02 -0.13324472228E+03  0.13507223400E+03  0.00000000000E+00 0. -1.
        -14    1    4    4    0    0  0.57837857740E+02 -0.81059627452E+02 -0.14292745732E+03  0.17419569181E+03  0.00000000000E+00 0.  1.
</event>
<event>
12    1  0.8421768E-002  0.1999550E+03  0.7818608E-02  0.1149788E+00
         21   -1    0    0  501  502  0.00000000000E+00  0.00000000000E+00  0.51029485173E+03  0.51029485173E+03  0.00000000000E+00 0.  1.
         21   -1    0    0  502  503 -0.00000000000E+00 -0.00000000000E+00 -0.98569256914E+02  0.98569256914E+02  0.00000000000E+00 0. -1.
         -6    2    1    2    0  503 -0.78062720611E+02  0.64928285988E+02  0.67935287416E+02  0.21118050521E+03  0.17225716773E+03 0.  0.
        -24    2    3    3    0    0  0.15080166494E+02  0.69230410858E+02  0.29400214197E+02  0.11017977470E+03  0.79088235209E+02 0.  0.
          6    2    1    2  501    0  0.78062720611E+02 -0.64928285988E+02  0.34379030740E+03  0.39768360344E+03  0.17219466399E+03 0.  0.
         24    2    5    5    0    0  0.11406629822E+03 -0.19910847160E+02  0.26315342156E+03  0.29845041968E+03  0.80095989322E+02 0.  0.
          5    1    5    5  501    0 -0.36003577609E+02 -0.45017438827E+02  0.80636885847E+02  0.99233183755E+02  0.47000000000E+01 0. -1.
        -11    1    6    6    0    0  0.98366896537E+02 -0.26327994996E+01  0.12882018021E+03  0.16210372234E+03  0.00000000000E+00 0.  1.
         12    1    6    6    0    0  0.15699401682E+02 -0.17278047661E+02  0.13433324135E+03  0.13634669734E+03  0.00000000000E+00 0. -1.
         -5    1    3    3    0  503 -0.93142887105E+02 -0.43021248706E+01  0.38535073219E+02  0.10100073052E+03  0.47000000000E+01 0.  1.
         11    1    4    4    0    0  0.74824903941E+01 -0.87980083085E+01 -0.15887356795E+02  0.19641810472E+02  0.00000000000E+00 0. -1.
        -12    1    4    4    0    0  0.75976760996E+01  0.78028419167E+02  0.45287570992E+02  0.90537964226E+02  0.00000000000E+00 0.  1.
</event>
<event>
12    1  0.8421768E-002  0.2184358E+03  0.7818608E-02  0.1135906E+00
         21   -1    0    0  501  502  0.00000000000E+00  0.00000000000E+00  0.26356795848E+02  0.26356795848E+02  0.00000000000E+00 0. -1.
         21   -1    0    0  502  503 -0.00000000000E+00 -0.00000000000E+00 -0.24475819582E+04  0.24475819582E+04  0.00000000000E+00 0.  1.
         -6    2    1    2    0  503 -0.51194964420E+02  0.12175789086E+03 -0.18688559266E+04  0.18815782449E+04  0.17397789782E+03 0.  0.
        -24    2    3    3    0    0  0.17820157511E+02  0.11921699864E+03 -0.14516776070E+04  0.14586960113E+04  0.76784945211E+02 0.  0.
          6    2    1    2  501    0  0.51194964420E+02 -0.12175789086E+03 -0.55236923577E+03  0.59236050916E+03  0.16832495900E+03 0.  0.
         24    2    5    5    0    0  0.22020595643E+02 -0.15526562171E+02 -0.37164042943E+03  0.38065025804E+03  0.77794790285E+02 0.  0.
          5    1    5    5  501    0  0.29174368777E+02 -0.10623132869E+03 -0.18072880634E+03  0.21171025112E+03  0.47000000000E+01 0. -1.
        -13    1    6    6    0    0  0.18747148388E+02 -0.78916103748E+01 -0.37178588518E+03  0.37234188255E+03  0.00000000000E+00 0.  1.
         14    1    6    6    0    0  0.32734472556E+01 -0.76349517966E+01  0.14545574774E+00  0.83083754878E+01  0.00000000000E+00 0. -1.
         -5    1    3    3    0  503 -0.69015121931E+02  0.25408922248E+01 -0.41717831955E+03  0.42288223360E+03  0.47000000000E+01 0.  1.
         11    1    4    4    0    0  0.89148023788E+01  0.89782154816E+02 -0.62837119517E+03  0.63481545976E+03  0.00000000000E+00 0. -1.
        -12    1    4    4    0    0  0.89053551321E+01  0.29434843822E+02 -0.82330641184E+03  0.82388055151E+03  0.00000000000E+00 0.  1.
</event>
<event>
12    1  0.8421768E-002  0.2153155E+03  0.7818608E-02  0.1137497E+00
         21   -1    0    0  503  502  0.00000000000E+00  0.00000000000E+00  0.27438963923E+03  0.27438963923E+03  0.00000000000E+00 0. -1.
         21   -1    0    0  501  503 -0.00000000000E+00 -0.00000000000E+00 -0.24829238705E+03  0.24829238705E+03  0.00000000000E+00 0. -1.
          6    2    1    2  501    0 -0.32790479204E+02 -0.12539726529E+03 -0.13495912720E+03  0.25379561684E+03  0.17146008119E+03 0.  0.
         24    2    3    3    0    0  0.27978033573E+02 -0.91005791238E+02 -0.25643776176E+02  0.12399761376E+03  0.75186305676E+02 0.  0.
         -6    2    1    2    0  502  0.32790479204E+02  0.12539726529E+03  0.16105637938E+03  0.26888640945E+03  0.17193328410E+03 0.  0.
        -24    2    5    5    0    0 -0.40681897993E+02  0.67151122691E+02  0.12590973899E+03  0.16864580057E+03  0.80148946176E+02 0.  0.
          5    1    3    3  501    0 -0.60768512778E+02 -0.34391474053E+02 -0.10931535102E+03  0.12979800307E+03  0.47000000000E+01 0. -1.
        -11    1    4    4    0    0 -0.28003622067E+01 -0.30948850804E+01  0.19888035043E+02  0.20321276535E+02  0.00000000000E+00 0.  1.
         12    1    4    4    0    0  0.30778395780E+02 -0.87910906158E+02 -0.45531811219E+02  0.10367633723E+03  0.00000000000E+00 0. -1.
         -5    1    5    5    0  502  0.73472377198E+02  0.58246142600E+02  0.35146640384E+02  0.10024060888E+03  0.47000000000E+01 0.  1.
         11    1    6    6    0    0 -0.31873544389E+02  0.85486574177E+02  0.10937632501E+03  0.14243264257E+03  0.00000000000E+00 0. -1.
        -12    1    6    6    0    0 -0.88083536043E+01 -0.18335451486E+02  0.16533413985E+02  0.26213158002E+02  0.00000000000E+00 0.  1.
</event>
<event>
12    1  0.8421768E-002  0.1798316E+03  0.7818608E-02  0.1168540E+00
         21   -1    0    0  503  502  0.00000000000E+00  0.00000000000E+00  0.21261280020E+03  0.21261280020E+03  0.00000000000E+00 0.  1.
         21   -1    0    0  501  503 -0.00000000000E+00 -0.00000000000E+00 -0.24068881978E+03  0.24068881978E+03  0.00000000000E+00 0.  1.
          6    2    1    2  501    0  0.28077407160E+02 -0.39127865150E+02 -0.15312636179E+03  0.23619291309E+03  0.17326303384E+03 0.  0.
         24    2    3    3    0    0 -0.49244563154E+02 -0.47143972162E+01 -0.68415767597E+02  0.11635573757E+03  0.80066771309E+02 0.  0.
         -6    2    1    2    0  502 -0.28077407160E+02  0.39127865150E+02  0.12505034220E+03  0.21710870689E+03  0.17081941312E+03 0.  0.
        -24    2    5    5    0    0 -0.36470634002E+02  0.66977216635E+02  0.29506810040E+02  0.11712526240E+03  0.83854758724E+02 0.  0.
          5    1    3    3  501    0  0.77321970313E+02 -0.34413467934E+02 -0.84710594191E+02  0.11983717552E+03  0.47000000000E+01 0. -1.
        -13    1    4    4    0    0 -0.22867729564E+02 -0.33160665248E+00 -0.82864852230E+02  0.85962938255E+02  0.00000000000E+00 0.  1.
         14    1    4    4    0    0 -0.26376833589E+02 -0.43827905637E+01  0.14449084633E+02  0.30392799313E+02  0.00000000000E+00 0. -1.
         -5    1    5    5    0  502  0.83932268421E+01 -0.27849351486E+02  0.95543532160E+02  0.99983444493E+02  0.47000000000E+01 0.  1.
         13    1    6    6    0    0 -0.48573929570E+02  0.16337547916E+02 -0.94327047956E+01  0.52108713527E+02  0.00000000000E+00 0. -1.
        -14    1    6    6    0    0  0.12103295567E+02  0.50639668719E+02  0.38939514835E+02  0.65016548872E+02  0.00000000000E+00 0.  1.
</event>
<event>
12    1  0.8421768E-002  0.1741730E+03  0.7818608E-02  0.1174706E+00
         21   -1    0    0  503  502  0.00000000000E+00  0.00000000000E+00  0.71133057175E+03  0.71133057175E+03  0.00000000000E+00 0.  1.
         21   -1    0    0  501  503 -0.00000000000E+00 -0.00000000000E+00 -0.47553660790E+02  0.47553660790E+02  0.00000000000E+00 0.  1.
          6    2    1    2  501    0  0.39907628767E+01 -0.35145770200E+02  0.19346074787E+03  0.25735305583E+03  0.16598910515E+03 0.  0.
         24    2    3    3    0    0 -0.81386429795E+01 -0.51903780336E+02  0.21016131110E+03  0.23035394098E+03  0.78325739811E+02 0.  0.
         -6    2    1    2    0  502 -0.39907628767E+01  0.35145770200E+02  0.47031616309E+03  0.50153117671E+03  0.17054347420E+03 0.  0.
        -24    2    5    5    0    0  0.27547257303E+02  0.81343695080E+02  0.32574358109E+03  0.34644340657E+03  0.80861024104E+02 0.  0.
          5    1    3    3  501    0  0.12129405856E+02  0.16758010137E+02 -0.16700563239E+02  0.26999114849E+02  0.47000000000E+01 0. -1.
        -13    1    4    4    0    0  0.30970173690E+02 -0.20432246305E+02  0.13473218738E+03  0.13974759627E+03  0.00000000000E+00 0.  1.
         14    1    4    4    0    0 -0.39108816670E+02 -0.31471534032E+02  0.75429123728E+02  0.90606344711E+02  0.00000000000E+00 0. -1.
         -5    1    5    5    0  502 -0.31538020180E+02 -0.46197924880E+02  0.14457258200E+03  0.15508777014E+03  0.47000000000E+01 0.  1.
         11    1    6    6    0    0  0.20168449749E+02  0.12194459893E+01  0.16948172411E+03  0.17068189189E+03  0.00000000000E+00 0. -1.
        -12    1    6    6    0    0  0.73788075539E+01  0.80124249091E+02  0.15626185698E+03  0.17576151468E+03  0.00000000000E+00 0.  1.
</event>
<event>
12    1  0.8421768E-002  0.2296276E+03  0.7818608E-02  0.1127016E+00
         21   -1    0    0  503  502  0.00000000000E+00  0.00000000000E+00  0.13690621108E+04  0.13690621108E+04  0.00000000000E+00 0.  1.
         21   -1    0    0  501  503 -0.00000000000E+00 -0.00000000000E+00 -0.45885833003E+02  0.45885833003E+02  0.00000000000E+00 0. -1.
          6    2    1    2  501    0  0.64086829229E+02 -0.13900579438E+03  0.37517542889E+03  0.43953292654E+03  0.17030225636E+03 0.  0.
         24    2    3    3    0    0  0.80943864240E+02 -0.11575681474E+03  0.18016143014E+03  0.24235984422E+03  0.79552522681E+02 0.  0.
         -6    2    1    2    0  502 -0.64086829229E+02  0.13900579438E+03  0.94800084888E+03  0.97541501724E+03  0.17116983910E+03 0.  0.
        -24    2    5    5    0    0  0.38692324942E+01  0.50288283473E+02  0.65452290920E+03  0.66134462043E+03  0.80203403283E+02 0.  0.
          5    1    3    3  501    0 -0.16857035011E+02 -0.23248979640E+02  0.19501399874E+03  0.19717308231E+03  0.47000000000E+01 0. -1.
        -11    1    4    4    0    0 -0.31225431891E+01 -0.97078731329E+01  0.61611676782E+02  0.62449914272E+02  0.00000000000E+00 0.  1.
         12    1    4    4    0    0  0.84066407429E+02 -0.10604894160E+03  0.11854975336E+03  0.17990992995E+03  0.00000000000E+00 0. -1.
         -5    1    5    5    0  502 -0.67956061723E+02  0.88717510903E+02  0.29347793969E+03  0.31407039680E+03  0.47000000000E+01 0.  1.
         13    1    6    6    0    0 -0.16746676192E+02 -0.17140029369E+02  0.14515251901E+03  0.14711725101E+03  0.00000000000E+00 0. -1.
        -14    1    6    6    0    0  0.20615908686E+02  0.67428312842E+02  0.50937039019E+03  0.51422736942E+03  0.00000000000E+00 0.  1.
</event>
<event>
12    1  0.8421768E-002  0.1777111E+03  0.7818608E-02  0.1170537E+00
         21   -1    0    0  501  502  0.00000000000E+00  0.00000000000E+00  0.24732122709E+02  0.24732122709E+02  0.00000000000E+00 0.  1.
         21   -1    0    0  502  503 -0.00000000000E+00 -0.00000000000E+00 -0.14930464160E+04  0.14930464160E+04  0.00000000000E+00 0. -1.
         -6    2    1    2    0  503 -0.40798399072E+02  0.13901570924E+02 -0.10359514532E+04  0.10510835674E+04  0.17240501498E+03 0.  0.
        -24    2    3    3    0    0 -0.74934937174E+02  0.34654414898E+02 -0.94111630316E+03  0.94807007580E+03  0.79503454388E+02 0.  0.
          6    2    1    2  501    0  0.40798399072E+02 -0.13901570924E+02 -0.43236284007E+03  0.46669497131E+03  0.17031972208E+03 0.  0.
         24    2    5    5    0    0  0.16774580329E+02  0.49256245095E+02 -0.16240447503E+03  0.18836843206E+03  0.79999302889E+02 0.  0.
          5    1    5    5  501    0  0.24023818743E+02 -0.63157816019E+02 -0.26995836504E+03  0.27832653924E+03  0.47000000000E+01 0. -1.
        -13    1    6    6    0    0  0.29268798154E+01  0.36682032173E+02 -0.14929213199E+02  0.39711705032E+02  0.00000000000E+00 0.  1.
         14    1    6    6    0    0  0.13847700513E+02  0.12574212922E+02 -0.14747526183E+03  0.14865672703E+03  0.00000000000E+00 0. -1.
         -5    1    3    3    0  503  0.34136538102E+02 -0.20752843974E+02 -0.94835150071E+02  0.10301349162E+03  0.47000000000E+01 0.  1.
         13    1    4    4    0    0  0.87908204574E+01  0.12020415796E+02 -0.38236594530E+02  0.41034206237E+02  0.00000000000E+00 0. -1.
        -14    1    4    4    0    0 -0.83725757631E+02  0.22633999102E+02 -0.90287970863E+03  0.90703586956E+03  0.00000000000E+00 0.  1.
</event>
<event>
12    1  0.8421768E-002  0.2351983E+03  0.7818608E-02  0.1123468E+00
         21   -1    0    0  503  502  0.00000000000E+00  0.00000000000E+00  0.10712056198E+03  0.10712056198E+03  0.00000000000E+00 0. -1.
         21   -1    0    0  501  503 -0.00000000000E+00 -0.00000000000E+00 -0.51087994676E+03  0.51087994676E+03  0.00000000000E+00 0. -1.
          6    2    1    2  501    0 -0.77418968552E+02 -0.13855235441E+03 -0.20323177631E+03  0.31083985854E+03  0.17357364763E+03 0.  0.
         24    2    3    3    0    0 -0.10141805164E+03 -0.62433111153E+02 -0.16854508898E+03  0.22368854495E+03  0.86287910846E+02 0.  0.
         -6    2    1    2    0  502  0.77418968552E+02  0.13855235441E+03 -0.20052760846E+03  0.30716065019E+03  0.17013492195E+03 0.  0.
        -24    2    5    5    0    0  0.86809502129E+02  0.13375266300E+03 -0.83266775104E+02  0.18933275791E+03  0.59058215890E+02 0.  0.
          5    1    3    3  501    0  0.23999083085E+02 -0.76119243253E+02 -0.34686687333E+02  0.87151313590E+02  0.47000000000E+01 0. -1.
        -13    1    4    4    0    0 -0.61179390967E+01 -0.43565358449E+02 -0.25736591093E+02  0.50968046427E+02  0.00000000000E+00 0.  1.
         14    1    4    4    0    0 -0.95300112541E+02 -0.18867752704E+02 -0.14280849789E+03  0.17272049853E+03  0.00000000000E+00 0. -1.
         -5    1    5    5    0  502 -0.93905335772E+01  0.47996914103E+01 -0.11726083336E+03  0.11782789228E+03  0.47000000000E+01 0.  1.
         13    1    6    6    0    0  0.65432741123E+02  0.12963143152E+03 -0.59016615806E+02  0.15674409906E+03  0.00000000000E+00 0. -1.
        -14    1    6    6    0    0  0.21376761007E+02  0.41212314787E+01 -0.24250159298E+02  0.32588658856E+02  0.00000000000E+00 0.  1.
</event>
<event>
12    1  0.8421768E-002  0.1993085E+03  0.7818608E-02  0.1150761E+00
         21   -1    0    0  503  502  0.00000000000E+00  0.00000000000E+00  0.70773082361E+02  0.70773082361E+02  0.00000000000E+00 0. -1.
         21   -1    0    0  501  503 -0.00000000000E+00 -0.00000000000E+00 -0.22648597645E+04  0.22648597645E+04  0.00000000000E+00 0. -1.
          6    2    1    2  501    0  0.13067699953E+02  0.95276155490E+02 -0.21129716960E+04  0.21223508810E+04  0.17457251592E+03 0.  0.
         24    2    3    3    0    0 -0.58201256824E+02  0.60455516236E+02 -0.14737455846E+04  0.14782050492E+04  0.78242338799E+02 0.  0.
         -6    2    1    2    0  502 -0.13067699953E+02 -0.95276155490E+02 -0.81114986105E+02  0.21328196585E+03  0.17222440419E+03 0.  0.
        -24    2    5    5    0    0 -0.97569497314E+01 -0.26409491239E+02  0.22639596182E+02  0.88619694659E+02  0.80921194199E+02 0.  0.
          5    1    3    3  501    0  0.71268956778E+02  0.34820639253E+02 -0.63922611136E+03  0.64414583176E+03  0.47000000000E+01 0. -1.
        -13    1    4    4    0    0 -0.78453984555E+01  0.11478329543E+02 -0.90915281996E+03  0.90925912278E+03  0.00000000000E+00 0.  1.
         14    1    4    4    0    0 -0.50355858369E+02  0.48977186693E+02 -0.56459276467E+03  0.56894592644E+03  0.00000000000E+00 0. -1.
         -5    1    5    5    0  502 -0.33107502220E+01 -0.68866664250E+02 -0.10375458229E+03  0.12466227119E+03  0.47000000000E+01 0.  1.
         11    1    6    6    0    0 -0.38604686410E+02  0.33890202913E+01  0.26528013673E+02  0.46963206671E+02  0.00000000000E+00 0. -1.
        -12    1    6    6    0    0  0.28847736679E+02 -0.29798511531E+02 -0.38884174903E+01  0.41656487988E+02  0.00000000000E+00 0.  1.
</event>
<event>
12    1  0.8421768E-002  0.2515145E+03  0.7818608E-02  0.1112386E+00
         21   -1    0    0  503  502  0.00000000000E+00  0.00000000000E+00  0.56408410494E+03  0.56408410494E+03  0.00000000000E+00 0.  1.
         21   -1    0    0  501  503 -0.00000000000E+00 -0.00000000000E+00 -0.18247252949E+03  0.18247252949E+03  0.00000000000E+00 0. -1.
          6    2    1    2  501    0  0.55020765244E+02  0.17501331315E+03 -0.41141481680E+02  0.25464232346E+03  0.17173568935E+03 0.  0.
         24    2    3    3    0    0  0.12010496209E+02  0.37378777250E+02  0.26464364231E+02  0.95313138705E+02  0.82721259829E+02 0.  0.
         -6    2    1    2    0  502 -0.55020765244E+02 -0.17501331315E+03  0.42275305713E+03  0.49191431097E+03  0.17205405439E+03 0.  0.
        -24    2    5    5    0    0 -0.93464433913E+02 -0.10846672592E+03  0.26548890689E+03  0.31681300634E+03  0.96878739999E+02 0.  0.
          5    1    3    3  501    0  0.43010269036E+02  0.13763453590E+03 -0.67605845911E+02  0.15932918476E+03  0.47000000000E+01 0. -1.
        -13    1    4    4    0    0  0.37300554976E+02  0.50721600798E+02  0.17512319733E+02  0.65350543467E+02  0.00000000000E+00 0.  1.
         14    1    4    4    0    0 -0.25290058767E+02 -0.13342823549E+02  0.89520444980E+01  0.29962595238E+02  0.00000000000E+00 0. -1.
         -5    1    5    5    0  502  0.38443668669E+02 -0.66546587223E+02  0.15726415024E+03  0.17510130463E+03  0.47000000000E+01 0.  1.
         13    1    6    6    0    0 -0.31950890292E+02 -0.10587427799E+03  0.15640452087E+03  0.19155311607E+03  0.00000000000E+00 0. -1.
        -14    1    6    6    0    0 -0.61513543621E+02 -0.25924479364E+01  0.10908438602E+03  0.12525989026E+03  0.00000000000E+00 0.  1.
</event>
<event>
12    1  0.8421768E-002  0.2251330E+03  0.7818608E-02  0.1130321E+00
         21   -1    0    0  503  502  0.00000000000E+00  0.00000000000E+00  0.43798657976E+03  0.43798657976E+03  0.00000000000E+00 0.  1.
         21   -1    0    0  501  503 -0.00000000000E+00 -0.00000000000E+00 -0.12887305741E+03  0.12887305741E+03  0.00000000000E+00 0.  1.
          6    2    1    2  501    0 -0.17772561721E+01  0.14485849326E+03  0.62370008844E+02  0.23361268756E+03  0.17233028774E+03 0.  0.
         24    2    3    3    0    0  0.58136898443E+02  0.12551792278E+03  0.59313311567E+02  0.17040511690E+03  0.79907365353E+02 0.  0.
         -6    2    1    2    0  502  0.17772561721E+01 -0.14485849326E+03  0.24674351350E+03  0.33324694961E+03  0.17083332889E+03 0.  0.
        -24    2    5    5    0    0  0.31139985198E+02 -0.75993162467E+02  0.22824911422E+03  0.25598935163E+03  0.81781602968E+02 0.  0.
          5    1    3    3  501    0 -0.59914154615E+02  0.19340570485E+02  0.30566972770E+01  0.63207570656E+02  0.47000000000E+01 0. -1.
        -11    1    4    4    0    0 -0.72978411161E+01  0.26146263853E+02  0.42232830285E+02  0.50204557087E+02  0.00000000000E+00 0.  1.
         12    1    4    4    0    0  0.65434739559E+02  0.99371658925E+02  0.17080481282E+02  0.12020055981E+03  0.00000000000E+00 0. -1.
         -5    1    5    5    0  502 -0.29362729026E+02 -0.68865330796E+02  0.18494399282E+02  0.77257597985E+02  0.47000000000E+01 0.  1.
         13    1    6    6    0    0 -0.26850157702E+02 -0.36895716192E+02  0.99693583127E+02  0.10964048230E+03  0.00000000000E+00 0. -1.
        -14    1    6    6    0    0  0.57990142901E+02 -0.39097446275E+02  0.12855553109E+03  0.14634886933E+03  0.00000000000E+00 0.  1.
</event>
<event>
12    1  0.8421768E-002  0.2631263E+03  0.7818608E-02  0.1105334E+00
         21   -1    0    0  503  502  0.00000000000E+00  0.00000000000E+00  0.95869641634E+03  0.95869641634E+03  0.00000000000E+00 0.  1.
         21   -1    0    0  501  503 -0.00000000000E+00 -0.00000000000E+00 -0.11173503159E+03  0.11173503159E+03  0.00000000000E+00 0. -1.
          6    2    1    2  501    0 -0.18689003439E+03  0.65134509907E+02  0.10497437256E+03  0.28329323134E+03  0.17339275271E+03 0.  0.
         24    2    3    3    0    0 -0.14298933953E+03  0.29286429165E+02  0.17949463718E+01  0.16547795266E+03  0.77949245229E+02 0.  0.
         -6    2    1    2    0  502  0.18689003439E+03 -0.65134509907E+02  0.74198701219E+03  0.78713821658E+03  0.17283360902E+03 0.  0.
        -24    2    5    5    0    0  0.97762619729E+02  0.32914144678E+02  0.36695746018E+03  0.38936128212E+03  0.79394960127E+02 0.  0.
          5    1    3    3  501    0 -0.43900694867E+02  0.35848080742E+02  0.10317942619E+03  0.11781527869E+03  0.47000000000E+01 0. -1.
        -13    1    4    4    0    0 -0.10764172802E+03  0.11877753613E+02  0.35146752420E+02  0.11385568430E+03  0.00000000000E+00 0.  1.
         14    1    4    4    0    0 -0.35347611509E+02  0.17408675552E+02 -0.33351806048E+02  0.51622268359E+02  0.00000000000E+00 0. -1.
         -5    1    5    5    0  502  0.89127414664E+02 -0.98048654584E+02  0.37502955200E+03  0.39777693446E+03  0.47000000000E+01 0.  1.
         13    1    6    6    0    0  0.50941718424E+02 -0.89160853521E+01  0.77486165552E+02  0.93159331824E+02  0.00000000000E+00 0. -1.
        -14    1    6    6    0    0  0.46820901305E+02  0.41830230030E+02  0.28947129463E+03  0.29620195030E+03  0.00000000000E+00 0.  1.
</event>
<event>
12    1  0.8421768E-002  0.1824811E+03  0.7818608E-02  0.1166768E+00
         21   -1    0    0  501  502  0.00000000000E+00  0.00000000000E+00  0.19620501217E+03  0.19620501217E+03  0.00000000000E+00 0.  1.
         21   -1    0    0  502  503 -0.00000000000E+00 -0.00000000000E+00 -0.21412083507E+03  0.21412083507E+03  0.00000000000E+00 0.  1.
         -6    2    1    2    0  503 -0.61173181680E+02  0.45195663779E+01 -0.10752474499E+03  0.20703023665E+03  0.16594385637E+03 0.  0.
        -24    2    3    3    0    0 -0.87071331977E+02  0.41176848134E+02 -0.52264811035E+02  0.13568445335E+03  0.80010691374E+02 0.  0.
          6    2    1    2  501    0  0.61173181680E+02 -0.45195663779E+01  0.89608922090E+02  0.20329561059E+03  0.17186262459E+03 0.  0.
         24    2    5    5    0    0  0.74501938758E+02  0.35513220730E+02  0.13082366892E+02  0.11578170621E+03  0.80140672851E+02 0.  0.
          5    1    5    5  501    0 -0.13328757077E+02 -0.40032787108E+02  0.76526555198E+02  0.87513904377E+02  0.47000000000E+01 0. -1.
        -11    1    6    6    0    0 -0.51350114797E+00  0.38594154418E+02  0.12920900477E+02  0.40702851348E+02  0.00000000000E+00 0.  1.
         12    1    6    6    0    0  0.75015439905E+02 -0.30809336883E+01  0.16146641495E+00  0.75078854866E+02  0.00000000000E+00 0. -1.
         -5    1    3    3    0  503  0.25898150297E+02 -0.36657281756E+02 -0.55259933950E+02  0.71345783300E+02  0.47000000000E+01 0.  1.
         11    1    4    4    0    0 -0.54353784670E+02  0.11319228386E+02 -0.68797896427E+02  0.88405935276E+02  0.00000000000E+00 0. -1.
        -12    1    4    4    0    0 -0.32717547307E+02  0.29857619748E+02  0.16533085392E+02  0.47278518075E+02  0.00000000000E+00 0.  1.
</event>
<event>
12    1  0.8421768E-002  0.1920511E+03  0.7818608E-02  0.1156730E+00
         21   -1    0    0  503  502  0.00000000000E+00  0.00000000000E+00  0.80603314598E+02  0.80603314598E+02  0.00000000000E+00 0.  1.
         21   -1    0    0  501  503 -0.00000000000E+00 -0.00000000000E+00 -0.51468931986E+03  0.51468931986E+03  0.00000000000E+00 0.  1.
          6    2    1    2  501    0 -0.65899759980E+02  0.55766366453E+02 -0.31691586215E+03  0.37032050033E+03  0.17102322442E+03 0.  0.
         24    2    3    3    0    0 -0.28581748677E+01 -0.27110890125E+02 -0.12689346501E+03  0.15358683306E+03  0.82120608268E+02 0.  0.
         -6    2    1    2    0  502  0.65899759980E+02 -0.55766366453E+02 -0.11717014312E+03  0.22497213413E+03  0.17155451817E+03 0.  0.
        -24    2    5    5    0    0 -0.19132733050E+02  0.12189516236E+02 -0.54552600906E+02  0.99307606695E+02  0.79820853803E+02 0.  0.
          5    1    3    3  501    0 -0.63041585112E+02  0.82877256578E+02 -0.19002239714E+03  0.21673366727E+03  0.47000000000E+01 0. -1.
        -13    1    4    4    0    0 -0.30373940032E+02 -0.11336242669E+02 -0.11537445297E+03  0.11984302662E+03  0.00000000000E+00 0.  1.
         14    1    4    4    0    0  0.27515765164E+02 -0.15774647456E+02 -0.11519012031E+02  0.33743806440E+02  0.00000000000E+00 0. -1.
         -5    1    5    5    0  502  0.85032493030E+02 -0.67955882689E+02 -0.62617542210E+02  0.12566452743E+03  0.47000000000E+01 0.  1.
         11    1    6    6    0    0  0.40722662169E+01 -0.65819082444E+01 -0.66653177033E+02  0.67101049745E+02  0.00000000000E+00 0. -1.
        -12    1    6    6    0    0 -0.23204999267E+02  0.18771424480E+02  0.12100576127E+02  0.32206556950E+02  0.00000000000E+00 0.  1.
</event>
<event>
12    1  0.8421768E-002  0.2276221E+03  0.7818608E-02  0.1129689E+00
         21   -1    0    0  501  502  0.00000000000E+00  0.00000000000E+00  0.16700994037E+03  0.16700994037E+03  0.00000000000E+00 0. -1.
         21   -1    0    0  502  503 -0.00000000000E+00 -0.00000000000E+00 -0.31910402554E+03  0.31910402554E+03  0.00000000000E+00 0. -1.
         -6    2    1    2    0  503 -0.33684655259E+02 -0.13382805474E+03 -0.13418706700E+03  0.25778856209E+03  0.17147644025E+03 0.  0.
        -24    2    3    3    0    0  0.14569486858E+02 -0.14445400519E+02 -0.19448907567E+02  0.85255621497E+02  0.80432092151E+02 0.  0.
          6    2    1    2  501    0  0.33684655259E+02  0.13382805474E+03 -0.17907018173E+02  0.22832540382E+03  0.18101719391E+03 0.  0.
         24    2    5    5    0    0  0.57339095678E+02  0.21353301441E+02  0.25890045217E+02  0.10523854244E+03  0.81615690883E+02 0.  0.
          5    1    5    5  501    0 -0.23654440419E+02  0.11247475330E+03 -0.43797063390E+02  0.12308686138E+03  0.47000000000E+01 0. -1.
        -13    1    6    6    0    0  0.10301216654E+02  0.28889337819E+02  0.44541158500E+02  0.54079790169E+02  0.00000000000E+00 0.  1.
         14    1    6    6    0    0  0.47037879024E+02 -0.75360363781E+01 -0.18651113283E+02  0.51158752273E+02  0.00000000000E+00 0. -1.
         -5    1    3    3    0  503 -0.48254142117E+02 -0.11938265422E+03 -0.11473815943E+03  0.17253294060E+03  0.47000000000E+01 0.  1.
         13    1    4    4    0    0  0.73063429438E+01 -0.42223034993E+02  0.10131992349E+02  0.44032086031E+02  0.00000000000E+00 0. -1.
        -14    1    4    4    0    0  0.72631439145E+01  0.27777634474E+02 -0.29580899917E+02  0.41223535467E+02  0.00000000000E+00 0.  1.
</event>
<event>
12    1  0.8421768E-002  0.2683502E+03  0.7818608E-02  0.1104054E+00
         21   -1    0    0  503  502  0.00000000000E+00  0.00000000000E+00  0.12342777427E+03  0.12342777427E+03  0.00000000000E+00 0.  1.
         21   -1    0    0  501  503 -0.00000000000E+00 -0.00000000000E+00 -0.55696561153E+03  0.55696561153E+03  0.00000000000E+00 0.  1.
          6    2    1    2  501    0  0.78159557662E+02  0.17259006746E+03 -0.21561142255E+03  0.33470019980E+03  0.17216181451E+03 0.  0.
         24    2    3    3    0    0  0.51496116483E+02  0.74815069809E+02 -0.19747812608E+03  0.23163810346E+03  0.80059078269E+02 0.  0.
         -6    2    1    2    0  502 -0.78159557662E+02 -0.17259006746E+03 -0.21792641471E+03  0.34569318600E+03  0.19004107130E+03 0.  0.
        -24    2    5    5    0    0 -0.81214186250E+01 -0.87339406236E+01 -0.10886960884E+03  0.13672034536E+03  0.81839000149E+02 0.  0.
          5    1    3    3  501    0  0.26663441179E+02  0.97774997650E+02 -0.18133296472E+02  0.10306209634E+03  0.47000000000E+01 0. -1.
        -11    1    4    4    0    0  0.58190296158E+02  0.84199281013E+02 -0.14239870611E+03  0.17536539280E+03  0.00000000000E+00 0.  1.
         12    1    4    4    0    0 -0.66941796748E+01 -0.93842112041E+01 -0.55079419962E+02  0.56272710658E+02  0.00000000000E+00 0. -1.
         -5    1    5    5    0  502 -0.70038139037E+02 -0.16385612684E+03 -0.10905680586E+03  0.20897284064E+03  0.47000000000E+01 0.  1.
         13    1    6    6    0    0  0.29392552874E+02 -0.62395475103E+01 -0.11204542432E+02  0.32068612204E+02  0.00000000000E+00 0. -1.
        -14    1    6    6    0    0 -0.37513971499E+02 -0.24943931132E+01 -0.97665066412E+02  0.10465173315E+03  0.00000000000E+00 0.  1.
</event>
<event>
12    1  0.8421768E-002  0.2126040E+03  0.7818608E-02  0.1139681E+00
         21   -1    0    0  501  502  0.00000000000E+00  0.00000000000E+00  0.13259278969E+03  0.13259278969E+03  0.00000000000E+00 0. -1.
         21   -1    0    0  502  503 -0.00000000000E+00 -0.00000000000E+00 -0.10483067029E+04  0.10483067029E+04  0.00000000000E+00 0. -1.
         -6    2    1    2    0  503  0.26916943938E+02  0.12036750720E+03 -0.94305714325E+03  0.96654436579E+03  0.17215799994E+03 0.  0.
        -24    2    3    3    0    0  0.83467048204E+02  0.71573670592E+02 -0.56233925902E+03  0.57854056406E+03  0.79963764101E+02 0.  0.
          6    2    1    2  501    0 -0.26916943938E+02 -0.12036750720E+03  0.27343229998E+02  0.21435512683E+03  0.17316930881E+03 0.  0.
         24    2    5    5    0    0 -0.23081587956E+02 -0.31888654263E+02  0.71952648027E+02  0.11508122518E+03  0.80727063970E+02 0.  0.
          5    1    5    5  501    0 -0.38353559822E+01 -0.88478852941E+02 -0.44609418029E+02  0.99273901656E+02  0.47000000000E+01 0. -1.
        -13    1    6    6    0    0 -0.39848569046E+02  0.12546147187E+02  0.40009991930E+02  0.57845602413E+02  0.00000000000E+00 0.  1.
         14    1    6    6    0    0  0.16766981090E+02 -0.44434801450E+02  0.31942656097E+02  0.57235622765E+02  0.00000000000E+00 0. -1.
         -5    1    3    3    0  503 -0.56550104266E+02  0.48793836611E+02 -0.38071788423E+03  0.38800380173E+03  0.47000000000E+01 0.  1.
         13    1    4    4    0    0  0.21101434533E+02  0.69766623301E+02 -0.27406134235E+03  0.28358820786E+03  0.00000000000E+00 0. -1.
        -14    1    4    4    0    0  0.62365613671E+02  0.18070472914E+01 -0.28827791667E+03  0.29495235620E+03  0.00000000000E+00 0.  1.
</event>
<event>
12    1  0.8421768E-002  0.2093214E+03  0.7818608E-02  0.1142367E+00
         21   -1    0    0  501  502  0.00000000000E+00  0.00000000000E+00  0.24807599941E+03  0.24807599941E+03  0.00000000000E+00 0.  1.
         21   -1    0    0  502  503 -0.00000000000E+00 -0.00000000000E+00 -0.35780060625E+03  0.35780060625E+03  0.00000000000E+00 0. -1.
         -6    2    1    2    0  503 -0.43068955965E+02  0.11068162972E+03 -0.27117584990E+03  0.34256648595E+03  0.17236617301E+03 0.  0.
        -24    2    3    3    0    0 -0.75734736942E+02  0.13003023487E+03 -0.22037613202E+03  0.27897306565E+03  0.81343219976E+02 0.  0.
          6    2    1    2  501    0  0.43068955965E+02 -0.11068162972E+03  0.16145124306E+03  0.26331011971E+03  0.17076403933E+03 0.  0.
         24    2    5    5    0    0  0.74378800037E+02 -0.89412231323E+02  0.56561861494E+02  0.15170113257E+03  0.79292095715E+02 0.  0.
          5    1    5    5  501    0 -0.31309844072E+02 -0.21269398399E+02  0.10488938157E+03  0.11160898714E+03  0.47000000000E+01 0. -1.
        -11    1    6    6    0    0  0.17192760622E+01 -0.63318615799E+02  0.21307373209E+02  0.66829687789E+02  0.00000000000E+00 0.  1.
         12    1    6    6    0    0  0.72659523975E+02 -0.26093615524E+02  0.35254488285E+02  0.84871444783E+02  0.00000000000E+00 0. -1.
         -5    1    3    3    0  503  0.32665780977E+02 -0.19348605144E+02 -0.50799717881E+02  0.63593420294E+02  0.47000000000E+01 0.  1.
         11    1    4    4    0    0 -0.19226275001E+02  0.10823073310E+03 -0.13104283711E+03  0.17104317114E+03  0.00000000000E+00 0. -1.
        -12    1    4    4    0    0 -0.56508461942E+02  0.21799501763E+02 -0.89333294917E+02  0.10792989451E+03  0.00000000000E+00 0.  1.
</event>
<event>
12    1  0.8421768E-002  0.1907747E+03  0.7818608E-02  0.1158117E+00
         21   -1    0    0  503  502  0.00000000000E+00  0.00000000000E+00  0.16353788441E+03  0.16353788441E+03  0.00000000000E+00 0. -1.
         21   -1    0    0  501  503 -0.00000000000E+00 -0.00000000000E+00 -0.22989668074E+03  0.22989668074E+03  0.00000000000E+00 0. -1.
          6    2    1    2  501    0 -0.61883516535E+02  0.51501500794E+02 -0.72340964205E+02  0.20256610683E+03  0.17122452608E+03 0.  0.
         24    2    3    3    0    0  0.10635804154E+02  0.75189743724E+02 -0.35604636557E+02  0.11776143423E+03  0.82664668122E+02 0.  0.
         -6    2    1    2    0  502  0.61883516535E+02 -0.51501500794E+02  0.59821678732E+01  0.19086845832E+03  0.17295377373E+03 0.  0.
        -24    2    5    5    0    0  0.30470704908E+02 -0.86675617240E+02  0.43347679720E+02  0.13051736324E+03  0.81942872100E+02 0.  0.
          5    1    3    3  501    0 -0.72519320689E+02 -0.23688242929E+02 -0.36736327648E+02  0.84804672603E+02  0.47000000000E+01 0. -1.
        -13    1    4    4    0    0 -0.54398296285E+01 -0.40936378338E+01  0.18985055973E+02  0.20168836541E+02  0.00000000000E+00 0.  1.
         14    1    4    4    0    0  0.16075633783E+02  0.79283381558E+02 -0.54589692530E+02  0.97592597687E+02  0.00000000000E+00 0. -1.
         -5    1    5    5    0  502  0.31412811628E+02  0.35174116446E+02 -0.37365511847E+02  0.60351095082E+02  0.47000000000E+01 0.  1.
         11    1    6    6    0    0  0.50893648306E+02 -0.24085690351E+02  0.28142649920E+02  0.62946744650E+02  0.00000000000E+00 0. -1.
        -12    1    6    6    0    0 -0.20422943399E+02 -0.62589926890E+02  0.15205029800E+02  0.67570618588E+02  0.00000000000E+00 0.  1.
</event>
<event>
12    1  0.8421768E-002  0.1861676E+03  0.7818608E-02  0.1162044E+00
         21   -1    0    0  501  502  0.00000000000E+00  0.00000000000E+00  0.63334298543E+02  0.63334298543E+02  0.00000000000E+00 0. -1.
         21   -1    0    0  502  503 -0.00000000000E+00 -0.00000000000E+00 -0.58188561989E+03  0.58188561989E+03  0.00000000000E+00 0.  1.
         -6    2    1    2    0  503  0.25016082477E+02 -0.66755950851E+02 -0.33892102150E+03  0.38652046075E+03  0.17160549645E+03 0.  0.
        -24    2    3    3    0    0  0.33685568567E+02 -0.10427876309E+03 -0.30340066851E+03  0.33391906435E+03  0.86262378384E+02 0.  0.
          6    2    1    2  501    0 -0.25016082477E+02  0.66755950851E+02 -0.17963029985E+03  0.25869945768E+03  0.17197733404E+03 0.  0.
         24    2    5    5    0    0 -0.59607527152E+02  0.91106222455E+02 -0.16562452859E+03  0.21389147401E+03  0.80403215857E+02 0.  0.
          5    1    5    5  501    0  0.34591444675E+02 -0.24350271604E+02 -0.14005771256E+02  0.44807983668E+02  0.47000000000E+01 0. -1.
        -11    1    6    6    0    0  0.16759644475E+01  0.30933601470E+02 -0.10310955747E+03  0.10766279486E+03  0.00000000000E+00 0.  1.
         12    1    6    6    0    0 -0.61283491600E+02  0.60172620985E+02 -0.62514971127E+02  0.10622867915E+03  0.00000000000E+00 0. -1.
         -5    1    3    3    0  503 -0.86694860899E+01  0.37522812234E+02 -0.35520352989E+02  0.52601396402E+02  0.47000000000E+01 0.  1.
         13    1    4    4    0    0  0.11180892635E+02 -0.66406078300E+02 -0.27097674588E+03  0.27921886828E+03  0.00000000000E+00 0. -1.
        -14    1    4    4    0    0  0.22504675932E+02 -0.37872684785E+02 -0.32423922630E+02  0.54700196072E+02  0.00000000000E+00 0.  1.
</event>
<event>
12    1  0.8421768E-002  0.1877002E+03  0.7818608E-02  0.1160852E+00
         21   -1    0    0  501  502  0.00000000000E+00  0.00000000000E+00  0.24894564998E+04  0.24894564998E+04  0.00000000000E+00 0.  1.
         21   -1    0    0  502  503 -0.00000000000E+00 -0.00000000000E+00 -0.14335833885E+02  0.14335833885E+02  0.00000000000E+00 0. -1.
         -6    2    1    2    0  503  0.13635580120E+01 -0.70620185475E+02  0.10662813923E+04  0.10826760306E+04  0.17390316197E+03 0.  0.
        -24    2    3    3    0    0 -0.26513057128E+02 -0.90417079350E+02  0.10012153386E+04  0.10090234405E+04  0.82570932118E+02 0.  0.
          6    2    1    2  501    0 -0.13635580120E+01  0.70620185475E+02  0.14088392736E+04  0.14211163031E+04  0.17249457436E+03 0.  0.
         24    2    5    5    0    0 -0.47510789573E+02  0.46587054566E+01  0.51061842308E+03  0.51928302020E+03  0.81515044083E+02 0.  0.
          5    1    5    5  501    0  0.46147231561E+02  0.65961480019E+02  0.89822085057E+03  0.90183328294E+03  0.47000000000E+01 0. -1.
        -13    1    6    6    0    0 -0.26823814251E+02  0.68871471858E+01  0.48708086479E+03  0.48786752162E+03  0.00000000000E+00 0.  1.
         14    1    6    6    0    0 -0.20686975322E+02 -0.22284417292E+01  0.23537558293E+02  0.31415498578E+02  0.00000000000E+00 0. -1.
         -5    1    3    3    0  503  0.27876615140E+02  0.19796893874E+02  0.65066053690E+02  0.73652590053E+02  0.47000000000E+01 0.  1.
         11    1    4    4    0    0 -0.40435996922E+02 -0.24007956108E+02  0.22579584821E+03  0.23064088292E+03  0.00000000000E+00 0. -1.
        -12    1    4    4    0    0  0.13922939794E+02 -0.66409123241E+02  0.77541949037E+03  0.77838255758E+03  0.00000000000E+00 0.  1.
</event>
<event>
12    1  0.8421768E-002  0.2217645E+03  0.7818608E-02  0.1132630E+00
         21   -1    0    0  503  502  0.00000000000E+00  0.00000000000E+00  0.19026656130E+03  0.19026656130E+03  0.00000000000E+00 0. -1.
         21   -1    0    0  501  503 -0.00000000000E+00 -0.00000000000E+00 -0.49345758215E+03  0.49345758215E+03  0.00000000000E+00 0. -1.
          6    2    1    2  501    0 -0.13961906347E+03 -0.11464550184E+00 -0.38773357889E+03  0.44667305205E+03  0.17229623094E+03 0.  0.
         24    2    3    3    0    0 -0.43774658424E+02 -0.24629409397E+02 -0.29830801748E+03  0.31323338530E+03  0.81269009133E+02 0.  0.
         -6    2    1    2    0  502  0.13961906347E+03  0.11464550184E+00  0.84542558040E+02  0.23705109141E+03  0.17190776535E+03 0.  0.
        -24    2    5    5    0    0  0.16841651371E+03 -0.20991527227E+02  0.69700328177E+02  0.19810054001E+03  0.74705568052E+02 0.  0.
          5    1    3    3  501    0 -0.95844405050E+02  0.24514763895E+02 -0.89425561412E+02  0.13343966675E+03  0.47000000000E+01 0. -1.
        -13    1    4    4    0    0 -0.23447291617E+02 -0.54407565347E+02 -0.19599172802E+03  0.20475037510E+03  0.00000000000E+00 0.  1.
         14    1    4    4    0    0 -0.20327366807E+02  0.29778155949E+02 -0.10231628946E+03  0.10848301020E+03  0.00000000000E+00 0. -1.
         -5    1    5    5    0  502 -0.28797450232E+02  0.21106172729E+02  0.14842229862E+02  0.38950551400E+02  0.47000000000E+01 0.  1.
         13    1    6    6    0    0  0.83669411081E+02 -0.92477704288E+01 -0.52704560772E+01  0.84343756828E+02  0.00000000000E+00 0. -1.
        -14    1    6    6    0    0  0.84747102625E+02 -0.11743756798E+02  0.74970784255E+02  0.11375678318E+03  0.00000000000E+00 0.  1.
</event>
<event>
12    1  0.8421768E-002  0.1767703E+03  0.7818608E-02  0.1171642E+00
         21   -1    0    0  503  502  0.00000000000E+00  0.00000000000E+00  0.75926878316E+02  0.75926878316E+02  0.00000000000E+00 0.  1.
         21   -1    0    0  501  503 -0.00000000000E+00 -0.00000000000E+00 -0.78323688633E+03  0.78323688633E+03  0.00000000000E+00 0.  1.
          6    2    1    2  501    0 -0.35327880733E+02  0.89786075610E+01 -0.65348123419E+03  0.67696785589E+03  0.17297132686E+03 0.  0.
         24    2    3    3    0    0 -0.20196600422E+01 -0.32691092609E+02 -0.57549020690E+03  0.58236081695E+03  0.82959968202E+02 0.  0.
         -6    2    1    2    0  502  0.35327880733E+02 -0.89786075610E+01 -0.53828773826E+02  0.18219590876E+03  0.17020322478E+03 0.  0.
        -24    2    5    5    0    0 -0.25776956299E+02  0.13231577895E+02  0.16296214750E+02  0.86453037123E+02  0.79806233359E+02 0.  0.
          5    1    3    3  501    0 -0.33308220691E+02  0.41669700170E+02 -0.77991027290E+02  0.94607038932E+02  0.47000000000E+01 0. -1.
        -11    1    4    4    0    0 -0.12549223602E+02  0.18452163774E+02 -0.56448554363E+02  0.60699296954E+02  0.00000000000E+00 0.  1.
         12    1    4    4    0    0  0.10529563560E+02 -0.51143256383E+02 -0.51904165254E+03  0.52166152000E+03  0.00000000000E+00 0. -1.
         -5    1    5    5    0  502  0.61104837032E+02 -0.22210185456E+02 -0.70124988576E+02  0.95742871638E+02  0.47000000000E+01 0.  1.
         13    1    6    6    0    0 -0.14376334162E+02 -0.33518870837E+02  0.33729982452E+01  0.36627459689E+02  0.00000000000E+00 0. -1.
        -14    1    6    6    0    0 -0.11400622137E+02  0.46750448732E+02  0.12923216505E+02  0.49825577434E+02  0.00000000000E+00 0.  1.
</event>
<event>
12    1  0.8421768E-002  0.3130642E+03  0.7818608E-02  0.1079025E+00
         21   -1    0    0  503  502  0.00000000000E+00  0.00000000000E+00  0.19418954793E+03  0.19418954793E+03  0.00000000000E+00 0. -1.
         21   -1    0    0  501  503 -0.00000000000E+00 -0.00000000000E+00 -0.60497956552E+03  0.60497956552E+03  0.00000000000E+00 0. -1.
          6    2    1    2  501    0  0.10255496652E+03  0.24032147531E+03 -0.36927623775E+03  0.48336442393E+03  0.17030647053E+03 0.  0.
         24    2    3    3    0    0  0.12519449943E+03  0.12369951247E+03 -0.21623526013E+03  0.28956849648E+03  0.78211216308E+02 0.  0.
         -6    2    1    2    0  502 -0.10255496652E+03 -0.24032147531E+03 -0.41513779842E+02  0.31580468953E+03  0.17244499226E+03 0.  0.
        -24    2    5    5    0    0 -0.81328767005E+02 -0.20238310355E+03  0.28128841540E+02  0.23357296626E+03  0.78688054359E+02 0.  0.
          5    1    3    3  501    0 -0.22639532912E+02  0.11662196284E+03 -0.15304097762E+03  0.19379592745E+03  0.47000000000E+01 0. -1.
        -13    1    4    4    0    0  0.45746944966E+02  0.14511500531E+02 -0.10188306161E+03  0.11262115638E+03  0.00000000000E+00 0.  1.
         14    1    4    4    0    0  0.79447554465E+02  0.10918801194E+03 -0.11435219852E+03  0.17694734010E+03  0.00000000000E+00 0. -1.
         -5    1    5    5    0  502 -0.21226199514E+02 -0.37938371765E+02 -0.69642621382E+02  0.82231723264E+02  0.47000000000E+01 0.  1.
         11    1    6    6    0    0 -0.95141362138E+02 -0.19290961441E+03  0.27042599055E+02  0.21678860737E+03  0.00000000000E+00 0. -1.
        -12    1    6    6    0    0  0.13812595133E+02 -0.94734891335E+01  0.10862424842E+01  0.16784358891E+02  0.00000000000E+00 0.  1.
</event>
<event>
12    1  0.8421768E-002  0.1780679E+03  0.7818608E-02  0.1170987E+00
         21   -1    0    0  503  502  0.00000000000E+00  0.00000000000E+00  0.14825581697E+04  0.14825581697E+04  0.00000000000E+00 0. -1.
         21   -1    0    0  501  503 -0.00000000000E+00 -0.00000000000E+00 -0.21589852056E+02  0.21589852056E+02  0.00000000000E+00 0. -1.
          6    2    1    2  501    0 -0.84875755931E+01 -0.14152370631E+02  0.57308347426E+03  0.59858319056E+03  0.17206056789E+03 0.  0.
         24    2    3    3    0    0  0.31952287663E+01  0.50497445519E+02  0.28713338507E+03  0.30514558194E+03  0.90044677056E+02 0.  0.
         -6    2    1    2    0  502  0.84875755931E+01  0.14152370631E+02  0.88788484337E+03  0.90556483117E+03  0.17730155060E+03 0.  0.
        -24    2    5    5    0    0 -0.57208930919E+02  0.42355798277E+02  0.52357300709E+03  0.53427428679E+03  0.79078722457E+02 0.  0.
          5    1    3    3  501    0 -0.11682804359E+02 -0.64649816150E+02  0.28595008919E+03  0.29343760862E+03  0.47000000000E+01 0. -1.
        -13    1    4    4    0    0 -0.42410178443E+02  0.24033819589E+02  0.10969042642E+03  0.12003431745E+03  0.00000000000E+00 0.  1.
         14    1    4    4    0    0  0.45605407209E+02  0.26463625930E+02  0.17744295865E+03  0.18511126449E+03  0.00000000000E+00 0. -1.
         -5    1    5    5    0  502  0.65696506512E+02 -0.28203427646E+02  0.36431183627E+03  0.37129054438E+03  0.47000000000E+01 0.  1.
         11    1    6    6    0    0  0.75485788055E+01  0.30026227675E+02  0.79166821982E+02  0.85005535662E+02  0.00000000000E+00 0. -1.
        -12    1    6    6    0    0 -0.64757509724E+02  0.12329570602E+02  0.44440618511E+03  0.44926875113E+03  0.00000000000E+00 0.  1.
</event>
<event>
12    1  0.8421768E-002  0.2028974E+03  0.7818608E-02  0.1147383E+00
         21   -1    0    0  503  502  0.00000000000E+00  0.00000000000E+00  0.28822689569E+03  0.28822689569E+03  0.00000000000E+00 0. -1.
         21   -1    0    0  501  503 -0.00000000000E+00 -0.00000000000E+00 -0.16461965639E+03  0.16461965639E+03  0.00000000000E+00 0. -1.
          6    2    1    2  501    0  0.19451968167E+02  0.10609823753E+03 -0.21038071521E+02  0.20366868597E+03  0.17147337438E+03 0.  0.
         24    2    3    3    0    0  0.11233265341E+02  0.50004356736E+02 -0.82699979805E+02  0.11977380251E+03  0.69855960124E+02 0.  0.
         -6    2    1    2    0  502 -0.19451968167E+02 -0.10609823753E+03  0.14464531083E+03  0.24917786611E+03  0.17184914297E+03 0.  0.
        -24    2    5    5    0    0 -0.35627495393E+02 -0.13703778886E+03  0.13741906623E+03  0.21321660739E+03  0.80800048869E+02 0.  0.
          5    1    3    3  501    0  0.82187028258E+01  0.56093880793E+02  0.61661908284E+02  0.83894883466E+02  0.47000000000E+01 0. -1.
        -13    1    4    4    0    0 -0.13781873254E+02  0.57207566798E+02 -0.67819135541E+02  0.89789091068E+02  0.00000000000E+00 0.  1.
         14    1    4    4    0    0  0.25015138596E+02 -0.72032100620E+01 -0.14880844264E+02  0.29984711441E+02  0.00000000000E+00 0. -1.
         -5    1    5    5    0  502  0.16175527225E+02  0.30939551331E+02  0.72262445966E+01  0.35961258718E+02  0.47000000000E+01 0.  1.
         11    1    6    6    0    0 -0.42346645078E+02 -0.51173976897E+02  0.98263386870E+02  0.11860736680E+03  0.00000000000E+00 0. -1.
        -12    1    6    6    0    0  0.67191496856E+01 -0.85863811963E+02  0.39155679364E+02  0.94609240584E+02  0.00000000000E+00 0.  1.
</event>
<event>
12    1  0.8421768E-002  0.1804894E+03  0.7818608E-02  0.1167757E+00
         21   -1    0    0  503  502  0.00000000000E+00  0.00000000000E+00  0.11589545643E+03  0.11589545643E+03  0.00000000000E+00 0.  1.
         21   -1    0    0  501  503 -0.00000000000E+00 -0.00000000000E+00 -0.57751121897E+03  0.57751121897E+03  0.00000000000E+00 0.  1.
          6    2    1    2  501    0 -0.53260757422E+02  0.13828214167E+01 -0.48088557999E+03  0.51364126919E+03  0.17244648997E+03 0.  0.
         24    2    3    3    0    0 -0.29707795921E+02 -0.45205171933E+02 -0.42991166309E+03  0.44052756785E+03  0.79463446136E+02 0.  0.
         -6    2    1    2    0  502  0.53260757422E+02 -0.13828214167E+01  0.19269817437E+02  0.17976540621E+03  0.17060379518E+03 0.  0.
        -24    2    5    5    0    0 -0.26520162014E+02  0.37236262830E+02  0.72301777686E+01  0.90191572431E+02  0.77410503190E+02 0.  0.
          5    1    3    3  501    0 -0.23552961501E+02  0.46587993349E+02 -0.50973916900E+02  0.73113701342E+02  0.47000000000E+01 0. -1.
        -13    1    4    4    0    0 -0.16159250805E+01 -0.62656123286E+02 -0.29950266627E+03  0.30599060133E+03  0.00000000000E+00 0.  1.
         14    1    4    4    0    0 -0.28091870841E+02  0.17450951353E+02 -0.13040899682E+03  0.13453696652E+03  0.00000000000E+00 0. -1.
         -5    1    5    5    0  502  0.79780919436E+02 -0.38619084246E+02  0.12039639669E+02  0.89573833777E+02  0.47000000000E+01 0.  1.
         13    1    6    6    0    0 -0.45471752181E+02  0.36215924599E+01  0.19628762736E+02  0.49659686919E+02  0.00000000000E+00 0. -1.
        -14    1    6    6    0    0  0.18951590167E+02  0.33614670370E+02 -0.12398584968E+02  0.40531885512E+02  0.00000000000E+00 0.  1.
</event>
<event>
12    1  0.8421768E-002  0.2236043E+03  0.7818608E-02  0.1131638E+00
         21   -1    0    0  503  502  0.00000000000E+00  0.00000000000E+00  0.12560274447E+03  0.12560274447E+03  0.00000000000E+00 0.  1.
         21   -1    0    0  501  503 -0.00000000000E+00 -0.00000000000E+00 -0.47028905331E+03  0.47028905331E+03  0.00000000000E+00 0.  1.
          6    2    1    2  501    0  0.13869358598E+03 -0.19150733137E+02 -0.29155750355E+03  0.36606241469E+03  0.17144460388E+03 0.  0.
         24    2    3    3    0    0  0.13527702784E+03 -0.63532890595E+02 -0.26323999307E+03  0.31309619744E+03  0.79985201435E+02 0.  0.
         -6    2    1    2    0  502 -0.13869358598E+03  0.19150733137E+02 -0.53128805289E+02  0.22982938309E+03  0.17434510032E+03 0.  0.
        -24    2    5    5    0    0 -0.59153801162E+02  0.28046103796E+02 -0.93885920776E+02  0.13989086269E+03  0.80430909570E+02 0.  0.
          5    1    3    3  501    0  0.34165581415E+01  0.44382157458E+02 -0.28317510484E+02  0.52966217254E+02  0.47000000000E+01 0. -1.
        -13    1    4    4    0    0  0.46085975815E+02  0.95657023278E+01 -0.39747166902E+02  0.61605658056E+02  0.00000000000E+00 0.  1.
         14    1    4    4    0    0  0.89191052026E+02 -0.73098592923E+02 -0.22349282617E+03  0.25149053938E+03  0.00000000000E+00 0. -1.
         -5    1    5    5    0  502 -0.79539784821E+02 -0.88953706594E+01  0.40757115487E+02  0.89938520397E+02  0.47000000000E+01 0.  1.
         13    1    6    6    0    0 -0.46957395011E+01  0.29060426600E+02  0.21165999804E+01  0.29513358994E+02  0.00000000000E+00 0. -1.
        -14    1    6    6    0    0 -0.54458061661E+02 -0.10143228041E+01 -0.96002520757E+02  0.11037750370E+03  0.00000000000E+00 0.  1.
</event>
<event>
12    1  0.8421768E-002  0.1907534E+03  0.7818608E-02  0.1157895E+00
         21   -1    0    0  503  502  0.00000000000E+00  0.00000000000E+00  0.23572853845E+03  0.23572853845E+03  0.00000000000E+00 0.  1.
         21   -1    0    0  501  503 -0.00000000000E+00 -0.00000000000E+00 -0.16228626192E+03  0.16228626192E+03  0.00000000000E+00 0.  1.
          6    2    1    2  501    0  0.73914630396E+02 -0.38026635641E+02  0.81853543581E+02  0.20757375528E+03  0.17169002207E+03 0.  0.
         24    2    3    3    0    0  0.80197085152E+02 -0.30607599863E+02 -0.72174051709E+01  0.11785065211E+03  0.80425665242E+02 0.  0.
         -6    2    1    2    0  502 -0.73914630396E+02  0.38026635641E+02 -0.84112670562E+01  0.19044104510E+03  0.17113633349E+03 0.  0.
        -24    2    5    5    0    0 -0.34196256514E+02  0.40650982631E+02 -0.55912219235E+02  0.12828907909E+03  0.10251841398E+03 0.  0.
          5    1    3    3  501    0 -0.62824547556E+01 -0.74190357784E+01  0.89070948752E+02  0.89723103163E+02  0.47000000000E+01 0. -1.
        -13    1    4    4    0    0  0.45046585633E+01 -0.22979866727E+02 -0.30351564871E+02  0.38335149846E+02  0.00000000000E+00 0.  1.
         14    1    4    4    0    0  0.75692426588E+02 -0.76277331356E+01  0.23134159700E+02  0.79515502266E+02  0.00000000000E+00 0. -1.
         -5    1    5    5    0  502 -0.39718373882E+02 -0.26243469897E+01  0.47500952179E+02  0.62151966010E+02  0.47000000000E+01 0.  1.
         13    1    6    6    0    0 -0.56965145402E+02  0.60603930432E+02 -0.51147839061E+02  0.97642027914E+02  0.00000000000E+00 0. -1.
        -14    1    6    6    0    0  0.22768888888E+02 -0.19952947801E+02 -0.47643801740E+01  0.30647051173E+02  0.00000000000E+00 0.  1.
</event>
<event>
12    1  0.8421768E-002  0.1735079E+03  0.7818608E-02  0.1174329E+00
         21   -1    0    0  501  502  0.00000000000E+00  0.00000000000E+00  0.88361994208E+03  0.88361994208E+03  0.00000000000E+00 0.  1.
         21   -1    0    0  502  503 -0.00000000000E+00 -0.00000000000E+00 -0.12601334618E+03  0.12601334618E+03  0.00000000000E+00 0.  1.
         -6    2    1    2    0  503 -0.18195105948E+02 -0.86409684713E+01 -0.52673272534E+02  0.18098471332E+03  0.17197460452E+03 0.  0.
        -24    2    3    3    0    0  0.53511063497E+02 -0.18926332788E+02 -0.14923599193E+02  0.99163620119E+02  0.79931656762E+02 0.  0.
          6    2    1    2  501    0  0.18195105948E+02  0.86409684713E+01  0.81027986843E+03  0.82864857494E+03  0.17233475377E+03 0.  0.
         24    2    5    5    0    0 -0.55512355892E+02 -0.32245540717E+01  0.52054588814E+03  0.52941380107E+03  0.78860203559E+02 0.  0.
          5    1    5    5  501    0  0.73707461840E+02  0.11865522543E+02  0.28973398029E+03  0.29923477387E+03  0.47000000000E+01 0. -1.
        -11    1    6    6    0    0 -0.71390580517E+01 -0.33367245098E+02  0.28664076750E+03  0.28866463031E+03  0.00000000000E+00 0.  1.
         12    1    6    6    0    0 -0.48373297841E+02  0.30142691026E+02  0.23390512063E+03  0.24074917077E+03  0.00000000000E+00 0. -1.
         -5    1    3    3    0  503 -0.71706169445E+02  0.10285364317E+02 -0.37749673342E+02  0.81821093203E+02  0.47000000000E+01 0.  1.
         13    1    4    4    0    0  0.13849556792E+01 -0.28938537012E+02  0.20375169339E+02  0.35418985760E+02  0.00000000000E+00 0. -1.
        -14    1    4    4    0    0  0.52126107818E+02  0.10012204224E+02 -0.35298768532E+02  0.63744634359E+02  0.00000000000E+00 0.  1.
</event>
<event>
12    1  0.8421768E-002  0.1812245E+03  0.7818608E-02  0.1166927E+00
         21   -1    0    0  503  502  0.00000000000E+00  0.00000000000E+00  0.36965173766E+03  0.36965173766E+03  0.00000000000E+00 0.  1.
         21   -1    0    0  501  503 -0.00000000000E+00 -0.00000000000E+00 -0.86358347430E+03  0.86358347430E+03  0.00000000000E+00 0.  1.
          6    2    1    2  501    0  0.53211143934E+02  0.58653482920E+01 -0.83114763896E+03  0.85040774053E+03  0.17181705173E+03 0.  0.
         24    2    3    3    0    0  0.27358984718E+02  0.69146700180E+02 -0.56425571576E+03  0.57486055346E+03  0.80934312706E+02 0.  0.
         -6    2    1    2    0  502 -0.53211143934E+02 -0.58653482920E+01  0.33721590232E+03  0.38282747143E+03  0.17313717091E+03 0.  0.
        -24    2    5    5    0    0 -0.43583516134E+02  0.24788963860E+02  0.10349567462E+03  0.14686219240E+03  0.91340753678E+02 0.  0.
          5    1    3    3  501    0  0.25852159216E+02 -0.63281351888E+02 -0.26689192320E+03  0.27554718707E+03  0.47000000000E+01 0. -1.
        -13    1    4    4    0    0  0.11953222023E+02  0.23426772928E+01 -0.34323892202E+03  0.34345498284E+03  0.00000000000E+00 0.  1.
         14    1    4    4    0    0  0.15405762696E+02  0.66804022888E+02 -0.22101679374E+03  0.23140557062E+03  0.00000000000E+00 0. -1.
         -5    1    5    5    0  502 -0.96276277999E+01 -0.30654312152E+02  0.23372022770E+03  0.23596527903E+03  0.47000000000E+01 0.  1.
         11    1    6    6    0    0 -0.25020269271E+02 -0.34156693215E+02  0.39684949650E+02  0.58030929637E+02  0.00000000000E+00 0. -1.
        -12    1    6    6    0    0 -0.18563246863E+02  0.58945657075E+02  0.63810724974E+02  0.88831262762E+02  0.00000000000E+00 0.  1.
</event>
<event>
12    1  0.8421768E-002  0.1907945E+03  0.7818608E-02  0.1157766E+00
         21   -1    0    0  503  502  0.00000000000E+00  0.00000000000E+00  0.14522899372E+04  0.14522899372E+04  0.00000000000E+00 0.  1.
         21   -1    0    0  501  503 -0.00000000000E+00 -0.00000000000E+00 -0.27334817292E+02  0.27334817292E+02  0.00000000000E+00 0. -1.
          6    2    1    2  501    0 -0.39180380141E+02 -0.73849175940E+02  0.49864767142E+03  0.53387213311E+03  0.17140930932E+03 0.  0.
         24    2    3    3    0    0 -0.79555603982E+02 -0.80828192014E+02  0.43293543421E+03  0.45628957395E+03  0.88908910450E+02 0.  0.
         -6    2    1    2    0  502  0.39180380141E+02  0.73849175940E+02  0.92630744844E+03  0.94575262134E+03  0.17150431118E+03 0.  0.
        -24    2    5    5    0    0  0.87669538430E+02  0.76480342493E+02  0.65974159795E+03  0.67475896060E+03  0.80656606015E+02 0.  0.
          5    1    3    3  501    0  0.40375223841E+02  0.69790160737E+01  0.65712237210E+02  0.77582559153E+02  0.47000000000E+01 0. -1.
        -13    1    4    4    0    0 -0.38699445593E+01 -0.23413401425E+00  0.18242595894E+03  0.18246715262E+03  0.00000000000E+00 0.  1.
         14    1    4    4    0    0 -0.75685659422E+02 -0.80594058000E+02  0.25050947527E+03  0.27382242134E+03  0.00000000000E+00 0. -1.
         -5    1    5    5    0  502 -0.48489158289E+02 -0.26311665532E+01  0.26656585050E+03  0.27099366074E+03  0.47000000000E+01 0.  1.
         11    1    6    6    0    0  0.75771198384E+02  0.13010970385E+02  0.34527871468E+03  0.35373429388E+03  0.00000000000E+00 0. -1.
        -12    1    6    6    0    0  0.11898340046E+02  0.63469372108E+02  0.31446288327E+03  0.32102466672E+03  0.00000000000E+00 0.  1.
</event>
<event>
12    1  0.8421768E-002  0.2217219E+03  0.7818608E-02  0.1132794E+00
         21   -1    0    0  501  502  0.00000000000E+00  0.00000000000E+00  0.42778091833E+03  0.42778091833E+03  0.00000000000E+00 0.  1.
         21   -1    0    0  502  503 -0.00000000000E+00 -0.00000000000E+00 -0.18935720599E+03  0.18935720599E+03  0.00000000000E+00 0.  1.
         -6    2    1    2    0  503  0.69079173283E+02  0.11998089106E+03 -0.75104422599E+02  0.23313227067E+03  0.17187971065E+03 0.  0.
        -24    2    3    3    0    0 -0.27434070275E+02  0.38096675434E+02 -0.27998723054E+02  0.97999491963E+02  0.81338717973E+02 0.  0.
          6    2    1    2  501    0 -0.69079173283E+02 -0.11998089106E+03  0.31352813494E+03  0.38400585364E+03  0.17318561669E+03 0.  0.
         24    2    5    5    0    0 -0.10652426014E+03 -0.11678784284E+03  0.22264381466E+03  0.28554581221E+03  0.83542351116E+02 0.  0.
          5    1    5    5  501    0  0.37445086852E+02 -0.31930482195E+01  0.90884320275E+02  0.98460041429E+02  0.47000000000E+01 0. -1.
        -11    1    6    6    0    0  0.67229407657E+01 -0.31735114258E+02  0.70942641557E+02  0.78007524000E+02  0.00000000000E+00 0.  1.
         12    1    6    6    0    0 -0.11324720090E+03 -0.85052728587E+02  0.15170117311E+03  0.20753828821E+03  0.00000000000E+00 0. -1.
         -5    1    3    3    0  503  0.96513243558E+02  0.81884215631E+02 -0.47105699545E+02  0.13513277871E+03  0.47000000000E+01 0.  1.
         11    1    4    4    0    0  0.60505865275E+01 -0.31820286424E+01  0.23207914295E+02  0.24193846109E+02  0.00000000000E+00 0. -1.
        -12    1    4    4    0    0 -0.33484656803E+02  0.41278704076E+02 -0.51206637349E+02  0.73805645854E+02  0.00000000000E+00 0.  1.
</event>
<event>
12    1  0.8421768E-002  0.1821754E+03  0.7818608E-02  0.1166411E+00
         21   -1    0    0  501  502  0.00000000000E+00  0.00000000000E+00  0.46765128250E+03  0.46765128250E+03  0.00000000000E+00 0.  1.
         21   -1    0    0  502  503 -0.00000000000E+00 -0.00000000000E+00 -0.69939826523E+02  0.69939826523E+02  0.00000000000E+00 0.  1.
         -6    2    1    2    0  503 -0.13493576280E+02  0.48230769556E+02  0.18717330030E+03  0.25917741108E+03  0.17213599953E+03 0.  0.
        -24    2    3    3    0    0 -0.10386012764E+02 -0.38084421226E+02  0.12686096005E+03  0.15372771930E+03  0.77331856915E+02 0.  0.
          6    2    1    2  501    0  0.13493576280E+02 -0.48230769556E+02  0.21053815568E+03  0.27841369794E+03  0.17515589763E+03 0.  0.
         24    2    5    5    0    0 -0.29703243407E+02 -0.43148349342E+01  0.37271665152E+02  0.94462777089E+02  0.81444083656E+02 0.  0.
          5    1    5    5  501    0  0.43196819688E+02 -0.43915934622E+02  0.17326649052E+03  0.18395092086E+03  0.47000000000E+01 0. -1.
        -11    1    6    6    0    0 -0.20779405813E+02 -0.41321065918E+02  0.31502993415E+02  0.55961172152E+02  0.00000000000E+00 0.  1.
         12    1    6    6    0    0 -0.89238375946E+01  0.37006230984E+02  0.57686717377E+01  0.38501604936E+02  0.00000000000E+00 0. -1.
         -5    1    3    3    0  503 -0.31075635168E+01  0.86315190781E+02  0.60312340248E+02  0.10544969178E+03  0.47000000000E+01 0.  1.
         13    1    4    4    0    0  0.11239957670E+02  0.22329108393E+01 -0.61941434024E+01  0.13026509576E+02  0.00000000000E+00 0. -1.
        -14    1    4    4    0    0 -0.21625970433E+02 -0.40317332065E+02  0.13305510345E+03  0.14070120972E+03  0.00000000000E+00 0.  1.
</event>
<event>
12    1  0.8421768E-002  0.1916988E+03  0.7818608E-02  0.1157151E+00
         21   -1    0    0  501  502  0.00000000000E+00  0.00000000000E+00  0.19775465137E+03  0.19775465137E+03  0.00000000000E+00 0. -1.
         21   -1    0    0  502  503 -0.00000000000E+00 -0.00000000000E+00 -0.19639645619E+03  0.19639645619E+03  0.00000000000E+00 0. -1.
         -6    2    1    2    0  503  0.62969151063E+02 -0.54915392263E+02 -0.46994540020E+02  0.19644827869E+03  0.17147193682E+03 0.  0.
        -24    2    3    3    0    0  0.10151377393E+03 -0.46638483049E+02 -0.31697669090E+01  0.13731372097E+03  0.79779797856E+02 0.  0.
          6    2    1    2  501    0 -0.62969151063E+02  0.54915392263E+02  0.48352735204E+02  0.19770282887E+03  0.17253291642E+03 0.  0.
         24    2    5    5    0    0 -0.55701218411E+02  0.11125577021E+02 -0.35421518265E+02  0.10277872072E+03  0.77989597253E+02 0.  0.
          5    1    5    5  501    0 -0.72679326515E+01  0.43789815242E+02  0.83774253469E+02  0.94924108151E+02  0.47000000000E+01 0. -1.
        -13    1    6    6    0    0  0.11827005907E+02  0.12372777758E+02  0.11428161992E+02  0.20580733337E+02  0.00000000000E+00 0.  1.
         14    1    6    6    0    0 -0.67528224318E+02 -0.12472007371E+01 -0.46849680257E+02  0.82197987381E+02  0.00000000000E+00 0. -1.
         -5    1    3    3    0  503 -0.38544622870E+02 -0.82769092137E+01 -0.43824773111E+02  0.59134557718E+02  0.47000000000E+01 0.  1.
         13    1    4    4    0    0  0.37194442923E+02 -0.34814881205E+00 -0.35789000424E+02  0.51617829703E+02  0.00000000000E+00 0. -1.
        -14    1    4    4    0    0  0.64319331009E+02 -0.46290334237E+02  0.32619233515E+02  0.85695891269E+02  0.00000000000E+00 0.  1.
</event>
<event>
12    1  0.8421768E-002  0.2184526E+03  0.7818608E-02  0.1135256E+00
         21   -1    0    0  503  502  0.00000000000E+00  0.00000000000E+00  0.36785554057E+03  0.36785554057E+03  0.00000000000E+00 0.  1.
         21   -1    0    0  501  503 -0.00000000000E+00 -0.00000000000E+00 -0.14005703785E+03  0.14005703785E+03  0.00000000000E+00 0. -1.
          6    2    1    2  501    0  0.78339667943E+02 -0.10738167492E+03  0.42995797246E+02  0.22264360980E+03  0.17335977251E+03 0.  0.
         24    2    3    3    0    0  0.70890551684E+02 -0.14582238740E+03  0.42899859749E+02  0.18320661051E+03  0.73719910357E+02 0.  0.
         -6    2    1    2    0  502 -0.78339667943E+02  0.10738167492E+03  0.18480270548E+03  0.28526896861E+03  0.17192561420E+03 0.  0.
        -24    2    5    5    0    0 -0.43320878296E+02  0.82845306977E+02  0.35278318332E+02  0.12967982589E+03  0.82657450450E+02 0.  0.
          5    1    3    3  501    0  0.74491162584E+01  0.38440712483E+02  0.95937496644E-01  0.39436999293E+02  0.47000000000E+01 0. -1.
        -11    1    4    4    0    0  0.60429637870E+02 -0.45047276495E+02  0.29787607290E+02  0.81045047972E+02  0.00000000000E+00 0.  1.
         12    1    4    4    0    0  0.10460913814E+02 -0.10077511091E+03  0.13112252459E+02  0.10216156254E+03  0.00000000000E+00 0. -1.
         -5    1    5    5    0  502 -0.35018789647E+02  0.24536367941E+02  0.14952438715E+03  0.15558914272E+03  0.47000000000E+01 0.  1.
         11    1    6    6    0    0 -0.45202630598E+02  0.55269394502E+02 -0.14392691565E+02  0.72836346367E+02  0.00000000000E+00 0. -1.
        -12    1    6    6    0    0  0.18817523020E+01  0.27575912475E+02  0.49671009896E+02  0.56843479526E+02  0.00000000000E+00 0.  1.
</event>
<event>
12    1  0.8421768E-002  0.2440783E+03  0.7818608E-02  0.1119289E+00
         21   -1    0    0  501  502  0.00000000000E+00  0.00000000000E+00  0.62621694787E+03  0.62621694787E+03  0.00000000000E+00 0. -1.
         21   -1    0    0  502  503 -0.00000000000E+00 -0.00000000000E+00 -0.10857439088E+03  0.10857439088E+03  0.00000000000E+00 0.  1.
         -6    2    1    2    0  503  0.29812868083E+02  0.17195753040E+03  0.11332107705E+03  0.26910199092E+03  0.17063415734E+03 0.  0.
        -24    2    3    3    0    0  0.64125002323E+02  0.11801901609E+03  0.12973600313E+03  0.20293382879E+03  0.79436794225E+02 0.  0.
          6    2    1    2  501    0 -0.29812868083E+02 -0.17195753040E+03  0.40432147993E+03  0.46568934783E+03  0.15143483806E+03 0.  0.
         24    2    5    5    0    0 -0.19937356877E+02 -0.15086747374E+03  0.21853098660E+03  0.27838608137E+03  0.81145088357E+02 0.  0.
          5    1    5    5  501    0 -0.98755112054E+01 -0.21090056656E+02  0.18579049333E+03  0.18730326645E+03  0.47000000000E+01 0. -1.
        -11    1    6    6    0    0 -0.25518657032E+01  0.62203201844E+01  0.37385834266E+02  0.37985589446E+02  0.00000000000E+00 0.  1.
         12    1    6    6    0    0 -0.17385491174E+02 -0.15708779393E+03  0.18114515233E+03  0.24040049193E+03  0.00000000000E+00 0. -1.
         -5    1    3    3    0  503 -0.34312134241E+02  0.53938514304E+02 -0.16414926080E+02  0.66168162130E+02  0.47000000000E+01 0.  1.
         13    1    4    4    0    0  0.52320562613E+02  0.21462563861E+02  0.64644371494E+02  0.85889333945E+02  0.00000000000E+00 0. -1.
        -14    1    4    4    0    0  0.11804439710E+02  0.96556452233E+02  0.65091631637E+02  0.11704449485E+03  0.00000000000E+00 0.  1.
</event>
<event>
12    1  0.8421768E-002  0.2035157E+03  0.7818608E-02  0.1146973E+00
         21   -1    0    0  503  502  0.00000000000E+00  0.00000000000E+00  0.97310677643E+02  0.97310677643E+02  0.00000000000E+00 0. -1.
         21   -1    0    0  501  503 -0.00000000000E+00 -0.00000000000E+00 -0.42752850088E+03  0.42752850088E+03  0.00000000000E+00 0. -1.
          6    2    1    2  501    0 -0.25061980378E+02 -0.10575101945E+03 -0.18946765926E+03  0.27805871962E+03  0.17206765146E+03 0.  0.
         24    2    3    3    0    0  0.14946764769E+02 -0.53706298669E+02 -0.18872014701E+03  0.21224077812E+03  0.79517807542E+02 0.  0.
         -6    2    1    2    0  502  0.25061980378E+02  0.10575101945E+03 -0.14075016398E+03  0.24678045890E+03  0.17110992157E+03 0.  0.
        -24    2    5    5    0    0 -0.98167094819E+01  0.72964804707E+02 -0.16081819604E+03  0.19466256567E+03  0.81306775768E+02 0.  0.
          5    1    3    3  501    0 -0.40008745147E+02 -0.52044720779E+02 -0.74751225192E+00  0.65817941504E+02  0.47000000000E+01 0. -1.
        -11    1    4    4    0    0  0.36149799253E+02 -0.88842789913E+00 -0.45452677660E+02  0.58082210673E+02  0.00000000000E+00 0.  1.
         12    1    4    4    0    0 -0.21203034484E+02 -0.52817870770E+02 -0.14326746935E+03  0.15415856744E+03  0.00000000000E+00 0. -1.
         -5    1    5    5    0  502  0.34878689860E+02  0.32786214741E+02  0.20068032064E+02  0.52117893226E+02  0.47000000000E+01 0.  1.
         13    1    6    6    0    0 -0.21562674491E+02  0.41644085353E+01 -0.30845079932E+01  0.22176686389E+02  0.00000000000E+00 0. -1.
        -14    1    6    6    0    0  0.11745965009E+02  0.68800396172E+02 -0.15773368805E+03  0.17248587928E+03  0.00000000000E+00 0.  1.
</event>
<event>
12    1  0.8421768E-002  0.2043441E+03  0.7818608E-02  0.1146192E+00
         21   -1    0    0  501  502  0.00000000000E+00  0.00000000000E+00  0.63738078834E+03  0.63738078834E+03  0.00000000000E+00 0. -1.
         21   -1    0    0  502  503 -0.00000000000E+00 -0.00000000000E+00 -0.90092373002E+02  0.90092373002E+02  0.00000000000E+00 0. -1.
         -6    2    1    2    0  503 -0.53535412393E+02 -0.95376898205E+02  0.83407617286E+02  0.22071101224E+03  0.17260859542E+03 0.  0.
        -24    2    3    3    0    0 -0.37350570576E+02  0.11153048669E+00  0.86831479451E+02  0.12368626307E+03  0.79771600763E+02 0.  0.
          6    2    1    2  501    0  0.53535412393E+02  0.95376898205E+02  0.46388079805E+03  0.50676214910E+03  0.17221988233E+03 0.  0.
         24    2    5    5    0    0  0.64006579355E+02 -0.12573447101E+01  0.28334313422E+03  0.30166763356E+03  0.81373253066E+02 0.  0.
          5    1    5    5  501    0 -0.10471166962E+02  0.96634242915E+02  0.18053766383E+03  0.20509451554E+03  0.47000000000E+01 0. -1.
        -11    1    6    6    0    0  0.40730321274E+02 -0.39905663643E+02  0.13318381527E+03  0.14487701582E+03  0.00000000000E+00 0.  1.
         12    1    6    6    0    0  0.23276258082E+02  0.38648318933E+02  0.15015931894E+03  0.15679061774E+03  0.00000000000E+00 0. -1.
         -5    1    3    3    0  503 -0.16184841818E+02 -0.95488428691E+02 -0.34238621648E+01  0.97024749166E+02  0.47000000000E+01 0.  1.
         13    1    4    4    0    0 -0.20027710666E+02 -0.37171553158E+02  0.63963684974E+02  0.76643242064E+02  0.00000000000E+00 0. -1.
        -14    1    4    4    0    0 -0.17322859909E+02  0.37283083645E+02  0.22867794477E+02  0.47043021010E+02  0.00000000000E+00 0.  1.
</event>
<event>
12    1  0.8421768E-002  0.2023314E+03  0.7818608E-02  0.1147938E+00
         21   -1    0    0  501  502  0.00000000000E+00  0.00000000000E+00  0.18374334544E+03  0.18374334544E+03  0.00000000000E+00 0.  1.
         21   -1    0    0  502  503 -0.00000000000E+00 -0.00000000000E+00 -0.22231187775E+03  0.22231187775E+03  0.00000000000E+00 0.  1.
         -6    2    1    2    0  503  0.23570261685E+02 -0.10321286409E+03 -0.11635419511E+02  0.20193908496E+03  0.17156794135E+03 0.  0.
        -24    2    3    3    0    0 -0.49145794387E+02 -0.81177948843E+02 -0.37669319266E+01  0.12540696492E+03  0.81899625098E+02 0.  0.
          6    2    1    2  501    0 -0.23570261685E+02  0.10321286409E+03 -0.26933112799E+02  0.20411613822E+03  0.17242259935E+03 0.  0.
         24    2    5    5    0    0  0.31648595149E+02  0.72369403894E+02 -0.66078019613E+02  0.12958523915E+03  0.78657900650E+02 0.  0.
          5    1    5    5  501    0 -0.55218856834E+02  0.30843460196E+02  0.39144906815E+02  0.74530899072E+02  0.47000000000E+01 0. -1.
        -11    1    6    6    0    0 -0.10876491380E+02  0.51905598679E+02 -0.62917690663E+02  0.82286846077E+02  0.00000000000E+00 0.  1.
         12    1    6    6    0    0  0.42525086529E+02  0.20463805215E+02 -0.31603289498E+01  0.47298393072E+02  0.00000000000E+00 0. -1.
         -5    1    3    3    0  503  0.72716056072E+02 -0.22034915246E+02 -0.78684875846E+01  0.76532120037E+02  0.47000000000E+01 0.  1.
         13    1    4    4    0    0  0.17720220469E+02 -0.19751235802E+01  0.10629514789E+02  0.20757984278E+02  0.00000000000E+00 0. -1.
        -14    1    4    4    0    0 -0.66866014856E+02 -0.79202825263E+02 -0.14396446716E+02  0.10464898065E+03  0.00000000000E+00 0.  1.
</event>
<event>
12    1  0.8421768E-002  0.2681336E+03  0.7818608E-02  0.1102484E+00
         21   -1    0    0  503  502  0.00000000000E+00  0.00000000000E+00  0.43735117918E+03  0.43735117918E+03  0.00000000000E+00 0. -1.
         21   -1    0    0  501  503 -0.00000000000E+00 -0.00000000000E+00 -0.24790148270E+03  0.24790148270E+03  0.00000000000E+00 0. -1.
          6    2    1    2  501    0 -0.82110548549E+02  0.18835167929E+03 -0.10491038126E+03  0.28707744316E+03  0.17084722122E+03 0.  0.
         24    2    3    3    0    0 -0.50179972880E+02  0.10510682886E+03 -0.13252061312E+03  0.19362327424E+03  0.79767062581E+02 0.  0.
         -6    2    1    2    0  502  0.82110548549E+02 -0.18835167929E+03  0.29436007774E+03  0.39817521872E+03  0.17227057833E+03 0.  0.
        -24    2    5    5    0    0  0.11772046455E+03 -0.12041009587E+03  0.17176360431E+03  0.25348206003E+03  0.79960740531E+02 0.  0.
          5    1    3    3  501    0 -0.31930575669E+02  0.83244850425E+02  0.27610231860E+02  0.93454168918E+02  0.47000000000E+01 0. -1.
        -11    1    4    4    0    0  0.55384774484E+01  0.75885082410E+02 -0.89161226680E+02  0.11721324502E+03  0.00000000000E+00 0.  1.
         12    1    4    4    0    0 -0.55718450329E+02  0.29221746455E+02 -0.43359386444E+02  0.76410029222E+02  0.00000000000E+00 0. -1.
         -5    1    5    5    0  502 -0.35609916005E+02 -0.67941583422E+02  0.12259647343E+03  0.14469315869E+03  0.47000000000E+01 0.  1.
         11    1    6    6    0    0  0.47645144902E+02 -0.45674406615E+02  0.12394302219E+03  0.14042109529E+03  0.00000000000E+00 0. -1.
        -12    1    6    6    0    0  0.70075319652E+02 -0.74735689253E+02  0.47820582122E+02  0.11306096474E+03  0.00000000000E+00 0.  1.
</event>
<event>
12    1  0.8421768E-002  0.2540740E+03  0.7818608E-02  0.1111266E+00
         21   -1    0    0  501  502  0.00000000000E+00  0.00000000000E+00  0.44599037569E+02  0.44599037569E+02  0.00000000000E+00 0.  1.
         21   -1    0    0  502  503 -0.00000000000E+00 -0.00000000000E+00 -0.14331261612E+04  0.14331261612E+04  0.00000000000E+00 0. -1.
         -6    2    1    2    0  503 -0.18467102126E+03 -0.16919464320E+02 -0.73012164881E+03  0.77199766508E+03  0.16885827924E+03 0.  0.
        -24    2    3    3    0    0 -0.20177661686E+03 -0.40212540408E+02 -0.66559044772E+03  0.70113487719E+03  0.79048215632E+02 0.  0.
          6    2    1    2  501    0  0.18467102126E+03  0.16919464320E+02 -0.65840547478E+03  0.70572753364E+03  0.17367765589E+03 0.  0.
         24    2    5    5    0    0  0.70148786477E+02  0.61932163149E+02 -0.41828934141E+03  0.43587695866E+03  0.79159995421E+02 0.  0.
          5    1    5    5  501    0  0.11452223478E+03 -0.45012698829E+02 -0.24011613336E+03  0.26985057498E+03  0.47000000000E+01 0. -1.
        -13    1    6    6    0    0  0.37029617124E+02 -0.24361193780E-01 -0.58076317930E+02  0.68877077770E+02  0.00000000000E+00 0.  1.
         14    1    6    6    0    0  0.33119169353E+02  0.61956524343E+02 -0.36021302348E+03  0.36699988089E+03  0.00000000000E+00 0. -1.
         -5    1    3    3    0  503  0.17105595599E+02  0.23293076088E+02 -0.64531201089E+02  0.70862787896E+02  0.47000000000E+01 0.  1.
         11    1    4    4    0    0 -0.63841919693E+02 -0.51463153907E+02 -0.25136985963E+03  0.26440698412E+03  0.00000000000E+00 0. -1.
        -12    1    4    4    0    0 -0.13793469717E+03  0.11250613499E+02 -0.41422058809E+03  0.43672789307E+03  0.00000000000E+00 0.  1.
</event>
<event>
12    1  0.8421768E-002  0.2207258E+03  0.7818608E-02  0.1133374E+00
         21   -1    0    0  501  502  0.00000000000E+00  0.00000000000E+00  0.37333340953E+03  0.37333340953E+03  0.00000000000E+00 0. -1.
         21   -1    0    0  502  503 -0.00000000000E+00 -0.00000000000E+00 -0.23433474446E+03  0.23433474446E+03  0.00000000000E+00 0. -1.
         -6    2    1    2    0  503  0.46058963575E+02 -0.13030132063E+03 -0.13283240359E+03  0.25761271714E+03  0.17210462604E+03 0.  0.
        -24    2    3    3    0    0  0.19839848310E+02  0.20506136825E+01 -0.73098180619E+02  0.10998228696E+03  0.79717845163E+02 0.  0.
          6    2    1    2  501    0 -0.46058963575E+02  0.13030132063E+03  0.27183106866E+03  0.35005543686E+03  0.17189187502E+03 0.  0.
         24    2    5    5    0    0 -0.49622439051E+02  0.26368280053E+01  0.12640424978E+03  0.15645282664E+03  0.77653804026E+02 0.  0.
          5    1    5    5  501    0  0.35634754757E+01  0.12766449262E+03  0.14542681888E+03  0.19360261022E+03  0.47000000000E+01 0. -1.
        -13    1    6    6    0    0 -0.19523605376E+02  0.88083977419E+01 -0.45887677957E+01  0.21904698755E+02  0.00000000000E+00 0.  1.
         14    1    6    6    0    0 -0.30098833674E+02 -0.61715697366E+01  0.13099301758E+03  0.13454812788E+03  0.00000000000E+00 0. -1.
         -5    1    3    3    0  503  0.26219115265E+02 -0.13235193431E+03 -0.59734222972E+02  0.14763043018E+03  0.47000000000E+01 0.  1.
         11    1    4    4    0    0 -0.28980641492E+02 -0.12009120881E+02 -0.28015062894E+02  0.42058772147E+02  0.00000000000E+00 0. -1.
        -12    1    4    4    0    0  0.48820489802E+02  0.14059734563E+02 -0.45083117725E+02  0.67923514811E+02  0.00000000000E+00 0.  1.
</event>
<event>
12    1  0.8421768E-002  0.1905612E+03  0.7818608E-02  0.1158448E+00
         21   -1    0    0  503  502  0.00000000000E+00  0.00000000000E+00  0.78011425221E+03  0.78011425221E+03  0.00000000000E+00 0.  1.
         21   -1    0    0  501  503 -0.00000000000E+00 -0.00000000000E+00 -0.70678465267E+02  0.70678465267E+02  0.00000000000E+00 0. -1.
          6    2    1    2  501    0  0.42700176901E+02 -0.66056257424E+02  0.10477581962E+03  0.21746621795E+03  0.17357087694E+03 0.  0.
         24    2    3    3    0    0  0.27729153635E+02  0.27493473141E+02  0.19141751826E+02  0.89673545260E+02  0.78422834875E+02 0.  0.
         -6    2    1    2    0  502 -0.42700176901E+02  0.66056257424E+02  0.60465996732E+03  0.63332649952E+03  0.17117840012E+03 0.  0.
        -24    2    5    5    0    0 -0.48803282462E+02  0.86074708238E+02  0.26835506681E+03  0.29633827662E+03  0.77532680394E+02 0.  0.
          5    1    3    3  501    0  0.14971023265E+02 -0.93549730565E+02  0.85634067795E+02  0.12779267269E+03  0.47000000000E+01 0. -1.
        -13    1    4    4    0    0  0.42892494907E+02  0.41666705549E+02  0.29270521693E+02  0.66578103840E+02  0.00000000000E+00 0.  1.
         14    1    4    4    0    0 -0.15163341272E+02 -0.14173232408E+02 -0.10128769866E+02  0.23095441421E+02  0.00000000000E+00 0. -1.
         -5    1    5    5    0  502  0.61031055613E+01 -0.20018450815E+02  0.33630490051E+03  0.33698822291E+03  0.47000000000E+01 0.  1.
         13    1    6    6    0    0 -0.70461247783E+01  0.29546662939E+02  0.15902810677E+02  0.34286331864E+02  0.00000000000E+00 0. -1.
        -14    1    6    6    0    0 -0.41757157684E+02  0.56528045299E+02  0.25245225613E+03  0.26205194476E+03  0.00000000000E+00 0.  1.
</event>
<event>
12    1  0.8421768E-002  0.1898233E+03  0.7818608E-02  0.1158886E+00
         21   -1    0    0  503  502  0.00000000000E+00  0.00000000000E+00  0.65213821118E+03  0.65213821118E+03  0.00000000000E+00 0. -1.
         21   -1    0    0  501  503 -0.00000000000E+00 -0.00000000000E+00 -0.55769822868E+02  0.55769822868E+02  0.00000000000E+00 0. -1.
          6    2    1    2  501    0  0.41615602506E+02  0.66227139942E+02  0.34296748035E+03  0.39199437196E+03  0.17295954045E+03 0.  0.
         24    2    3    3    0    0  0.65349736082E+02 -0.14049783031E+02  0.17361296431E+03  0.20302152851E+03  0.81291421766E+02 0.  0.
         -6    2    1    2    0  502 -0.41615602506E+02 -0.66227139942E+02  0.25340090796E+03  0.31591366209E+03  0.17167273896E+03 0.  0.
        -24    2    5    5    0    0 -0.88260522560E+02 -0.65954881201E+02  0.21490015811E+03  0.25524884172E+03  0.82643372659E+02 0.  0.
          5    1    3    3  501    0 -0.23734133576E+02  0.80276922973E+02  0.16935451604E+03  0.18897284345E+03  0.47000000000E+01 0. -1.
        -13    1    4    4    0    0  0.36136758256E+02 -0.38771845223E+02  0.47298924027E+02  0.71037380958E+02  0.00000000000E+00 0.  1.
         14    1    4    4    0    0  0.29212977826E+02  0.24722062192E+02  0.12631404028E+03  0.13198414755E+03  0.00000000000E+00 0. -1.
         -5    1    5    5    0  502  0.46644920054E+02 -0.27225874123E+00  0.38500749850E+02  0.60664820372E+02  0.47000000000E+01 0.  1.
         13    1    6    6    0    0 -0.43829704430E+02 -0.74687749736E+01  0.23607855759E+02  0.50340405676E+02  0.00000000000E+00 0. -1.
        -14    1    6    6    0    0 -0.44430818130E+02 -0.58486106227E+02  0.19129230236E+03  0.20490843604E+03  0.00000000000E+00 0.  1.
</event>
<event>
12    1  0.8421768E-002  0.1809642E+03  0.7818608E-02  0.1167442E+00
         21   -1    0    0  503  502  0.00000000000E+00  0.00000000000E+00  0.12623687732E+03  0.12623687732E+03  0.00000000000E+00 0.  1.
         21   -1    0    0  501  503 -0.00000000000E+00 -0.00000000000E+00 -0.26622356886E+03  0.26622356886E+03  0.00000000000E+00 0.  1.
          6    2    1    2  501    0  0.51011865878E+02 -0.15747899618E+02 -0.10877529230E+03  0.21114004442E+03  0.17290993997E+03 0.  0.
         24    2    3    3    0    0 -0.16463007538E+02  0.12040885510E+02 -0.20162120215E+02  0.96251144221E+02  0.91879040762E+02 0.  0.
         -6    2    1    2    0  502 -0.51011865878E+02  0.15747899618E+02 -0.31211399241E+02  0.18132040177E+03  0.17044861352E+03 0.  0.
        -24    2    5    5    0    0 -0.66101046574E+02  0.59659445617E+02 -0.51727067681E+02  0.13034109325E+03  0.79903149175E+02 0.  0.
          5    1    3    3  501    0  0.67474873416E+02 -0.27788785128E+02 -0.88613172083E+02  0.11488890019E+03  0.47000000000E+01 0. -1.
        -13    1    4    4    0    0 -0.11734724012E+02  0.82521733484E+01 -0.57071935831E+02  0.58847327655E+02  0.00000000000E+00 0.  1.
         14    1    4    4    0    0 -0.47282835262E+01  0.37887121615E+01  0.36909815616E+02  0.37403816566E+02  0.00000000000E+00 0. -1.
         -5    1    5    5    0  502  0.15089180696E+02 -0.43911545998E+02  0.20515668440E+02  0.50979308524E+02  0.47000000000E+01 0.  1.
         13    1    6    6    0    0 -0.71263657056E+02  0.37603767707E+02 -0.65491707117E+02  0.10383504160E+03  0.00000000000E+00 0. -1.
        -14    1    6    6    0    0  0.51626104827E+01  0.22055677910E+02  0.13764639436E+02  0.26506051646E+02  0.00000000000E+00 0.  1.
</event>
<event>
12    1  0.8421768E-002  0.2165784E+03  0.7818608E-02  0.1136647E+00
         21   -1    0    0  501  502  0.00000000000E+00  0.00000000000E+00  0.17673956796E+04  0.17673956796E+04  0.00000000000E+00 0. -1.
         21   -1    0    0  502  503 -0.00000000000E+00 -0.00000000000E+00 -0.32526928453E+02  0.32526928453E+02  0.00000000000E+00 0. -1.
         -6    2    1    2    0  503 -0.54663359176E+02 -0.11961084886E+03  0.47906935109E+03  0.52575057538E+03  0.17207959308E+03 0.  0.
        -24    2    3    3    0    0 -0.99964475675E+02 -0.92411524865E+02  0.28029143936E+03  0.32001593422E+03  0.72898016766E+02 0.  0.
          6    2    1    2  501    0  0.54663359176E+02  0.11961084886E+03  0.12557994001E+04  0.12741720327E+04  0.17084319615E+03 0.  0.
         24    2    5    5    0    0 -0.29475170057E+02  0.85527539859E+02  0.82790687216E+03  0.83673052861E+03  0.80650125897E+02 0.  0.
          5    1    5    5  501    0  0.84138529233E+02  0.34083309001E+02  0.42789252789E+03  0.43744150406E+03  0.47000000000E+01 0. -1.
        -11    1    6    6    0    0 -0.92460886897E+01  0.97305608283E+02  0.65898045958E+03  0.66619000118E+03  0.00000000000E+00 0.  1.
         12    1    6    6    0    0 -0.20229081367E+02 -0.11778068424E+02  0.16892641258E+03  0.17054052743E+03  0.00000000000E+00 0. -1.
         -5    1    3    3    0  503  0.45301116500E+02 -0.27199323996E+02  0.19877791173E+03  0.20573464116E+03  0.47000000000E+01 0.  1.
         11    1    4    4    0    0 -0.10381245801E+03 -0.97995334893E+02  0.24072468190E+03  0.27987226474E+03  0.00000000000E+00 0. -1.
        -12    1    4    4    0    0  0.38479823333E+01  0.55838100281E+01  0.39566757466E+02  0.40143669474E+02  0.00000000000E+00 0.  1.
</event>
<event>
12    1  0.8421768E-002  0.2024434E+03  0.7818608E-02  0.1147766E+00
         21   -1    0    0  501  502  0.00000000000E+00  0.00000000000E+00  0.30456125386E+03  0.30456125386E+03  0.00000000000E+00 0.  1.
         21   -1    0    0  502  503 -0.00000000000E+00 -0.00000000000E+00 -0.18122650454E+03  0.18122650454E+03  0.00000000000E+00 0.  1.
         -6    2    1    2    0  503 -0.10737419376E+03 -0.27288879205E+00 -0.61845702955E+02  0.21167949421E+03  0.17162175078E+03 0.  0.
        -24    2    3    3    0    0 -0.53940353268E+00 -0.38415373351E+02 -0.29804990374E+02  0.93708231628E+02  0.80105326650E+02 0.  0.
          6    2    1    2  501    0  0.10737419376E+03  0.27288879205E+00  0.18518045228E+03  0.27410826419E+03  0.17121404333E+03 0.  0.
         24    2    5    5    0    0  0.10098097727E+03 -0.58407748559E+02  0.11617557995E+03  0.18317943036E+03  0.80307630182E+02 0.  0.
          5    1    5    5  501    0  0.63932164882E+01  0.58680637351E+02  0.69004872326E+02  0.90928833830E+02  0.47000000000E+01 0. -1.
        -11    1    6    6    0    0  0.71837967652E+02  0.48231106977E+01  0.58499091467E+02  0.92769066481E+02  0.00000000000E+00 0.  1.
         12    1    6    6    0    0  0.29143009622E+02 -0.63230859257E+02  0.57676488483E+02  0.90410363875E+02  0.00000000000E+00 0. -1.
         -5    1    3    3    0  503 -0.10683479023E+03  0.38142484559E+02 -0.32040712581E+02  0.11797126258E+03  0.47000000000E+01 0.  1.
         13    1    4    4    0    0  0.20553549298E+02 -0.29982623935E+02  0.18160828001E+02  0.40635228564E+02  0.00000000000E+00 0. -1.
        -14    1    4    4    0    0 -0.21092952831E+02 -0.84327494160E+01 -0.47965818375E+02  0.53073003064E+02  0.00000000000E+00 0.  1.
</event>
<event>
12    1  0.8421768E-002  0.2482312E+03  0.7818608E-02  0.1114574E+00
         21   -1    0    0  501  502  0.00000000000E+00  0.00000000000E+00  0.51458804012E+03  0.51458804012E+03  0.00000000000E+00 0. -1.
         21   -1    0    0  502  503 -0.00000000000E+00 -0.00000000000E+00 -0.17955372089E+03  0.17955372089E+03  0.00000000000E+00 0. -1.
         -6    2    1    2    0  503 -0.10634857724E+03 -0.14255829654E+03 -0.33740325144E+02  0.24960439150E+03  0.17184602095E+03 0.  0.
        -24    2    3    3    0    0 -0.14323769712E+03 -0.11222838228E+03 -0.24841362329E+02  0.20079873195E+03  0.81183679421E+02 0.  0.
          6    2    1    2  501    0  0.10634857724E+03  0.14255829654E+03  0.36877464438E+03  0.44453736951E+03  0.17316421905E+03 0.  0.
         24    2    5    5    0    0  0.66503441907E+02  0.94385588638E+02  0.11047551056E+03  0.17873899268E+03  0.80071480199E+02 0.  0.
          5    1    5    5  501    0  0.39845135338E+02  0.48172707907E+02  0.25829913382E+03  0.26579837683E+03  0.47000000000E+01 0. -1.
        -13    1    6    6    0    0  0.33084877985E+02 -0.44391007590E+01  0.43244402438E+02  0.54629599202E+02  0.00000000000E+00 0.  1.
         14    1    6    6    0    0  0.33418563922E+02  0.98824689397E+02  0.67231108123E+02  0.12410939347E+03  0.00000000000E+00 0. -1.
         -5    1    3    3    0  503  0.36889119877E+02 -0.30329914265E+02 -0.88989628153E+01  0.48805659547E+02  0.47000000000E+01 0.  1.
         11    1    4    4    0    0 -0.81195335818E+02 -0.18904537426E+02  0.87050295100E+01  0.83820293680E+02  0.00000000000E+00 0. -1.
        -12    1    4    4    0    0 -0.62042361303E+02 -0.93323844854E+02 -0.33546391839E+02  0.11697843827E+03  0.00000000000E+00 0.  1.
</event>
<event>
12    1  0.8421768E-002  0.1859187E+03  0.7818608E-02  0.1162449E+00
         21   -1    0    0  503  502  0.00000000000E+00  0.00000000000E+00  0.90000608153E+02  0.90000608153E+02  0.00000000000E+00 0. -1.
         21   -1    0    0  501  503 -0.00000000000E+00 -0.00000000000E+00 -0.45801743137E+03  0.45801743137E+03  0.00000000000E+00 0.  1.
          6    2    1    2  501    0 -0.42550237264E+02 -0.56695367384E+02 -0.29623454465E+03  0.34974371567E+03  0.17187458752E+03 0.  0.
         24    2    3    3    0    0  0.95258907982E+00  0.12790098078E+02 -0.23919734307E+03  0.24976342674E+03  0.70724156921E+02 0.  0.
         -6    2    1    2    0  502  0.42550237264E+02  0.56695367384E+02 -0.71782278575E+02  0.19827432386E+03  0.17069014210E+03 0.  0.
        -24    2    5    5    0    0  0.57185565598E+02  0.92534637797E+02 -0.82648832222E+02  0.15779200516E+03  0.78959732259E+02 0.  0.
          5    1    3    3  501    0 -0.43502826343E+02 -0.69485465462E+02 -0.57037201579E+02  0.99980288929E+02  0.47000000000E+01 0. -1.
        -11    1    4    4    0    0  0.10562792364E+02 -0.71937530268E+01 -0.22018104464E+03  0.22055161547E+03  0.00000000000E+00 0.  1.
         12    1    4    4    0    0 -0.96102032846E+01  0.19983851105E+02 -0.19016298425E+02  0.29211811274E+02  0.00000000000E+00 0. -1.
         -5    1    5    5    0  502 -0.14635328335E+02 -0.35839270413E+02  0.10866553647E+02  0.40482318701E+02  0.47000000000E+01 0.  1.
         11    1    6    6    0    0  0.38302193081E+02  0.83861693741E+02 -0.23562155171E+02  0.95157852163E+02  0.00000000000E+00 0. -1.
        -12    1    6    6    0    0  0.18883372517E+02  0.86729440561E+01 -0.59086677051E+02  0.62634152993E+02  0.00000000000E+00 0.  1.
</event>
<event>
12    1  0.8421768E-002  0.2551227E+03  0.7818608E-02  0.1110367E+00
         21   -1    0    0  501  502  0.00000000000E+00  0.00000000000E+00  0.21847754077E+04  0.21847754077E+04  0.00000000000E+00 0. -1.
         21   -1    0    0  502  503 -0.00000000000E+00 -0.00000000000E+00 -0.66758913650E+02  0.66758913650E+02  0.00000000000E+00 0.  1.
         -6    2    1    2    0  503  0.17899224756E+03 -0.52700585949E+02  0.21754540607E+03  0.33401562600E+03  0.17153675484E+03 0.  0.
        -24    2    3    3    0    0  0.16176045533E+03 -0.41842678526E+01  0.21708739612E+03  0.28231390883E+03  0.79939055283E+02 0.  0.
          6    2    1    2  501    0 -0.17899224756E+03  0.52700585949E+02  0.19004710879E+04  0.19175186953E+04  0.17398854654E+03 0.  0.
         24    2    5    5    0    0 -0.17614892915E+03  0.41371978703E+02  0.11523376003E+04  0.11692792770E+04  0.81191112011E+02 0.  0.
          5    1    5    5  501    0 -0.28433184120E+01  0.11328607246E+02  0.74813348766E+03  0.74823941834E+03  0.47000000000E+01 0. -1.
        -11    1    6    6    0    0 -0.25985136491E+02 -0.23113975375E+02  0.18711442700E+03  0.19031892173E+03  0.00000000000E+00 0.  1.
         12    1    6    6    0    0 -0.15016379266E+03  0.64485954077E+02  0.96522317329E+03  0.97896035525E+03  0.00000000000E+00 0. -1.
         -5    1    3    3    0  503  0.17231792232E+02 -0.48516318096E+02  0.45800995255E+00  0.51701717169E+02  0.47000000000E+01 0.  1.
         13    1    4    4    0    0  0.84357495252E+02  0.34285688024E+02  0.13685134534E+03  0.16437757186E+03  0.00000000000E+00 0. -1.
        -14    1    4    4    0    0  0.77402960077E+02 -0.38469955877E+02  0.80236050778E+02  0.11793633697E+03  0.00000000000E+00 0.  1.
</event>
<event>
12    1  0.8421768E-002  0.1831251E+03  0.7818608E-02  0.1165873E+00
         21   -1    0    0  501  502  0.00000000000E+00  0.00000000000E+00  0.18554691506E+03  0.18554691506E+03  0.00000000000E+00 0. -1.
         21   -1    0    0  502  503 -0.00000000000E+00 -0.00000000000E+00 -0.19916469040E+03  0.19916469040E+03  0.00000000000E+00 0. -1.
         -6    2    1    2    0  503 -0.49842229556E+02  0.10087170498E+02  0.58155049767E+02  0.19213745977E+03  0.17592269546E+03 0.  0.
        -24    2    3    3    0    0 -0.91162605884E+02  0.30079577009E+02  0.71117850872E+02  0.14420840772E+03  0.80764562027E+02 0.  0.
          6    2    1    2  501    0  0.49842229556E+02 -0.10087170498E+02 -0.71772825104E+02  0.19257414569E+03  0.17131101631E+03 0.  0.
         24    2    5    5    0    0  0.81679575056E+02  0.33168332345E+02 -0.30702198912E+02  0.12479847579E+03  0.82827189310E+02 0.  0.
          5    1    5    5  501    0 -0.31837345501E+02 -0.43255502843E+02 -0.41070626192E+02  0.67775669901E+02  0.47000000000E+01 0. -1.
        -13    1    6    6    0    0  0.61284929240E+02 -0.12009285915E+02 -0.40280099994E+02  0.74313874583E+02  0.00000000000E+00 0.  1.
         14    1    6    6    0    0  0.20394645817E+02  0.45177618260E+02  0.95779010823E+01  0.50484601204E+02  0.00000000000E+00 0. -1.
         -5    1    3    3    0  503  0.41320376328E+02 -0.19992406511E+02 -0.12962801105E+02  0.47929052051E+02  0.47000000000E+01 0.  1.
         11    1    4    4    0    0 -0.50507207101E+02  0.25397955356E+02 -0.60542670658E+01  0.56856734474E+02  0.00000000000E+00 0. -1.
        -12    1    4    4    0    0 -0.40655398783E+02  0.46816216534E+01  0.77172117938E+02  0.87351673244E+02  0.00000000000E+00 0.  1.
</event>
<event>
12    1  0.8421768E-002  0.1727134E+03  0.7818608E-02  0.1175058E+00
         21   -1    0    0  501  502  0.00000000000E+00  0.00000000000E+00  0.29279097637E+03  0.29279097637E+03  0.00000000000E+00 0. -1.
         21   -1    0    0  502  503 -0.00000000000E+00 -0.00000000000E+00 -0.14806347724E+03  0.14806347724E+03  0.00000000000E+00 0. -1.
         -6    2    1    2    0  503  0.48801822038E+01  0.17698355698E+02 -0.50779701657E+02  0.17998477918E+03  0.17169418937E+03 0.  0.
        -24    2    3    3    0    0  0.13787160429E+02  0.59857435344E+02  0.11515689600E+02  0.10409322478E+03  0.83245360104E+02 0.  0.
          6    2    1    2  501    0 -0.48801822038E+01 -0.17698355698E+02  0.19550720079E+03  0.26086967443E+03  0.17173489309E+03 0.  0.
         24    2    5    5    0    0 -0.10948025999E+02 -0.75392633353E+02  0.98800446656E+02  0.14799924120E+03  0.79613684121E+02 0.  0.
          5    1    5    5  501    0  0.60678437950E+01  0.57694277655E+02  0.96706754129E+02  0.11287043323E+03  0.47000000000E+01 0. -1.
        -13    1    6    6    0    0  0.18946682678E+02 -0.27749699862E+02 -0.80490020514E+00  0.33610571124E+02  0.00000000000E+00 0.  1.
         14    1    6    6    0    0 -0.29894708677E+02 -0.47642933491E+02  0.99605346861E+02  0.11438867008E+03  0.00000000000E+00 0. -1.
         -5    1    3    3    0  503 -0.89069782253E+01 -0.42159079646E+02 -0.62295391257E+02  0.75891554402E+02  0.47000000000E+01 0.  1.
         11    1    4    4    0    0  0.31255260647E+02 -0.29887858937E+01 -0.13572997021E+02  0.34205999582E+02  0.00000000000E+00 0. -1.
        -12    1    4    4    0    0 -0.17468100218E+02  0.62846221238E+02  0.25088686621E+02  0.69887225195E+02  0.00000000000E+00 0.  1.
</event>
<event>
12    1  0.8421768E-002  0.1836426E+03  0.7818608E-02  0.1164324E+00
         21   -1    0    0  501  502  0.00000000000E+00  0.00000000000E+00  0.24101058268E+03  0.24101058268E+03  0.00000000000E+00 0. -1.
         21   -1    0    0  502  503 -0.00000000000E+00 -0.00000000000E+00 -0.21245486731E+03  0.21245486731E+03  0.00000000000E+00 0. -1.
         -6    2    1    2    0  503  0.39443664320E+02  0.49984857689E+02 -0.11819614718E+03  0.21839168373E+03  0.17225071745E+03 0.  0.
        -24    2    3    3    0    0 -0.40423911962E+02  0.46879595384E+02 -0.77215264924E+02  0.12844728365E+03  0.81882344980E+02 0.  0.
          6    2    1    2  501    0 -0.39443664320E+02 -0.49984857689E+02  0.14675186255E+03  0.23507376626E+03  0.17224772211E+03 0.  0.
         24    2    5    5    0    0  0.45221419024E+01 -0.44747219439E+02  0.56485788296E+01  0.87112110262E+02  0.74389850763E+02 0.  0.
          5    1    5    5  501    0 -0.43965806222E+02 -0.52376382500E+01  0.14110328372E+03  0.14796165600E+03  0.47000000000E+01 0. -1.
        -11    1    6    6    0    0 -0.58937410987E+00 -0.22740825405E+02 -0.34335016811E+02  0.41187205312E+02  0.00000000000E+00 0.  1.
         12    1    6    6    0    0  0.51115160122E+01 -0.22006394034E+02  0.39983595641E+02  0.45924904950E+02  0.00000000000E+00 0. -1.
         -5    1    3    3    0  503  0.79867576282E+02  0.31052623056E+01 -0.40980882255E+02  0.89944400078E+02  0.47000000000E+01 0.  1.
         11    1    4    4    0    0  0.22784899750E+02  0.28114613426E+02 -0.21273786600E+02  0.41978055470E+02  0.00000000000E+00 0. -1.
        -12    1    4    4    0    0 -0.63208811712E+02  0.18764981958E+02 -0.55941478324E+02  0.86469228185E+02  0.00000000000E+00 0.  1.
</event>
<event>
12    1  0.8421768E-002  0.1771508E+03  0.7818608E-02  0.1170652E+00
         21   -1    0    0  503  502  0.00000000000E+00  0.00000000000E+00  0.10750515797E+04  0.10750515797E+04  0.00000000000E+00 0. -1.
         21   -1    0    0  501  503 -0.00000000000E+00 -0.00000000000E+00 -0.32923812602E+02  0.32923812602E+02  0.00000000000E+00 0. -1.
          6    2    1    2  501    0  0.27256155278E+02 -0.32736078649E+02  0.33382857965E+03  0.37792054474E+03  0.17195310029E+03 0.  0.
         24    2    3    3    0    0 -0.15942321743E+02 -0.61942169538E+02  0.11948418779E+03  0.15727441972E+03  0.79798383306E+02 0.  0.
         -6    2    1    2    0  502 -0.27256155278E+02  0.32736078649E+02  0.70829918747E+03  0.73005484758E+03  0.17169098015E+03 0.  0.
        -24    2    5    5    0    0 -0.36545852526E+02  0.74675791713E+02  0.63412656960E+03  0.64421251975E+03  0.77338160830E+02 0.  0.
          5    1    3    3  501    0  0.43198477020E+02  0.29206090889E+02  0.21434439186E+03  0.22064612502E+03  0.47000000000E+01 0. -1.
        -13    1    4    4    0    0 -0.44387808852E+02 -0.20701754609E+02  0.78597193982E+02  0.92608634157E+02  0.00000000000E+00 0.  1.
         14    1    4    4    0    0  0.28445487109E+02 -0.41240414929E+02  0.40886993805E+02  0.64665785566E+02  0.00000000000E+00 0. -1.
         -5    1    5    5    0  502  0.92896972481E+01 -0.41939713063E+02  0.74172617867E+02  0.85842327834E+02  0.47000000000E+01 0.  1.
         13    1    6    6    0    0 -0.38462164023E+02 -0.24016420265E+00  0.19991895261E+03  0.20358532204E+03  0.00000000000E+00 0. -1.
        -14    1    6    6    0    0  0.19163114978E+01  0.74915955915E+02  0.43420761700E+03  0.44062719771E+03  0.00000000000E+00 0.  1.
</event>
<event>
12    1  0.8421768E-002  0.3116363E+03  0.7818608E-02  0.1079747E+00
         21   -1    0    0  501  502  0.00000000000E+00  0.00000000000E+00  0.11673860124E+03  0.11673860124E+03  0.00000000000E+00 0. -1.
         21   -1    0    0  502  503 -0.00000000000E+00 -0.00000000000E+00 -0.99871134233E+03  0.99871134233E+03  0.00000000000E+00 0. -1.
         -6    2    1    2    0  503  0.92154305544E+02  0.24203571127E+03 -0.67259125221E+03  0.74128009708E+03  0.17333057495E+03 0.  0.
        -24    2    3    3    0    0  0.10330162584E+03  0.25737604449E+03 -0.59260681577E+03  0.65894426863E+03  0.78173249193E+02 0.  0.
          6    2    1    2  501    0 -0.92154305544E+02 -0.24203571127E+03 -0.20938148887E+03  0.37416984650E+03  0.17055428633E+03 0.  0.
         24    2    5    5    0    0  0.16160131748E+02 -0.92143488711E+02 -0.10834928733E+03  0.16338727735E+03  0.78767137588E+02 0.  0.
          5    1    5    5  501    0 -0.10831443729E+03 -0.14989222256E+03 -0.10103220154E+03  0.21078256915E+03  0.47000000000E+01 0. -1.
        -13    1    6    6    0    0  0.45686807593E+02 -0.42560853109E+02 -0.41008177497E+02  0.74701949286E+02  0.00000000000E+00 0.  1.
         14    1    6    6    0    0 -0.29526675845E+02 -0.49582635601E+02 -0.67341109835E+02  0.88685328062E+02  0.00000000000E+00 0. -1.
         -5    1    3    3    0  503 -0.11147320292E+02 -0.15340333218E+02 -0.79984436447E+02  0.82335828451E+02  0.47000000000E+01 0.  1.
         13    1    4    4    0    0  0.76308140863E+02  0.24546382192E+03 -0.55017264624E+03  0.60726053791E+03  0.00000000000E+00 0. -1.
        -14    1    4    4    0    0  0.26993484972E+02  0.11912222566E+02 -0.42434169529E+02  0.51683730719E+02  0.00000000000E+00 0.  1.
</event>
<event>
12    1  0.8421768E-002  0.1763050E+03  0.7818608E-02  0.1171561E+00
         21   -1    0    0  503  502  0.00000000000E+00  0.00000000000E+00  0.14580645487E+03  0.14580645487E+03  0.00000000000E+00 0.  1.
         21   -1    0    0  501  503 -0.00000000000E+00 -0.00000000000E+00 -0.61355245787E+03  0.61355245787E+03  0.00000000000E+00 0.  1.
          6    2    1    2  501    0  0.36364103957E+02  0.14819057734E+02 -0.54070286920E+03  0.56855492864E+03  0.17132764396E+03 0.  0.
         24    2    3    3    0    0  0.42798871532E+01 -0.14458634933E+02 -0.50587252706E+03  0.51268165247E+03  0.81902952254E+02 0.  0.
         -6    2    1    2    0  502 -0.36364103957E+02 -0.14819057734E+02  0.72956866204E+02  0.19080398410E+03  0.17187641924E+03 0.  0.
        -24    2    5    5    0    0 -0.23850366379E+02  0.43720328447E+02 -0.40405033608E+01  0.93161072001E+02  0.78627937611E+02 0.  0.
          5    1    3    3  501    0  0.32084216804E+02  0.29277692668E+02 -0.34830342146E+02  0.55873276169E+02  0.47000000000E+01 0. -1.
        -11    1    4    4    0    0  0.13108748084E+02  0.29702262016E+02 -0.12466641754E+03  0.12882460676E+03  0.00000000000E+00 0.  1.
         12    1    4    4    0    0 -0.88288609307E+01 -0.44160896949E+02 -0.38120610952E+03  0.38385704571E+03  0.00000000000E+00 0. -1.
         -5    1    5    5    0  502 -0.12513737578E+02 -0.58539386181E+02  0.76997369564E+02  0.97642912095E+02  0.47000000000E+01 0.  1.
         11    1    6    6    0    0 -0.87941589125E+01 -0.22331136492E+02 -0.80031109604E+01  0.25299538988E+02  0.00000000000E+00 0. -1.
        -12    1    6    6    0    0 -0.15056207467E+02  0.66051464938E+02  0.39626075995E+01  0.67861533012E+02  0.00000000000E+00 0.  1.
</event>
<event>
12    1  0.8421768E-002  0.2047102E+03  0.7818608E-02  0.1145828E+00
         21   -1    0    0  501  502  0.00000000000E+00  0.00000000000E+00  0.70662248995E+02  0.70662248995E+02  0.00000000000E+00 0. -1.
         21   -1    0    0  502  503 -0.00000000000E+00 -0.00000000000E+00 -0.94340331292E+03  0.94340331292E+03  0.00000000000E+00 0. -1.
         -6    2    1    2    0  503 -0.11112069181E+03  0.94868303359E+01 -0.12735332615E+03  0.24107839812E+03  0.17164532112E+03 0.  0.
        -24    2    3    3    0    0 -0.72701383457E+02 -0.35325361854E+02 -0.13158473605E+02  0.11244430400E+03  0.77053252540E+02 0.  0.
          6    2    1    2  501    0  0.11112069181E+03 -0.94868303359E+01 -0.74538773778E+03  0.77298716380E+03  0.17166382168E+03 0.  0.
         24    2    5    5    0    0  0.12451237751E+03 -0.53279411791E+02 -0.60563416350E+03  0.62584682616E+03  0.80928869661E+02 0.  0.
          5    1    5    5  501    0 -0.13391685708E+02  0.43792581455E+02 -0.13975357428E+03  0.14714033764E+03  0.47000000000E+01 0. -1.
        -13    1    6    6    0    0  0.67572233700E+02 -0.37569823884E+02 -0.17682468189E+03  0.19298825498E+03  0.00000000000E+00 0.  1.
         14    1    6    6    0    0  0.56940143813E+02 -0.15709587907E+02 -0.42880948161E+03  0.43285857118E+03  0.00000000000E+00 0. -1.
         -5    1    3    3    0  503 -0.38419308349E+02  0.44812192190E+02 -0.11419485255E+03  0.12863409412E+03  0.47000000000E+01 0.  1.
         13    1    4    4    0    0 -0.74594787362E+02 -0.31416853802E+02  0.16385692434E+02  0.82582636922E+02  0.00000000000E+00 0. -1.
        -14    1    4    4    0    0  0.18934039053E+01 -0.39085080521E+01 -0.29544166039E+02  0.29861667074E+02  0.00000000000E+00 0.  1.
</event>
<event>
12    1  0.8421768E-002  0.2312084E+03  0.7818608E-02  0.1126273E+00
         21   -1    0    0  503  502  0.00000000000E+00  0.00000000000E+00  0.53884755497E+03  0.53884755497E+03  0.00000000000E+00 0.  1.
         21   -1    0    0  501  503 -0.00000000000E+00 -0.00000000000E+00 -0.10070474639E+03  0.10070474639E+03  0.00000000000E+00 0. -1.
          6    2    1    2  501    0  0.14995621656E+03  0.15539796828E+02  0.26985639164E+03  0.35358438887E+03  0.17167147629E+03 0.  0.
         24    2    3    3    0    0  0.14168935916E+03 -0.32215337843E+02  0.25253078189E+03  0.30190111718E+03  0.79112491196E+02 0.  0.
         -6    2    1    2    0  502 -0.14995621656E+03 -0.15539796828E+02  0.16828641695E+03  0.28596791249E+03  0.17529682449E+03 0.  0.
        -24    2    5    5    0    0 -0.17989834631E+03 -0.21447548486E+00  0.14636198951E+03  0.24554307945E+03  0.80660466696E+02 0.  0.
          5    1    3    3  501    0  0.82668574020E+01  0.47755134671E+02  0.17325609746E+02  0.51683271683E+02  0.47000000000E+01 0. -1.
        -13    1    4    4    0    0 -0.95075685064E+01 -0.69943006186E+01  0.13382881544E+02  0.17844204058E+02  0.00000000000E+00 0.  1.
         14    1    4    4    0    0  0.15119692767E+03 -0.25221037225E+02  0.23914790035E+03  0.28405691313E+03  0.00000000000E+00 0. -1.
         -5    1    5    5    0  502  0.29942129749E+02 -0.15325321343E+02  0.21924427441E+02  0.40424833046E+02  0.47000000000E+01 0.  1.
         13    1    6    6    0    0 -0.10247979626E+03  0.69183957267E+01  0.32619301697E+02  0.10776823133E+03  0.00000000000E+00 0. -1.
        -14    1    6    6    0    0 -0.77418550051E+02 -0.71328712116E+01  0.11374268781E+03  0.13777484812E+03  0.00000000000E+00 0.  1.
</event>
<event>
12    1  0.8421768E-002  0.2126835E+03  0.7818608E-02  0.1140967E+00
         21   -1    0    0  501  502  0.00000000000E+00  0.00000000000E+00  0.58015565581E+03  0.58015565581E+03  0.00000000000E+00 0. -1.
         21   -1    0    0  502  503 -0.00000000000E+00 -0.00000000000E+00 -0.35258982955E+03  0.35258982955E+03  0.00000000000E+00 0. -1.
         -6    2    1    2    0  503 -0.37619808102E+02 -0.11940233201E+03 -0.30029726436E+03  0.36364645700E+03  0.16244424230E+03 0.  0.
        -24    2    3    3    0    0 -0.74613681149E+02 -0.82532825397E+02 -0.26984039499E+03  0.30300308925E+03  0.81352102869E+02 0.  0.
          6    2    1    2  501    0  0.37619808102E+02  0.11940233201E+03  0.52786309062E+03  0.56909902836E+03  0.17193631027E+03 0.  0.
         24    2    5    5    0    0  0.81363554548E+02  0.12430277631E+03  0.41576970885E+03  0.44858120418E+03  0.79305975456E+02 0.  0.
          5    1    5    5  501    0 -0.43743746446E+02 -0.49004442999E+01  0.11209338178E+03  0.12051782418E+03  0.47000000000E+01 0. -1.
        -11    1    6    6    0    0 -0.16022153658E+02  0.19125417515E+02  0.67782166385E+02  0.72228201437E+02  0.00000000000E+00 0.  1.
         12    1    6    6    0    0  0.97385708207E+02  0.10517735879E+03  0.34798754246E+03  0.37635300274E+03  0.00000000000E+00 0. -1.
         -5    1    3    3    0  503  0.36993873046E+02 -0.36869506609E+02 -0.30456869365E+02  0.60643367750E+02  0.47000000000E+01 0.  1.
         11    1    4    4    0    0 -0.58893342559E+02 -0.29539629048E+02 -0.21605585845E+03  0.22587861664E+03  0.00000000000E+00 0. -1.
        -12    1    4    4    0    0 -0.15720338590E+02 -0.52993196349E+02 -0.53784536540E+02  0.77124472611E+02  0.00000000000E+00 0.  1.
</event>
<event>
12    1  0.8421768E-002  0.2492179E+03  0.7818608E-02  0.1114146E+00
         21   -1    0    0  501  502  0.00000000000E+00  0.00000000000E+00  0.61699695836E+02  0.61699695836E+02  0.00000000000E+00 0.  1.
         21   -1    0    0  502  503 -0.00000000000E+00 -0.00000000000E+00 -0.13266461887E+04  0.13266461887E+04  0.00000000000E+00 0. -1.
         -6    2    1    2    0  503 -0.17750396551E+03 -0.29030646913E+02 -0.97595337951E+03  0.10067353531E+04  0.16935358269E+03 0.  0.
        -24    2    3    3    0    0 -0.78252715169E+02 -0.61220046543E+02 -0.67943075956E+03  0.69235545188E+03  0.88648368255E+02 0.  0.
          6    2    1    2  501    0  0.17750396551E+03  0.29030646913E+02 -0.28899311338E+03  0.38161053146E+03  0.17250838215E+03 0.  0.
         24    2    5    5    0    0  0.19962051827E+03  0.48307836810E+01 -0.26361165698E+03  0.33988423741E+03  0.78476119666E+02 0.  0.
          5    1    5    5  501    0 -0.22116552763E+02  0.24199863232E+02 -0.25381456400E+02  0.41726294055E+02  0.47000000000E+01 0. -1.
        -11    1    6    6    0    0  0.17958152005E+03  0.16535756616E+02 -0.18682040267E+03  0.25966289000E+03  0.00000000000E+00 0.  1.
         12    1    6    6    0    0  0.20038998217E+02 -0.11704972935E+02 -0.76791254310E+02  0.80221347405E+02  0.00000000000E+00 0. -1.
         -5    1    3    3    0  503 -0.99251250339E+02  0.32189399631E+02 -0.29652261996E+03  0.31437990122E+03  0.47000000000E+01 0.  1.
         11    1    4    4    0    0 -0.78560312873E+02 -0.45641989317E+02 -0.32165869172E+03  0.33424426384E+03  0.00000000000E+00 0. -1.
        -12    1    4    4    0    0  0.30759770373E+00 -0.15578057226E+02 -0.35777206783E+03  0.35811118805E+03  0.00000000000E+00 0.  1.
</event>
<event>
12    1  0.8421768E-002  0.2234848E+03  0.7818608E-02  0.1131768E+00
         21   -1    0    0  503  502  0.00000000000E+00  0.00000000000E+00  0.17405022602E+03  0.17405022602E+03  0.00000000000E+00 0. -1.
         21   -1    0    0  501  503 -0.00000000000E+00 -0.00000000000E+00 -0.29029045737E+03  0.29029045737E+03  0.00000000000E+00 0.  1.
          6    2    1    2  501    0  0.82299009595E+02  0.11327538445E+03 -0.23662767927E+02  0.22473407416E+03  0.17418678997E+03 0.  0.
         24    2    3    3    0    0  0.38565822744E+02  0.12219068795E+03 -0.62977523586E+02  0.16506989495E+03  0.82849350248E+02 0.  0.
         -6    2    1    2    0  502 -0.82299009595E+02 -0.11327538445E+03 -0.92577463424E+02  0.23960660924E+03  0.17098625896E+03 0.  0.
        -24    2    5    5    0    0  0.12408143724E+02 -0.90946823211E+02 -0.38090931776E+02  0.12798724861E+03  0.80650666700E+02 0.  0.
          5    1    3    3  501    0  0.43733186851E+02 -0.89153034984E+01  0.39314755659E+02  0.59664179213E+02  0.47000000000E+01 0. -1.
        -11    1    4    4    0    0  0.41315970080E+02  0.71084467250E+02 -0.76317173828E+02  0.11217986401E+03  0.00000000000E+00 0.  1.
         12    1    4    4    0    0 -0.27501473360E+01  0.51106220698E+02  0.13339650241E+02  0.52890030941E+02  0.00000000000E+00 0. -1.
         -5    1    5    5    0  502 -0.94707153319E+02 -0.22328561238E+02 -0.54486531647E+02  0.11161936063E+03  0.47000000000E+01 0.  1.
         13    1    6    6    0    0 -0.28674331745E+02 -0.70123940373E+02 -0.28483862105E+02  0.80937721212E+02  0.00000000000E+00 0. -1.
        -14    1    6    6    0    0  0.41082475469E+02 -0.20822882838E+02 -0.96070696713E+01  0.47049527394E+02  0.00000000000E+00 0.  1.
</event>
<event>
12    1  0.8421768E-002  0.2279890E+03  0.7818608E-02  0.1128287E+00
         21   -1    0    0  503  502  0.00000000000E+00  0.00000000000E+00  0.17265726864E+04  0.17265726864E+04  0.00000000000E+00 0.  1.
         21   -1    0    0  501  503 -0.00000000000E+00 -0.00000000000E+00 -0.83362238315E+02  0.83362238315E+02  0.00000000000E+00 0.  1.
          6    2    1    2  501    0  0.11048121714E+03  0.10031310552E+03  0.96337911891E+02  0.24635134293E+03  0.17070199885E+03 0.  0.
         24    2    3    3    0    0  0.18902416143E+02  0.74870635147E+02 -0.22911740347E+00  0.11077377384E+03  0.79422056971E+02 0.  0.
         -6    2    1    2    0  502 -0.11048121714E+03 -0.10031310552E+03  0.15468725362E+04  0.15635835818E+04  0.17236634106E+03 0.  0.
        -24    2    5    5    0    0 -0.25504139062E+01 -0.26730525753E+02  0.87645094492E+03  0.88053844830E+03  0.80378320914E+02 0.  0.
          5    1    3    3  501    0  0.91578800999E+02  0.25442470376E+02  0.96567029295E+02  0.13557756908E+03  0.47000000000E+01 0. -1.
        -11    1    4    4    0    0  0.30021750584E+02  0.87519372711E+02  0.62333318914E+01  0.92735109502E+02  0.00000000000E+00 0.  1.
         12    1    4    4    0    0 -0.11119334441E+02 -0.12648737564E+02 -0.64624492949E+01  0.18038664343E+02  0.00000000000E+00 0. -1.
         -5    1    5    5    0  502 -0.10793080324E+03 -0.73582579771E+02  0.67042159131E+03  0.68304513352E+03  0.47000000000E+01 0.  1.
         13    1    6    6    0    0 -0.48624128991E+01 -0.54617700008E+02  0.48533971974E+03  0.48842745599E+03  0.00000000000E+00 0. -1.
        -14    1    6    6    0    0  0.23119989930E+01  0.27887174255E+02  0.39111122518E+03  0.39211099231E+03  0.00000000000E+00 0.  1.
</event>
<event>
12    1  0.8421768E-002  0.1989956E+03  0.7818608E-02  0.1151162E+00
         21   -1    0    0  501  502  0.00000000000E+00  0.00000000000E+00  0.63449617740E+03  0.63449617740E+03  0.00000000000E+00 0.  1.
         21   -1    0    0  502  503 -0.00000000000E+00 -0.00000000000E+00 -0.89878417349E+02  0.89878417349E+02  0.00000000000E+00 0. -1.
         -6    2    1    2    0  503  0.85443880068E+02 -0.41219569211E+02  0.70323634548E+02  0.21105606591E+03  0.17492724160E+03 0.  0.
        -24    2    3    3    0    0  0.11135625083E+03  0.11409252664E+02  0.34195734519E+02  0.14200131219E+03  0.80402977299E+02 0.  0.
          6    2    1    2  501    0 -0.85443880068E+02  0.41219569211E+02  0.47429412550E+03  0.51331852884E+03  0.17187578374E+03 0.  0.
         24    2    5    5    0    0 -0.25799237954E+02  0.86249865719E+02  0.30210022408E+03  0.32554728337E+03  0.81313272641E+02 0.  0.
          5    1    5    5  501    0 -0.59644642113E+02 -0.45030296508E+02  0.17219390142E+03  0.18777124546E+03  0.47000000000E+01 0. -1.
        -11    1    6    6    0    0 -0.34795597362E+01  0.71336738146E+02  0.10723889154E+03  0.12884571163E+03  0.00000000000E+00 0.  1.
         12    1    6    6    0    0 -0.22319678218E+02  0.14913127573E+02  0.19486133254E+03  0.19670157175E+03  0.00000000000E+00 0. -1.
         -5    1    3    3    0  503 -0.25912370765E+02 -0.52628821875E+02  0.36127900030E+02  0.69054753719E+02  0.47000000000E+01 0.  1.
         11    1    4    4    0    0  0.83279203024E+02  0.24321987053E+02 -0.10786370357E+02  0.87426143093E+02  0.00000000000E+00 0. -1.
        -12    1    4    4    0    0  0.28077047809E+02 -0.12912734388E+02  0.44982104875E+02  0.54575169098E+02  0.00000000000E+00 0.  1.
</event>
<event>
12    1  0.8421768E-002  0.2121363E+03  0.7818608E-02  0.1140489E+00
         21   -1    0    0  503  502  0.00000000000E+00  0.00000000000E+00  0.82290561250E+02  0.82290561250E+02  0.00000000000E+00 0. -1.
         21   -1    0    0  501  503 -0.00000000000E+00 -0.00000000000E+00 -0.55439674477E+03  0.55439674477E+03  0.00000000000E+00 0. -1.
          6    2    1    2  501    0 -0.11478310728E+03  0.40881866552E+02 -0.18131200042E+03  0.27673858708E+03  0.16989324693E+03 0.  0.
         24    2    3    3    0    0 -0.28144039182E+01  0.22638141684E+02 -0.12145160313E+03  0.14838290472E+03  0.82137617347E+02 0.  0.
         -6    2    1    2    0  502  0.11478310728E+03 -0.40881866552E+02 -0.29079418311E+03  0.35994871895E+03  0.17365291420E+03 0.  0.
        -24    2    5    5    0    0  0.28211616435E+02 -0.35026776949E+02 -0.40486155434E+02  0.94986261568E+02  0.73215372017E+02 0.  0.
          5    1    3    3  501    0 -0.11196870336E+03  0.18243724868E+02 -0.59860397289E+02  0.12835568236E+03  0.47000000000E+01 0. -1.
        -13    1    4    4    0    0  0.25298447645E+02 -0.17852612652E+01 -0.46446613060E+01  0.25783162911E+02  0.00000000000E+00 0.  1.
         14    1    4    4    0    0 -0.28112851563E+02  0.24423402949E+02 -0.11680694182E+03  0.12259974181E+03  0.00000000000E+00 0. -1.
         -5    1    5    5    0  502  0.86571490845E+02 -0.58550896029E+01 -0.25030802767E+03  0.26496245738E+03  0.47000000000E+01 0.  1.
         11    1    6    6    0    0  0.52488210882E+02 -0.15480478626E+02 -0.27093379216E+02  0.61063153353E+02  0.00000000000E+00 0. -1.
        -12    1    6    6    0    0 -0.24276594448E+02 -0.19546298323E+02 -0.13392776219E+02  0.33923108215E+02  0.00000000000E+00 0.  1.
</event>
<event>
12    1  0.8421768E-002  0.2057667E+03  0.7818608E-02  0.1145128E+00
         21   -1    0    0  501  502  0.00000000000E+00  0.00000000000E+00  0.23546846730E+02  0.23546846730E+02  0.00000000000E+00 0. -1.
         21   -1    0    0  502  503 -0.00000000000E+00 -0.00000000000E+00 -0.19210499009E+04  0.19210499009E+04  0.00000000000E+00 0. -1.
         -6    2    1    2    0  503  0.16196793747E+02 -0.11057750472E+03 -0.69405439775E+03  0.72368372879E+03  0.17180486491E+03 0.  0.
        -24    2    3    3    0    0  0.59059829073E+02 -0.74241988975E+02 -0.29023058372E+03  0.31594205532E+03  0.81152044099E+02 0.  0.
          6    2    1    2  501    0 -0.16196793747E+02  0.11057750472E+03 -0.12034486565E+04  0.12209130189E+04  0.17277213390E+03 0.  0.
         24    2    5    5    0    0 -0.11803858796E+02  0.94807559170E+01 -0.27106581147E+03  0.28304324640E+03  0.80047419505E+02 0.  0.
          5    1    5    5  501    0 -0.43929349506E+01  0.10109674880E+03 -0.93238284499E+03  0.93786977247E+03  0.47000000000E+01 0. -1.
        -11    1    6    6    0    0  0.27415010024E+02 -0.42707931315E+01 -0.18928977075E+03  0.19131241402E+03  0.00000000000E+00 0.  1.
         12    1    6    6    0    0 -0.39218868820E+02  0.13751549049E+02 -0.81776040719E+02  0.91730832376E+02  0.00000000000E+00 0. -1.
         -5    1    3    3    0  503 -0.42863035326E+02 -0.36335515743E+02 -0.40382381403E+03  0.40774167347E+03  0.47000000000E+01 0.  1.
         13    1    4    4    0    0  0.26203922799E+02 -0.86032174273E+02 -0.20953818691E+03  0.22802287682E+03  0.00000000000E+00 0. -1.
        -14    1    4    4    0    0  0.32855906274E+02  0.11790185298E+02 -0.80692396808E+02  0.87919178506E+02  0.00000000000E+00 0.  1.
</event>
<event>
12    1  0.8421768E-002  0.1896377E+03  0.7818608E-02  0.1158883E+00
         21   -1    0    0  503  502  0.00000000000E+00  0.00000000000E+00  0.10961192651E+04  0.10961192651E+04  0.00000000000E+00 0. -1.
         21   -1    0    0  501  503 -0.00000000000E+00 -0.00000000000E+00 -0.48663308193E+02  0.48663308193E+02  0.00000000000E+00 0. -1.
          6    2    1    2  501    0  0.13028287100E+02 -0.79177666588E+02  0.19587994320E+03  0.27234680402E+03  0.17136216141E+03 0.  0.
         24    2    3    3    0    0 -0.47118554662E+02 -0.39428254613E+01  0.10382449125E+03  0.13902681255E+03  0.79455808841E+02 0.  0.
         -6    2    1    2    0  502 -0.13028287100E+02  0.79177666588E+02  0.85157601375E+03  0.87243576931E+03  0.17182440230E+03 0.  0.
        -24    2    5    5    0    0  0.19660948064E+02  0.11214139103E+03  0.55761021845E+03  0.57478971771E+03  0.80571827634E+02 0.  0.
          5    1    3    3  501    0  0.60146841761E+02 -0.75234841127E+02  0.92055451950E+02  0.13331999148E+03  0.47000000000E+01 0. -1.
        -13    1    4    4    0    0  0.16998423043E+02 -0.54162718450E+01  0.56701848916E+02  0.59442258177E+02  0.00000000000E+00 0.  1.
         14    1    4    4    0    0 -0.64116977705E+02  0.14734463837E+01  0.47122642331E+02  0.79584554371E+02  0.00000000000E+00 0. -1.
         -5    1    5    5    0  502 -0.32689235164E+02 -0.32963724440E+02  0.29396579530E+03  0.29764605160E+03  0.47000000000E+01 0.  1.
         11    1    6    6    0    0  0.39203395026E+02  0.59330699691E+02  0.42205176793E+03  0.42800085621E+03  0.00000000000E+00 0. -1.
        -12    1    6    6    0    0 -0.19542446962E+02  0.52810691338E+02  0.13555845052E+03  0.14678886150E+03  0.00000000000E+00 0.  1.
</event>
<event>
12    1  0.8421768E-002  0.2382199E+03  0.7818608E-02  0.1121068E+00
         21   -1    0    0  503  502  0.00000000000E+00  0.00000000000E+00  0.39655211365E+03  0.39655211365E+03  0.00000000000E+00 0. -1.
         21   -1    0    0  501  503 -0.00000000000E+00 -0.00000000000E+00 -0.20607308048E+03  0.20607308048E+03  0.00000000000E+00 0.  1.
          6    2    1    2  501    0  0.13882043573E+02  0.16369793483E+03 -0.71783891284E+02  0.24832229341E+03  0.17181766311E+03 0.  0.
         24    2    3    3    0    0  0.32261901281E+02  0.18258055130E+02 -0.45403476965E+02  0.99296812246E+02  0.80151072047E+02 0.  0.
         -6    2    1    2    0  502 -0.13882043573E+02 -0.16369793483E+03  0.26226292445E+03  0.35430290072E+03  0.17250790971E+03 0.  0.
        -24    2    5    5    0    0 -0.49393793334E+02 -0.15588251758E+03  0.26025891512E+03  0.31758408850E+03  0.79911477637E+02 0.  0.
          5    1    3    3  501    0 -0.18379857709E+02  0.14543987970E+03 -0.26380414318E+02  0.14902548117E+03  0.47000000000E+01 0. -1.
        -13    1    4    4    0    0  0.53692706486E+01  0.23119860078E+01 -0.63100585819E+02  0.63370799879E+02  0.00000000000E+00 0.  1.
         14    1    4    4    0    0  0.26892630633E+02  0.15946069122E+02  0.17697108854E+02  0.35926012367E+02  0.00000000000E+00 0. -1.
         -5    1    5    5    0  502  0.35511749761E+02 -0.78154172476E+01  0.20040093355E+01  0.36718812226E+02  0.47000000000E+01 0.  1.
         11    1    6    6    0    0 -0.41946351630E+02 -0.15508410151E+03  0.19847859096E+03  0.25535137757E+03  0.00000000000E+00 0. -1.
        -12    1    6    6    0    0 -0.74474417041E+01 -0.79841607367E+00  0.61780324159E+02  0.62232710927E+02  0.00000000000E+00 0.  1.
</event>
<event>
12    1  0.8421768E-002  0.1942213E+03  0.7818608E-02  0.1155136E+00
         21   -1    0    0  501  502  0.00000000000E+00  0.00000000000E+00  0.10942320974E+03  0.10942320974E+03  0.00000000000E+00 0.  1.
         21   -1    0    0  502  503 -0.00000000000E+00 -0.00000000000E+00 -0.17688515622E+04  0.17688515622E+04  0.00000000000E+00 0.  1.
         -6    2    1    2    0  503  0.48928290366E+02  0.76708591749E+02 -0.16742023215E+04  0.16854303114E+04  0.17159177110E+03 0.  0.
        -24    2    3    3    0    0 -0.15849259764E+02  0.89458743106E+02 -0.85394078402E+03  0.86250274649E+03  0.80262440381E+02 0.  0.
          6    2    1    2  501    0 -0.48928290366E+02 -0.76708591749E+02  0.14773968952E+02  0.19284446054E+03  0.16938869547E+03 0.  0.
         24    2    5    5    0    0  0.22237410137E+02 -0.78998360201E+02  0.32699077545E+02  0.11927001194E+03  0.80130286114E+02 0.  0.
          5    1    5    5  501    0 -0.71165700503E+02  0.22897684517E+01 -0.17925108593E+02  0.73574448592E+02  0.47000000000E+01 0. -1.
        -13    1    6    6    0    0 -0.21892430147E+02 -0.19519047008E+02 -0.13172617122E+02  0.32152597651E+02  0.00000000000E+00 0.  1.
         14    1    6    6    0    0  0.44129840284E+02 -0.59479313192E+02  0.45871694667E+02  0.87117414292E+02  0.00000000000E+00 0. -1.
         -5    1    3    3    0  503  0.64777550129E+02 -0.12750151357E+02 -0.82026153744E+03  0.82292756495E+03  0.47000000000E+01 0.  1.
         11    1    4    4    0    0  0.12674202435E+01  0.54548767603E+02 -0.19712316581E+03  0.20453536834E+03  0.00000000000E+00 0. -1.
        -12    1    4    4    0    0 -0.17116680007E+02  0.34909975503E+02 -0.65681761821E+03  0.65796737816E+03  0.00000000000E+00 0.  1.
</event>
<event>
12    1  0.8421768E-002  0.1741783E+03  0.7818608E-02  0.1173933E+00
         21   -1    0    0  503  502  0.00000000000E+00  0.00000000000E+00  0.11681932386E+03  0.11681932386E+03  0.00000000000E+00 0. -1.
         21   -1    0    0  501  503 -0.00000000000E+00 -0.00000000000E+00 -0.29343581367E+03  0.29343581367E+03  0.00000000000E+00 0. -1.
          6    2    1    2  501    0  0.18921018628E+02 -0.11685164712E+02 -0.15975286493E+03  0.23526239568E+03  0.17126841200E+03 0.  0.
         24    2    3    3    0    0  0.10738726509E+02 -0.68784804867E+02 -0.13612360986E+03  0.17275039279E+03  0.80413875799E+02 0.  0.
         -6    2    1    2    0  502 -0.18921018628E+02  0.11685164712E+02 -0.16863624884E+02  0.17499274185E+03  0.17275279979E+03 0.  0.
        -24    2    5    5    0    0 -0.30348975353E+02  0.58036622535E+02  0.31606769787E+02  0.10679798401E+03  0.78214523150E+02 0.  0.
          5    1    3    3  501    0  0.81822921190E+01  0.57099640154E+02 -0.23629255064E+02  0.62512002887E+02  0.47000000000E+01 0. -1.
        -11    1    4    4    0    0 -0.34176812350E+02 -0.36814141112E+02 -0.53163339592E+02  0.73141480466E+02  0.00000000000E+00 0.  1.
         12    1    4    4    0    0  0.44915538859E+02 -0.31970663755E+02 -0.82960270271E+02  0.99608912329E+02  0.00000000000E+00 0. -1.
         -5    1    5    5    0  502  0.11427956725E+02 -0.46351457823E+02 -0.48470394670E+02  0.68194757839E+02  0.47000000000E+01 0.  1.
         11    1    6    6    0    0 -0.71308861715E+01 -0.58428788345E+01 -0.19626117007E+02  0.21683478490E+02  0.00000000000E+00 0. -1.
        -12    1    6    6    0    0 -0.23218089181E+02  0.63879501370E+02  0.51232886793E+02  0.85114505518E+02  0.00000000000E+00 0.  1.
</event>
<event>
12    1  0.8421768E-002  0.2814853E+03  0.7818608E-02  0.1095715E+00
         21   -1    0    0  503  502  0.00000000000E+00  0.00000000000E+00  0.17884392515E+04  0.17884392515E+04  0.00000000000E+00 0.  1.
         21   -1    0    0  501  503 -0.00000000000E+00 -0.00000000000E+00 -0.43354174000E+02  0.43354174000E+02  0.00000000000E+00 0.  1.
          6    2    1    2  501    0 -0.89835226299E+02 -0.20224604106E+03  0.87540271637E+03  0.91954547014E+03  0.17395438146E+03 0.  0.
         24    2    3    3    0    0 -0.10779447102E+03 -0.16299575073E+03  0.83206162093E+03  0.85819679195E+03  0.77381715928E+02 0.  0.
         -6    2    1    2    0  502  0.89835226299E+02  0.20224604106E+03  0.86968236116E+03  0.91224795539E+03  0.16393624914E+03 0.  0.
        -24    2    5    5    0    0 -0.11029833356E+02  0.92092131590E+02  0.29520706039E+03  0.31865583513E+03  0.76103316850E+02 0.  0.
          5    1    3    3  501    0  0.17959244717E+02 -0.39250290328E+02  0.43341095436E+02  0.61348678187E+02  0.47000000000E+01 0. -1.
        -11    1    4    4    0    0 -0.90331925121E+02 -0.16809249853E+03  0.78154899285E+03  0.80450840454E+03  0.00000000000E+00 0.  1.
         12    1    4    4    0    0 -0.17462545894E+02  0.50967477988E+01  0.50512628082E+02  0.53688387413E+02  0.00000000000E+00 0. -1.
         -5    1    5    5    0  502  0.10086505965E+03  0.11015390947E+03  0.57447530077E+03  0.59359212026E+03  0.47000000000E+01 0.  1.
         13    1    6    6    0    0 -0.34836618482E+02  0.68725928679E+02  0.25513820021E+03  0.26651893828E+03  0.00000000000E+00 0. -1.
        -14    1    6    6    0    0  0.23806785126E+02  0.23366202911E+02  0.40068860184E+02  0.52136896848E+02  0.00000000000E+00 0.  1.
</event>
<event>
12    1  0.8421768E-002  0.1761769E+03  0.7818608E-02  0.1171826E+00
         21   -1    0    0  501  502  0.00000000000E+00  0.00000000000E+00  0.60948525557E+03  0.60948525557E+03  0.00000000000E+00 0.  1.
         21   -1    0    0  502  503 -0.00000000000E+00 -0.00000000000E+00 -0.10706303931E+03  0.10706303931E+03  0.00000000000E+00 0.  1.
         -6    2    1    2    0  503 -0.33232049601E+02 -0.12061487268E+02 -0.93092153508E+01  0.17533913598E+03  0.17148557526E+03 0.  0.
        -24    2    3    3    0    0  0.88671085005E+00 -0.37696259609E+02  0.50246678063E+02  0.10192097877E+03  0.80258102477E+02 0.  0.
          6    2    1    2  501    0  0.33232049601E+02  0.12061487268E+02  0.51173143161E+03  0.54120915889E+03  0.17259329932E+03 0.  0.
         24    2    5    5    0    0  0.57217463130E+02  0.13346516703E+02  0.15734542265E+03  0.18597897337E+03  0.79866318989E+02 0.  0.
          5    1    5    5  501    0 -0.23985413530E+02 -0.12850294353E+01  0.35438600896E+03  0.35523018552E+03  0.47000000000E+01 0. -1.
        -13    1    6    6    0    0  0.62927574830E+02  0.17074328737E+02  0.16397820814E+03  0.17646604524E+03  0.00000000000E+00 0.  1.
         14    1    6    6    0    0 -0.57101117000E+01 -0.37278120341E+01 -0.66327854907E+01  0.95129281272E+01  0.00000000000E+00 0. -1.
         -5    1    3    3    0  503 -0.34118760451E+02  0.25634772341E+02 -0.59555893414E+02  0.73418157209E+02  0.47000000000E+01 0.  1.
         11    1    4    4    0    0 -0.17719381808E+02  0.18505742425E+02  0.29771988459E+02  0.39278623845E+02  0.00000000000E+00 0. -1.
        -12    1    4    4    0    0  0.18606092659E+02 -0.56202002034E+02  0.20474689604E+02  0.62642354929E+02  0.00000000000E+00 0.  1.
</event>
<event>
12    1  0.8421768E-002  0.2206066E+03  0.7818608E-02  0.1134283E+00
         21   -1    0    0  503  502  0.00000000000E+00  0.00000000000E+00  0.61945273442E+02  0.61945273442E+02  0.00000000000E+00 0.  1.
         21   -1    0    0  501  503 -0.00000000000E+00 -0.00000000000E+00 -0.12686593539E+04  0.12686593539E+04  0.00000000000E+00 0.  1.
          6    2    1    2  501    0  0.85269712447E+02  0.10290511250E+03 -0.10244253318E+04  0.10479096062E+04  0.17551893477E+03 0.  0.
         24    2    3    3    0    0  0.55585016841E+02  0.12516088884E+03 -0.55433204875E+03  0.57633110221E+03  0.78221332837E+02 0.  0.
         -6    2    1    2    0  502 -0.85269712447E+02 -0.10290511250E+03 -0.18228874867E+03  0.28269502108E+03  0.16978486684E+03 0.  0.
        -24    2    5    5    0    0 -0.11957414135E+03 -0.79700970427E+02 -0.17365654277E+03  0.24012941253E+03  0.82796859545E+02 0.  0.
          5    1    3    3  501    0  0.29684695606E+02 -0.22255776342E+02 -0.47009328301E+03  0.47157850403E+03  0.47000000000E+01 0. -1.
        -13    1    4    4    0    0  0.58858491327E+02  0.86759625249E+02 -0.49200047886E+03  0.50304674313E+03  0.00000000000E+00 0.  1.
         14    1    4    4    0    0 -0.32734744858E+01  0.38401263596E+02 -0.62331569885E+02  0.73284359077E+02  0.00000000000E+00 0. -1.
         -5    1    5    5    0  502  0.34304428904E+02 -0.23204142075E+02 -0.86322059079E+01  0.42565608544E+02  0.47000000000E+01 0.  1.
         11    1    6    6    0    0 -0.96807211985E+02 -0.96806301807E+02 -0.13663174551E+03  0.19342008748E+03  0.00000000000E+00 0. -1.
        -12    1    6    6    0    0 -0.22766929366E+02  0.17105331380E+02 -0.37024797262E+02  0.46709325050E+02  0.00000000000E+00 0.  1.
</event>
<event>
12    1  0.8421768E-002  0.1842549E+03  0.7818608E-02  0.1163845E+00
         21   -1    0    0  501  502  0.00000000000E+00  0.00000000000E+00  0.33544342945E+03  0.33544342945E+03  0.00000000000E+00 0. -1.
         21   -1    0    0  502  503 -0.00000000000E+00 -0.00000000000E+00 -0.10428448567E+03  0.10428448567E+03  0.00000000000E+00 0.  1.
         -6    2    1    2    0  503  0.57803475525E+02  0.26296779076E+02  0.76322389110E+02  0.19905339310E+03  0.17252357477E+03 0.  0.
        -24    2    3    3    0    0  0.76048454659E+02  0.88913496694E+01  0.11008104211E+03  0.15665569400E+03  0.80998438731E+02 0.  0.
          6    2    1    2  501    0 -0.57803475525E+02 -0.26296779076E+02  0.15483655467E+03  0.24067452202E+03  0.17296561657E+03 0.  0.
         24    2    5    5    0    0 -0.45942354673E+02 -0.22861703880E+01  0.18086205524E+03  0.20303661298E+03  0.79980351680E+02 0.  0.
          5    1    5    5  501    0 -0.11861120852E+02 -0.24010608688E+02 -0.26025500569E+02  0.37637909046E+02  0.47000000000E+01 0. -1.
        -13    1    6    6    0    0  0.76904910155E+01  0.25981607781E+02  0.88495357750E+02  0.92550612846E+02  0.00000000000E+00 0.  1.
         14    1    6    6    0    0 -0.53632845688E+02 -0.28267778169E+02  0.92366697492E+02  0.11048600013E+03  0.00000000000E+00 0. -1.
         -5    1    3    3    0  503 -0.18244979134E+02  0.17405429407E+02 -0.33758652998E+02  0.42397699097E+02  0.47000000000E+01 0.  1.
         13    1    4    4    0    0  0.96650468512E+01 -0.30082263404E+02  0.49378921245E+02  0.58622807553E+02  0.00000000000E+00 0. -1.
        -14    1    4    4    0    0  0.66383407808E+02  0.38973613074E+02  0.60702120863E+02  0.98032886449E+02  0.00000000000E+00 0.  1.
</event>
<event>
12    1  0.8421768E-002  0.3197514E+03  0.7818608E-02  0.1076327E+00
         21   -1    0    0  501  502  0.00000000000E+00  0.00000000000E+00  0.82698010939E+02  0.82698010939E+02  0.00000000000E+00 0. -1.
         21   -1    0    0  502  503 -0.00000000000E+00 -0.00000000000E+00 -0.12326836291E+04  0.12326836291E+04  0.00000000000E+00 0. -1.
         -6    2    1    2    0  503  0.22742055101E+03  0.13606692922E+03 -0.65203262757E+03  0.72621448574E+03  0.17890392850E+03 0.  0.
        -24    2    3    3    0    0  0.17231692717E+03  0.11013483271E+03 -0.31703124282E+03  0.38569003615E+03  0.80157284690E+02 0.  0.
          6    2    1    2  501    0 -0.22742055101E+03 -0.13606692922E+03 -0.49795299059E+03  0.58916715430E+03  0.17007774286E+03 0.  0.
         24    2    5    5    0    0 -0.45705719007E+02 -0.38990617402E+02 -0.10461701161E+03  0.14511831369E+03  0.80655594068E+02 0.  0.
          5    1    5    5  501    0 -0.18171483200E+03 -0.97076311820E+02 -0.39333597898E+03  0.44404884061E+03  0.47000000000E+01 0. -1.
        -11    1    6    6    0    0 -0.14799719145E+02  0.22640157329E+02 -0.51182320575E+02  0.57889881241E+02  0.00000000000E+00 0.  1.
         12    1    6    6    0    0 -0.30905999862E+02 -0.61630774730E+02 -0.53434691034E+02  0.87228432447E+02  0.00000000000E+00 0. -1.
         -5    1    3    3    0  503  0.55103623839E+02  0.25932096510E+02 -0.33500138475E+03  0.34052444960E+03  0.47000000000E+01 0.  1.
         13    1    4    4    0    0  0.12984914240E+03  0.43372757510E+02 -0.23319951062E+03  0.27041451076E+03  0.00000000000E+00 0. -1.
        -14    1    4    4    0    0  0.42467784778E+02  0.66762075201E+02 -0.83831732200E+02  0.11527552539E+03  0.00000000000E+00 0.  1.
</event>
<event>
12    1  0.8421768E-002  0.1949696E+03  0.7818608E-02  0.1154059E+00
         21   -1    0    0  503  502  0.00000000000E+00  0.00000000000E+00  0.18438548023E+03  0.18438548023E+03  0.00000000000E+00 0. -1.
         21   -1    0    0  501  503 -0.00000000000E+00 -0.00000000000E+00 -0.28391088731E+03  0.28391088731E+03  0.00000000000E+00 0.  1.
          6    2    1    2  501    0 -0.21982613275E+02  0.89228238711E+02 -0.17231137942E+03  0.26018351887E+03  0.17192829360E+03 0.  0.
         24    2    3    3    0    0 -0.52144930988E+01  0.55882580011E+02 -0.15695356754E+02  0.99112815867E+02  0.80168275262E+02 0.  0.
         -6    2    1    2    0  502  0.21982613275E+02 -0.89228238711E+02  0.72785972341E+02  0.20811284867E+03  0.17195419780E+03 0.  0.
        -24    2    5    5    0    0  0.72215433052E+02 -0.95081408204E+02  0.45281924637E+02  0.15035336100E+03  0.79373405543E+02 0.  0.
          5    1    3    3  501    0 -0.16768120176E+02  0.33345658699E+02 -0.15661602267E+03  0.16107070300E+03  0.47000000000E+01 0. -1.
        -11    1    4    4    0    0  0.32973995894E+02  0.41061249860E+02  0.55739392709E+01  0.52956391911E+02  0.00000000000E+00 0.  1.
         12    1    4    4    0    0 -0.38188488993E+02  0.14821330152E+02 -0.21269296025E+02  0.46156423956E+02  0.00000000000E+00 0. -1.
         -5    1    5    5    0  502 -0.50232819777E+02  0.58531694935E+01  0.27504047705E+02  0.57759487671E+02  0.47000000000E+01 0.  1.
         13    1    6    6    0    0  0.82628829728E+01 -0.76243697037E+02  0.23207748405E+02  0.80124753722E+02  0.00000000000E+00 0. -1.
        -14    1    6    6    0    0  0.63952550079E+02 -0.18837711167E+02  0.22074176232E+02  0.70228607276E+02  0.00000000000E+00 0.  1.
</event>
<event>
12    1  0.8421768E-002  0.3506339E+03  0.7818608E-02  0.1062381E+00
         21   -1    0    0  501  502  0.00000000000E+00  0.00000000000E+00  0.23012180555E+03  0.23012180555E+03  0.00000000000E+00 0.  1.
         21   -1    0    0  502  503 -0.00000000000E+00 -0.00000000000E+00 -0.75946901532E+03  0.75946901532E+03  0.00000000000E+00 0. -1.
         -6    2    1    2    0  503 -0.16047799385E+03  0.25991602692E+03 -0.53427862834E+03  0.63892228466E+03  0.17163480292E+03 0.  0.
        -24    2    3    3    0    0 -0.67757171103E+02  0.20013840117E+03 -0.43783522926E+03  0.49231418551E+03  0.77634756454E+02 0.  0.
          6    2    1    2  501    0  0.16047799385E+03 -0.25991602692E+03  0.49314185664E+01  0.35066853621E+03  0.17214696001E+03 0.  0.
         24    2    5    5    0    0  0.73376663001E+02 -0.12545853986E+03 -0.61987893098E+02  0.17698565871E+03  0.79733585165E+02 0.  0.
          5    1    5    5  501    0  0.87101330852E+02 -0.13445748706E+03  0.66919311664E+02  0.17368287750E+03  0.47000000000E+01 0. -1.
        -13    1    6    6    0    0  0.78373179077E+02 -0.68107023004E+02 -0.58809365198E+02  0.11932922197E+03  0.00000000000E+00 0.  1.
         14    1    6    6    0    0 -0.49965160758E+01 -0.57351516853E+02 -0.31785278996E+01  0.57656436743E+02  0.00000000000E+00 0. -1.
         -5    1    3    3    0  503 -0.92720822750E+02  0.59777625742E+02 -0.96443399078E+02  0.14660809915E+03  0.47000000000E+01 0.  1.
         13    1    4    4    0    0 -0.81783428653E+02  0.16815610315E+03 -0.39517752702E+03  0.43718449434E+03  0.00000000000E+00 0. -1.
        -14    1    4    4    0    0  0.14026257550E+02  0.31982298028E+02 -0.42657702240E+02  0.55129691169E+02  0.00000000000E+00 0.  1.
</event>
<event>
12    1  0.8421768E-002  0.1769925E+03  0.7818608E-02  0.1170960E+00
         21   -1    0    0  501  502  0.00000000000E+00  0.00000000000E+00  0.22391944712E+03  0.22391944712E+03  0.00000000000E+00 0. -1.
         21   -1    0    0  502  503 -0.00000000000E+00 -0.00000000000E+00 -0.37335296485E+03  0.37335296485E+03  0.00000000000E+00 0. -1.
         -6    2    1    2    0  503 -0.33905401541E+02  0.21193770925E+02 -0.31113927674E+03  0.35753275446E+03  0.17153212178E+03 0.  0.
        -24    2    3    3    0    0 -0.12633477451E+02  0.50383736587E+02 -0.30642790831E+03  0.32080625391E+03  0.79501345249E+02 0.  0.
          6    2    1    2  501    0  0.33905401541E+02 -0.21193770925E+02  0.16170575900E+03  0.23973965751E+03  0.17241693278E+03 0.  0.
         24    2    5    5    0    0 -0.25279419283E+02 -0.43107327309E+02  0.40542056540E+02  0.10304371842E+03  0.80480176753E+02 0.  0.
          5    1    5    5  501    0  0.59184820824E+02  0.21913556384E+02  0.12116370246E+03  0.13669593909E+03  0.47000000000E+01 0. -1.
        -13    1    6    6    0    0  0.91277568990E+01  0.19554150581E+02  0.16007474936E+01  0.21638926579E+02  0.00000000000E+00 0.  1.
         14    1    6    6    0    0 -0.34407176182E+02 -0.62661477891E+02  0.38941309046E+02  0.81404791840E+02  0.00000000000E+00 0. -1.
         -5    1    3    3    0  503 -0.21271924091E+02 -0.29189965662E+02 -0.47113684344E+01  0.36726500547E+02  0.47000000000E+01 0.  1.
         13    1    4    4    0    0 -0.33367254057E+02 -0.58133106922E+01 -0.13615733642E+03  0.14030676564E+03  0.00000000000E+00 0. -1.
        -14    1    4    4    0    0  0.20733776606E+02  0.56197047280E+02 -0.17027057189E+03  0.18049948827E+03  0.00000000000E+00 0.  1.
</event>
<event>
12    1  0.8421768E-002  0.1924050E+03  0.7818608E-02  0.1156417E+00
         21   -1    0    0  503  502  0.00000000000E+00  0.00000000000E+00  0.24607138895E+02  0.24607138895E+02  0.00000000000E+00 0.  1.
         21   -1    0    0  501  503 -0.00000000000E+00 -0.00000000000E+00 -0.23256298292E+04  0.23256298292E+04  0.00000000000E+00 0.  1.
          6    2    1    2  501    0  0.70575161429E+01  0.87945080555E+02 -0.18494702303E+04  0.18594016365E+04  0.17044109659E+03 0.  0.
         24    2    3    3    0    0 -0.67323792341E+01  0.31464247187E+02 -0.41400345644E+03  0.42275025410E+03  0.79269108853E+02 0.  0.
         -6    2    1    2    0  502 -0.70575161429E+01 -0.87945080555E+02 -0.45155245998E+03  0.49083533154E+03  0.17098407193E+03 0.  0.
        -24    2    5    5    0    0 -0.51437835712E+02 -0.90110436025E+02 -0.22433799709E+03  0.25926935029E+03  0.78277183380E+02 0.  0.
          5    1    3    3  501    0  0.13789895377E+02  0.56480833368E+02 -0.14354667739E+04  0.14366513824E+04  0.47000000000E+01 0. -1.
        -11    1    4    4    0    0 -0.26141812624E+02  0.30538775517E+01 -0.34132883295E+03  0.34234206977E+03  0.00000000000E+00 0.  1.
         12    1    4    4    0    0  0.19409433390E+02  0.28410369635E+02 -0.72674623492E+02  0.80408184328E+02  0.00000000000E+00 0. -1.
         -5    1    5    5    0  502  0.44380319569E+02  0.21653554700E+01 -0.22721446288E+03  0.23156598125E+03  0.47000000000E+01 0.  1.
         13    1    6    6    0    0 -0.20796896651E+02 -0.27941934402E+02 -0.16311341391E+03  0.16679103215E+03  0.00000000000E+00 0. -1.
        -14    1    6    6    0    0 -0.30640939061E+02 -0.62168501623E+02 -0.61224583185E+02  0.92478318144E+02  0.00000000000E+00 0.  1.
</event>
<event>
12    1  0.8421768E-002  0.2164260E+03  0.7818608E-02  0.1137169E+00
         21   -1    0    0  503  502  0.00000000000E+00  0.00000000000E+00  0.10300346837E+04  0.10300346837E+04  0.00000000000E+00 0. -1.
         21   -1    0    0  501  503 -0.00000000000E+00 -0.00000000000E+00 -0.95246889811E+02  0.95246889811E+02  0.00000000000E+00 0. -1.
          6    2    1    2  501    0 -0.13140942442E+03 -0.23421999406E+02  0.59620318413E+02  0.22448784641E+03  0.17036192044E+03 0.  0.
         24    2    3    3    0    0 -0.70056618718E+02 -0.59284360289E+02 -0.13794115528E+02  0.12220370880E+03  0.79504110713E+02 0.  0.
         -6    2    1    2    0  502  0.13140942442E+03  0.23421999406E+02  0.87516747552E+03  0.90079372715E+03  0.16641574978E+03 0.  0.
        -24    2    5    5    0    0  0.78632759216E+01  0.32325403290E+02  0.41594132789E+03  0.42513243370E+03  0.81385718260E+02 0.  0.
          5    1    3    3  501    0 -0.61352805700E+02  0.35862360883E+02  0.73414433941E+02  0.10228413761E+03  0.47000000000E+01 0. -1.
        -13    1    4    4    0    0 -0.23860258233E+02 -0.69932559649E+02 -0.57051178044E+01  0.74110884431E+02  0.00000000000E+00 0.  1.
         14    1    4    4    0    0 -0.46196360485E+02  0.10648199360E+02 -0.80889977238E+01  0.48092824369E+02  0.00000000000E+00 0. -1.
         -5    1    5    5    0  502  0.12354614850E+03 -0.89034038838E+01  0.45922614764E+03  0.47566129344E+03  0.47000000000E+01 0.  1.
         13    1    6    6    0    0 -0.25067656672E+01 -0.84466211252E+01  0.32291810616E+03  0.32303828344E+03  0.00000000000E+00 0. -1.
        -14    1    6    6    0    0  0.10370041589E+02  0.40772024415E+02  0.93023221726E+02  0.10209415026E+03  0.00000000000E+00 0.  1.
</event>
<event>
12    1  0.8421768E-002  0.2750348E+03  0.7818608E-02  0.1098478E+00
         21   -1    0    0  501  502  0.00000000000E+00  0.00000000000E+00  0.18357137620E+03  0.18357137620E+03  0.00000000000E+00 0. -1.
         21   -1    0    0  502  503 -0.00000000000E+00 -0.00000000000E+00 -0.41165405310E+03  0.41165405310E+03  0.00000000000E+00 0. -1.
         -6    2    1    2    0  503  0.17586004627E+03  0.12299257227E+03 -0.10998489123E+03  0.29621077132E+03  0.17201806894E+03 0.  0.
        -24    2    3    3    0    0  0.17924190802E+03  0.11905541714E+03 -0.50743266136E+02  0.23655678299E+03  0.84156868874E+02 0.  0.
          6    2    1    2  501    0 -0.17586004627E+03 -0.12299257227E+03 -0.11809778567E+03  0.29901465798E+03  0.17148979562E+03 0.  0.
         24    2    5    5    0    0 -0.12144178543E+03 -0.11428752927E+03 -0.14887717140E+03  0.23571706346E+03  0.74755436243E+02 0.  0.
          5    1    5    5  501    0 -0.54418260835E+02 -0.87050429978E+01  0.30779385731E+02  0.63297594519E+02  0.47000000000E+01 0. -1.
        -11    1    6    6    0    0 -0.26307850458E+02  0.64559179868E+01 -0.35771318640E+02  0.44870581789E+02  0.00000000000E+00 0.  1.
         12    1    6    6    0    0 -0.95133934972E+02 -0.12074344725E+03 -0.11310585276E+03  0.19084648167E+03  0.00000000000E+00 0. -1.
         -5    1    3    3    0  503 -0.33818617529E+01  0.39371551236E+01 -0.59241625099E+02  0.59653988331E+02  0.47000000000E+01 0.  1.
         11    1    4    4    0    0  0.85905690258E+02  0.87145302099E+02 -0.62171569195E+02  0.13725667675E+03  0.00000000000E+00 0. -1.
        -12    1    4    4    0    0  0.93336217760E+02  0.31910115043E+02  0.11428303059E+02  0.99300106237E+02  0.00000000000E+00 0.  1.
</event>
<event>
12    1  0.8421768E-002  0.2021033E+03  0.7818608E-02  0.1148053E+00
         21   -1    0    0  501  502  0.00000000000E+00  0.00000000000E+00  0.55398919673E+03  0.55398919673E+03  0.00000000000E+00 0. -1.
         21   -1    0    0  502  503 -0.00000000000E+00 -0.00000000000E+00 -0.15010334526E+03  0.15010334526E+03  0.00000000000E+00 0.  1.
         -6    2    1    2    0  503 -0.78078809835E+02  0.71594003297E+02 -0.49485173238E+02  0.20771462051E+03  0.17168162205E+03 0.  0.
        -24    2    3    3    0    0 -0.28545185937E+02  0.10787674712E+03 -0.16844680367E+02  0.13801878727E+03  0.79455787541E+02 0.  0.
          6    2    1    2  501    0  0.78078809835E+02 -0.71594003297E+02  0.45337102470E+03  0.49637792148E+03  0.17211552238E+03 0.  0.
         24    2    5    5    0    0  0.93599177672E+02  0.58200850989E+01  0.26908302999E+03  0.29583371714E+03  0.79481014833E+02 0.  0.
          5    1    5    5  501    0 -0.15520367837E+02 -0.77414088396E+02  0.18428799471E+03  0.20054420434E+03  0.47000000000E+01 0. -1.
        -11    1    6    6    0    0  0.45300280680E+02  0.28398264282E+02  0.20797080386E+03  0.21473339773E+03  0.00000000000E+00 0.  1.
         12    1    6    6    0    0  0.48298896992E+02 -0.22578179183E+02  0.61112226129E+02  0.81100319410E+02  0.00000000000E+00 0. -1.
         -5    1    3    3    0  503 -0.49533623898E+02 -0.36282743822E+02 -0.32640492871E+02  0.69695833237E+02  0.47000000000E+01 0.  1.
         11    1    4    4    0    0 -0.14240293648E+02  0.36806800952E+02  0.31827388656E+02  0.50700189626E+02  0.00000000000E+00 0. -1.
        -12    1    4    4    0    0 -0.14304892290E+02  0.71069946168E+02 -0.48672069023E+02  0.87318597645E+02  0.00000000000E+00 0.  1.
</event>
<event>
12    1  0.8421768E-002  0.2755067E+03  0.7818608E-02  0.1098329E+00
         21   -1    0    0  501  502  0.00000000000E+00  0.00000000000E+00  0.42332168301E+03  0.42332168301E+03  0.00000000000E+00 0. -1.
         21   -1    0    0  502  503 -0.00000000000E+00 -0.00000000000E+00 -0.37782778902E+03  0.37782778902E+03  0.00000000000E+00 0. -1.
         -6    2    1    2    0  503 -0.18894805518E+03  0.10169471439E+03 -0.26813660587E+03  0.38444920842E+03  0.17280269662E+03 0.  0.
        -24    2    3    3    0    0 -0.84997206984E+02  0.41069862093E+02 -0.22391458833E+03  0.25615724300E+03  0.81040307923E+02 0.  0.
          6    2    1    2  501    0  0.18894805518E+03 -0.10169471439E+03  0.31363049985E+03  0.41670026361E+03  0.17097320481E+03 0.  0.
         24    2    5    5    0    0  0.29868237983E+02 -0.73158927579E+01  0.13170384217E+03  0.15721394608E+03  0.80154156914E+02 0.  0.
          5    1    5    5  501    0  0.15907981719E+03 -0.94378821633E+02  0.18192665768E+03  0.25948631753E+03  0.47000000000E+01 0. -1.
        -13    1    6    6    0    0  0.75374095191E+01  0.12172111529E+02 -0.66036063279E+01  0.15766434533E+02  0.00000000000E+00 0.  1.
         14    1    6    6    0    0  0.22330828464E+02 -0.19488004287E+02  0.13830744850E+03  0.14144751154E+03  0.00000000000E+00 0. -1.
         -5    1    3    3    0  503 -0.10395084819E+03  0.60624852298E+02 -0.44222017541E+02  0.12829196542E+03  0.47000000000E+01 0.  1.
         11    1    4    4    0    0 -0.73851798544E+01  0.19545018125E+02 -0.13327759692E+03  0.13490539817E+03  0.00000000000E+00 0. -1.
        -12    1    4    4    0    0 -0.77612027130E+02  0.21524843968E+02 -0.90636991406E+02  0.12125184483E+03  0.00000000000E+00 0.  1.
</event>
<event>
12    1  0.8421768E-002  0.2347739E+03  0.7818608E-02  0.1124901E+00
         21   -1    0    0  503  502  0.00000000000E+00  0.00000000000E+00  0.66352869038E+03  0.66352869038E+03  0.00000000000E+00 0. -1.
         21   -1    0    0  501  503 -0.00000000000E+00 -0.00000000000E+00 -0.87854778890E+02  0.87854778890E+02  0.00000000000E+00 0.  1.
          6    2    1    2  501    0  0.91373073600E+02  0.11538133387E+03  0.39566143837E+03  0.45554011411E+03  0.17119267205E+03 0.  0.
         24    2    3    3    0    0  0.30899975872E+02  0.85107457089E+02  0.35842466228E+03  0.37819562072E+03  0.79784718090E+02 0.  0.
         -6    2    1    2    0  502 -0.91373073600E+02 -0.11538133387E+03  0.18001247311E+03  0.29584335515E+03  0.18291230010E+03 0.  0.
        -24    2    5    5    0    0 -0.72051748279E+02  0.26292603448E+01  0.12262238700E+03  0.16311986084E+03  0.79834026380E+02 0.  0.
          5    1    3    3  501    0  0.60473097728E+02  0.30273876778E+02  0.37236776094E+02  0.77344493391E+02  0.47000000000E+01 0. -1.
        -13    1    4    4    0    0 -0.48532530182E+01 -0.13890276946E+02  0.59090650056E+02  0.60894981588E+02  0.00000000000E+00 0.  1.
         14    1    4    4    0    0  0.35753228890E+02  0.98997734035E+02  0.29933401222E+03  0.31730063913E+03  0.00000000000E+00 0. -1.
         -5    1    5    5    0  502 -0.19321325321E+02 -0.11801059421E+03  0.57390086110E+02  0.13272349431E+03  0.47000000000E+01 0.  1.
         13    1    6    6    0    0 -0.58085188487E+02 -0.34559633098E+02  0.82612684524E+02  0.10673852634E+03  0.00000000000E+00 0. -1.
        -14    1    6    6    0    0 -0.13966559792E+02  0.37188893443E+02  0.40009702478E+02  0.56381334502E+02  0.00000000000E+00 0.  1.
</event>
<event>
12    1  0.8421768E-002  0.2445067E+03  0.7818608E-02  0.1116973E+00
         21   -1    0    0  501  502  0.00000000000E+00  0.00000000000E+00  0.52000110994E+03  0.52000110994E+03  0.00000000000E+00 0. -1.
         21   -1    0    0  502  503 -0.00000000000E+00 -0.00000000000E+00 -0.14179782723E+03  0.14179782723E+03  0.00000000000E+00 0. -1.
         -6    2    1    2    0  503 -0.14106566060E+03  0.10012815675E+03  0.43758124901E+02  0.24750786252E+03  0.17152317668E+03 0.  0.
        -24    2    3    3    0    0 -0.12010409976E+03  0.66484572811E+02  0.93346101880E+02  0.18384990752E+03  0.79006965251E+02 0.  0.
          6    2    1    2  501    0  0.14106566060E+03 -0.10012815675E+03  0.33444515781E+03  0.41429107465E+03  0.17279572501E+03 0.  0.
         24    2    5    5    0    0  0.48855510976E+02 -0.74611558859E+01  0.22356170327E+03  0.24280604547E+03  0.80823330472E+02 0.  0.
          5    1    5    5  501    0  0.92210149624E+02 -0.92667000865E+02  0.11088345453E+03  0.17148502918E+03  0.47000000000E+01 0. -1.
        -11    1    6    6    0    0 -0.12951962351E+02  0.18931899424E+02  0.29071175754E+02  0.37031114002E+02  0.00000000000E+00 0.  1.
         12    1    6    6    0    0  0.61807473327E+02 -0.26393055310E+02  0.19449052752E+03  0.20577493147E+03  0.00000000000E+00 0. -1.
         -5    1    3    3    0  503 -0.20961560835E+02  0.33643583940E+02 -0.49587976978E+02  0.63657954992E+02  0.47000000000E+01 0.  1.
         13    1    4    4    0    0 -0.76405752405E+02  0.24322977868E+02  0.93440083207E+02  0.12312796353E+03  0.00000000000E+00 0. -1.
        -14    1    4    4    0    0 -0.43698347359E+02  0.42161594943E+02 -0.93981326585E-01  0.60721943995E+02  0.00000000000E+00 0.  1.
</event>
<event>
12    1  0.8421768E-002  0.1895206E+03  0.7818608E-02  0.1159362E+00
         21   -1    0    0  503  502  0.00000000000E+00  0.00000000000E+00  0.21414007126E+03  0.21414007126E+03  0.00000000000E+00 0. -1.
         21   -1    0    0  501  503 -0.00000000000E+00 -0.00000000000E+00 -0.18519618777E+03  0.18519618777E+03  0.00000000000E+00 0. -1.
          6    2    1    2  501    0 -0.51504218596E+02  0.58279838345E+02 -0.50016027462E+02  0.19402500126E+03  0.17057219592E+03 0.  0.
         24    2    3    3    0    0 -0.41850167263E+02  0.10522774940E+03 -0.37320698513E+02  0.14421969596E+03  0.81130576365E+02 0.  0.
         -6    2    1    2    0  502  0.51504218596E+02 -0.58279838345E+02  0.78959910947E+02  0.20531125777E+03  0.17282598456E+03 0.  0.
        -24    2    5    5    0    0  0.81440977717E+02 -0.69982105760E+02  0.99631216034E+02  0.16680742077E+03  0.79801055373E+02 0.  0.
          5    1    3    3  501    0 -0.96540513330E+01 -0.46947911051E+02 -0.12695328949E+02  0.49805305303E+02  0.47000000000E+01 0. -1.
        -11    1    4    4    0    0  0.33504261627E+01  0.38109812200E+02  0.21774203811E+02  0.44019303640E+02  0.00000000000E+00 0.  1.
         12    1    4    4    0    0 -0.45200593425E+02  0.67117937196E+02 -0.59094902324E+02  0.10020039232E+03  0.00000000000E+00 0. -1.
         -5    1    5    5    0  502 -0.29936759121E+02  0.11702267415E+02 -0.20671305087E+02  0.38503836995E+02  0.47000000000E+01 0.  1.
         13    1    6    6    0    0  0.53009634444E+02 -0.60943009238E+02  0.10888376767E+03  0.13557192401E+03  0.00000000000E+00 0. -1.
        -14    1    6    6    0    0  0.28431343273E+02 -0.90390965212E+01 -0.92525516331E+01  0.31235496761E+02  0.00000000000E+00 0.  1.
</event>
<event>
12    1  0.8421768E-002  0.2285490E+03  0.7818608E-02  0.1127916E+00
         21   -1    0    0  501  502  0.00000000000E+00  0.00000000000E+00  0.19713114855E+03  0.19713114855E+03  0.00000000000E+00 0. -1.
         21   -1    0    0  502  503 -0.00000000000E+00 -0.00000000000E+00 -0.26351100781E+03  0.26351100781E+03  0.00000000000E+00 0. -1.
         -6    2    1    2    0  503 -0.12710633258E+02 -0.14693758735E+03 -0.39155086199E+02  0.23187875159E+03  0.17459215301E+03 0.  0.
        -24    2    3    3    0    0 -0.57519704365E+01 -0.16953402582E+03 -0.62321905151E+02  0.19844503327E+03  0.81985000411E+02 0.  0.
          6    2    1    2  501    0  0.12710633258E+02  0.14693758735E+03 -0.27224773061E+02  0.22876340477E+03  0.17274053467E+03 0.  0.
         24    2    5    5    0    0 -0.42810746756E+02  0.22759279535E+02 -0.22028209012E+02  0.92557787968E+02  0.75703086320E+02 0.  0.
          5    1    5    5  501    0  0.55521380014E+02  0.12417830781E+03 -0.51965640485E+01  0.13620561680E+03  0.47000000000E+01 0. -1.
        -11    1    6    6    0    0 -0.26992319921E+02 -0.19550808592E+02  0.12610608802E+02  0.35634911333E+02  0.00000000000E+00 0.  1.
         12    1    6    6    0    0 -0.15818426835E+02  0.42310088127E+02 -0.34638817814E+02  0.56922876635E+02  0.00000000000E+00 0. -1.
         -5    1    3    3    0  503 -0.69586628210E+01  0.22596438479E+02  0.23166818952E+02  0.33433718318E+02  0.47000000000E+01 0.  1.
         11    1    4    4    0    0 -0.38423664926E+02 -0.10297194256E+03 -0.57750634144E+02  0.12415609016E+03  0.00000000000E+00 0. -1.
        -12    1    4    4    0    0  0.32671694490E+02 -0.66562083270E+02 -0.45712710075E+01  0.74288943112E+02  0.00000000000E+00 0.  1.
</event>
<event>
12    1  0.8421768E-002  0.1739168E+03  0.7818608E-02  0.1173990E+00
         21   -1    0    0  503  502  0.00000000000E+00  0.00000000000E+00  0.13210040988E+04  0.13210040988E+04  0.00000000000E+00 0. -1.
         21   -1    0    0  501  503 -0.00000000000E+00 -0.00000000000E+00 -0.33595307649E+02  0.33595307649E+02  0.00000000000E+00 0. -1.
          6    2    1    2  501    0  0.23115624943E+02 -0.58348342200E+01  0.25913024338E+03  0.31171694350E+03  0.17161174910E+03 0.  0.
         24    2    3    3    0    0 -0.43928112364E+02  0.30710132535E+02  0.13262294098E+03  0.16387721655E+03  0.79963156094E+02 0.  0.
         -6    2    1    2    0  502 -0.23115624943E+02  0.58348342200E+01  0.10282785477E+04  0.10428824629E+04  0.17227501937E+03 0.  0.
        -24    2    5    5    0    0 -0.51664583571E+02 -0.18069250195E+01  0.98928133422E+03  0.99372646444E+03  0.78372404083E+02 0.  0.
          5    1    3    3  501    0  0.67043737307E+02 -0.36544966755E+02  0.12650730240E+03  0.14783972696E+03  0.47000000000E+01 0. -1.
        -13    1    4    4    0    0 -0.45082183286E+02  0.40408432132E+02  0.44305733999E+02  0.75021614901E+02  0.00000000000E+00 0.  1.
         14    1    4    4    0    0  0.11540709218E+01 -0.96982995975E+01  0.88317206981E+02  0.88855601645E+02  0.00000000000E+00 0. -1.
         -5    1    5    5    0  502  0.28548958628E+02  0.76417592395E+01  0.38997213510E+02  0.49155998459E+02  0.47000000000E+01 0.  1.
         13    1    6    6    0    0 -0.68364588192E+02 -0.13644395272E+01  0.56597193267E+03  0.57008754344E+03  0.00000000000E+00 0. -1.
        -14    1    6    6    0    0  0.16700004621E+02 -0.44248549227E+00  0.42330940155E+03  0.42363892100E+03  0.00000000000E+00 0.  1.
</event>
<event>
12    1  0.8421768E-002  0.1764232E+03  0.7818608E-02  0.1171793E+00
         21   -1    0    0  501  502  0.00000000000E+00  0.00000000000E+00  0.43313103088E+03  0.43313103088E+03  0.00000000000E+00 0.  1.
         21   -1    0    0  502  503 -0.00000000000E+00 -0.00000000000E+00 -0.13277858551E+03  0.13277858551E+03  0.00000000000E+00 0.  1.
         -6    2    1    2    0  503  0.37306658944E+02 -0.16451106203E+01 -0.42268032453E+02  0.18141587690E+03  0.17242575397E+03 0.  0.
        -24    2    3    3    0    0 -0.44674244356E+02 -0.55421960932E+00 -0.84371938055E+01  0.92597668222E+02  0.80666267130E+02 0.  0.
          6    2    1    2  501    0 -0.37306658944E+02  0.16451106203E+01  0.34262047783E+03  0.38449373949E+03  0.17044691458E+03 0.  0.
         24    2    5    5    0    0 -0.71079637323E+02 -0.25217515443E+02  0.15794859147E+03  0.19478867799E+03  0.85478848843E+02 0.  0.
          5    1    5    5  501    0  0.33772978378E+02  0.26862626063E+02  0.18467188636E+03  0.18970506150E+03  0.47000000000E+01 0. -1.
        -11    1    6    6    0    0 -0.30626642078E+02 -0.16801518908E+02  0.14829896107E+03  0.15235768473E+03  0.00000000000E+00 0.  1.
         12    1    6    6    0    0 -0.40452995244E+02 -0.84159965346E+01  0.96496303957E+01  0.42430993256E+02  0.00000000000E+00 0. -1.
         -5    1    3    3    0  503  0.81980903300E+02 -0.10908910110E+01 -0.33830838647E+02  0.88818208677E+02  0.47000000000E+01 0.  1.
         13    1    4    4    0    0 -0.30751062938E+02 -0.39904663276E+02 -0.66808431795E+01  0.50819717517E+02  0.00000000000E+00 0. -1.
        -14    1    4    4    0    0 -0.13923181418E+02  0.39350443667E+02 -0.17563506260E+01  0.41777950705E+02  0.00000000000E+00 0.  1.
</event>
<event>
12    1  0.8421768E-002  0.1755003E+03  0.7818608E-02  0.1172611E+00
         21   -1    0    0  503  502  0.00000000000E+00  0.00000000000E+00  0.78857248104E+03  0.78857248104E+03  0.00000000000E+00 0. -1.
         21   -1    0    0  501  503 -0.00000000000E+00 -0.00000000000E+00 -0.40961922683E+02  0.40961922683E+02  0.00000000000E+00 0. -1.
          6    2    1    2  501    0  0.10892362655E+02 -0.37446027927E+02  0.27529109685E+03  0.32566337602E+03  0.16956001270E+03 0.  0.
         24    2    3    3    0    0  0.25339023891E+02 -0.52396004937E-01  0.27344510677E+03  0.28525932414E+03  0.77191882454E+02 0.  0.
         -6    2    1    2    0  502 -0.10892362655E+02  0.37446027927E+02  0.47231946152E+03  0.50387102771E+03  0.17111250761E+03 0.  0.
        -24    2    5    5    0    0 -0.13628030168E+02  0.81393437440E+02  0.41904280960E+03  0.43459368423E+03  0.80400119590E+02 0.  0.
          5    1    3    3  501    0 -0.14446661237E+02 -0.37393631922E+02  0.18459900794E+01  0.40404051883E+02  0.47000000000E+01 0. -1.
        -13    1    4    4    0    0  0.41143503429E+02  0.23783565129E+02  0.11809086203E+03  0.12729453067E+03  0.00000000000E+00 0.  1.
         14    1    4    4    0    0 -0.15804479538E+02 -0.23835961134E+02  0.15535424474E+03  0.15796479347E+03  0.00000000000E+00 0. -1.
         -5    1    5    5    0  502  0.27356675129E+01 -0.43947409513E+02  0.53276651917E+02  0.69277343476E+02  0.47000000000E+01 0.  1.
         13    1    6    6    0    0 -0.25193306512E+02  0.59555506158E+02  0.13726206762E+03  0.15173146085E+03  0.00000000000E+00 0. -1.
        -14    1    6    6    0    0  0.11565276345E+02  0.21837931282E+02  0.28178074198E+03  0.28286222337E+03  0.00000000000E+00 0.  1.
</event>
<event>
12    1  0.8421768E-002  0.2270235E+03  0.7818608E-02  0.1129140E+00
         21   -1    0    0  503  502  0.00000000000E+00  0.00000000000E+00  0.20673121848E+03  0.20673121848E+03  0.00000000000E+00 0.  1.
         21   -1    0    0  501  503 -0.00000000000E+00 -0.00000000000E+00 -0.25610740653E+03  0.25610740653E+03  0.00000000000E+00 0.  1.
          6    2    1    2  501    0 -0.10462041813E+03 -0.99937816305E+02 -0.68336398377E+02  0.23502476880E+03  0.17214464728E+03 0.  0.
         24    2    3    3    0    0 -0.11699460981E+03 -0.11683956011E+03 -0.88842742439E+02  0.20533656053E+03  0.83251718770E+02 0.  0.
         -6    2    1    2    0  502  0.10462041813E+03  0.99937816305E+02  0.18960210329E+02  0.22781385621E+03  0.17494760498E+03 0.  0.
        -24    2    5    5    0    0  0.29340190791E+02 -0.18196123765E+02 -0.56435360436E+01  0.85510747458E+02  0.78027512559E+02 0.  0.
          5    1    3    3  501    0  0.12374191679E+02  0.16901743800E+02  0.20506344061E+02  0.29688208264E+02  0.47000000000E+01 0. -1.
        -11    1    4    4    0    0 -0.36863275333E+02 -0.71678939988E+02 -0.48047313268E+01  0.80745631146E+02  0.00000000000E+00 0.  1.
         12    1    4    4    0    0 -0.80131334472E+02 -0.45160620117E+02 -0.84038011112E+02  0.12459092939E+03  0.00000000000E+00 0. -1.
         -5    1    5    5    0  502  0.75280227336E+02  0.11813394007E+03  0.24603746373E+02  0.14230310875E+03  0.47000000000E+01 0.  1.
         13    1    6    6    0    0  0.81077716193E+01 -0.28845953751E+02  0.30179468024E+02  0.42527935509E+02  0.00000000000E+00 0. -1.
        -14    1    6    6    0    0  0.21232419172E+02  0.10649829986E+02 -0.35823004068E+02  0.42982811949E+02  0.00000000000E+00 0.  1.
</event>
<event>
12    1  0.8421768E-002  0.2867433E+03  0.7818608E-02  0.1092117E+00
         21   -1    0    0  503  502  0.00000000000E+00  0.00000000000E+00  0.45201809603E+03  0.45201809603E+03  0.00000000000E+00 0. -1.
         21   -1    0    0  501  503 -0.00000000000E+00 -0.00000000000E+00 -0.21388123732E+03  0.21388123732E+03  0.00000000000E+00 0.  1.
          6    2    1    2  501    0  0.22848929487E+03  0.52771640858E+01 -0.10136507212E+02  0.28692240478E+03  0.17316613774E+03 0.  0.
         24    2    3    3    0    0  0.20797812063E+03  0.56908798655E+02 -0.16193164289E+02  0.23083936767E+03  0.80815128982E+02 0.  0.
         -6    2    1    2    0  502 -0.22848929487E+03 -0.52771640858E+01  0.24827336592E+03  0.37897692856E+03  0.17247794590E+03 0.  0.
        -24    2    5    5    0    0 -0.16280086177E+03  0.19131446904E+02  0.24913244336E+03  0.30873749130E+03  0.79885739290E+02 0.  0.
          5    1    3    3  501    0  0.20511174241E+02 -0.51631634569E+02  0.60566570772E+01  0.56083037115E+02  0.47000000000E+01 0. -1.
        -13    1    4    4    0    0  0.87555398550E+02 -0.44919239661E+01  0.21972208805E+02  0.90381984687E+02  0.00000000000E+00 0.  1.
         14    1    4    4    0    0  0.12042272208E+03  0.61400722621E+02 -0.38165373094E+02  0.14045738298E+03  0.00000000000E+00 0. -1.
         -5    1    5    5    0  502 -0.65688433096E+02 -0.24408610990E+02 -0.85907743787E+00  0.70239437263E+02  0.47000000000E+01 0.  1.
         13    1    6    6    0    0 -0.69640209545E+02 -0.21641530549E+02  0.61827530301E+02  0.95607312132E+02  0.00000000000E+00 0. -1.
        -14    1    6    6    0    0 -0.93160652228E+02  0.40772977453E+02  0.18730491306E+03  0.21313017916E+03  0.00000000000E+00 0.  1.
</event>
<event>
12    1  0.8421768E-002  0.2762009E+03  0.7818608E-02  0.1097809E+00
         21   -1    0    0  503  502  0.00000000000E+00  0.00000000000E+00  0.12546183575E+04  0.12546183575E+04  0.00000000000E+00 0.  1.
         21   -1    0    0  501  503 -0.00000000000E+00 -0.00000000000E+00 -0.94228910125E+02  0.94228910125E+02  0.00000000000E+00 0.  1.
          6    2    1    2  501    0  0.21420095114E+03  0.26378014984E+02  0.98225427417E+03  0.10203481741E+04  0.17236325074E+03 0.  0.
         24    2    3    3    0    0  0.18774038876E+03 -0.35490895438E+02  0.70557333709E+03  0.73556342317E+03  0.81937526649E+02 0.  0.
         -6    2    1    2    0  502 -0.21420095114E+03 -0.26378014984E+02  0.17813517320E+03  0.32849909348E+03  0.17205135089E+03 0.  0.
        -24    2    5    5    0    0 -0.20621208707E+02 -0.18130568051E+02  0.41366003264E+02  0.91288147472E+02  0.76605664911E+02 0.  0.
          5    1    3    3  501    0  0.26460562382E+02  0.61868910422E+02  0.27668093708E+03  0.28478475097E+03  0.47000000000E+01 0. -1.
        -11    1    4    4    0    0  0.90028913611E+02  0.19114361647E+02  0.39044919578E+03  0.40114977077E+03  0.00000000000E+00 0.  1.
         12    1    4    4    0    0  0.97711475146E+02 -0.54605257086E+02  0.31512414131E+03  0.33441365240E+03  0.00000000000E+00 0. -1.
         -5    1    5    5    0  502 -0.19357974243E+03 -0.82474469336E+01  0.13676916994E+03  0.23721094601E+03  0.47000000000E+01 0.  1.
         11    1    6    6    0    0 -0.65283799529E+01 -0.43641112864E+02  0.43632038503E+02  0.62055791517E+02  0.00000000000E+00 0. -1.
        -12    1    6    6    0    0 -0.14092828754E+02  0.25510544814E+02 -0.22660352387E+01  0.29232355955E+02  0.00000000000E+00 0.  1.
</event>
<event>
12    1  0.8421768E-002  0.1916016E+03  0.7818608E-02  0.1157351E+00
         21   -1    0    0  503  502  0.00000000000E+00  0.00000000000E+00  0.13124036438E+04  0.13124036438E+04  0.00000000000E+00 0.  1.
         21   -1    0    0  501  503 -0.00000000000E+00 -0.00000000000E+00 -0.34971735445E+02  0.34971735445E+02  0.00000000000E+00 0.  1.
          6    2    1    2  501    0 -0.76278879779E+02  0.27360825139E+02  0.33085982293E+03  0.38160631955E+03  0.17201185551E+03 0.  0.
         24    2    3    3    0    0  0.16620952297E+01  0.40430426581E+01  0.68693452061E+02  0.10706704990E+03  0.82008865761E+02 0.  0.
         -6    2    1    2    0  502  0.76278879779E+02 -0.27360825139E+02  0.94657208543E+03  0.96576905970E+03  0.17362051004E+03 0.  0.
        -24    2    5    5    0    0  0.11876400340E+03 -0.23848367681E+02  0.62881285032E+03  0.64512853733E+03  0.78176696073E+02 0.  0.
          5    1    3    3  501    0 -0.77940975009E+02  0.23317782481E+02  0.26216637087E+03  0.27453926965E+03  0.47000000000E+01 0. -1.
        -11    1    4    4    0    0 -0.31080093774E+01  0.29523372571E+02 -0.39394459552E+01  0.29946760838E+02  0.00000000000E+00 0.  1.
         12    1    4    4    0    0  0.47701046071E+01 -0.25480329913E+02  0.72632898016E+02  0.77120289060E+02  0.00000000000E+00 0. -1.
         -5    1    5    5    0  502 -0.42485123623E+02 -0.35124574580E+01  0.31775923510E+03  0.32064052236E+03  0.47000000000E+01 0.  1.
         13    1    6    6    0    0  0.83523827543E+02  0.41946878828E+01  0.24930570430E+03  0.26295847461E+03  0.00000000000E+00 0. -1.
        -14    1    6    6    0    0  0.35240175860E+02 -0.28043055563E+02  0.37950714602E+03  0.38217006272E+03  0.00000000000E+00 0.  1.
</event>
<event>
12    1  0.8421768E-002  0.2170463E+03  0.7818608E-02  0.1136492E+00
         21   -1    0    0  501  502  0.00000000000E+00  0.00000000000E+00  0.84958089737E+03  0.84958089737E+03  0.00000000000E+00 0.  1.
         21   -1    0    0  502  503 -0.00000000000E+00 -0.00000000000E+00 -0.13140250847E+03  0.13140250847E+03  0.00000000000E+00 0.  1.
         -6    2    1    2    0  503 -0.12928556520E+03  0.12471671539E+02 -0.14379931800E+02  0.21752213091E+03  0.17389305633E+03 0.  0.
        -24    2    3    3    0    0 -0.89469241890E+01  0.74512001525E+01  0.34291909161E+02  0.87531239867E+02  0.79688236789E+02 0.  0.
          6    2    1    2  501    0  0.12928556520E+03 -0.12471671539E+02  0.73255832070E+03  0.76346127493E+03  0.17135088310E+03 0.  0.
         24    2    5    5    0    0  0.11054016279E+03 -0.65492791437E+02  0.61521773996E+03  0.63325554866E+03  0.77532503034E+02 0.  0.
          5    1    5    5  501    0  0.18745402410E+02  0.53021119899E+02  0.11734058074E+03  0.13020572628E+03  0.47000000000E+01 0. -1.
        -11    1    6    6    0    0 -0.35552666519E+01 -0.20411116848E+02  0.17637885271E+03  0.17759153498E+03  0.00000000000E+00 0.  1.
         12    1    6    6    0    0  0.11409542944E+03 -0.45081674589E+02  0.43883888724E+03  0.45566401368E+03  0.00000000000E+00 0. -1.
         -5    1    3    3    0  503 -0.12033864101E+03  0.50204713861E+01 -0.48671840961E+02  0.12999089105E+03  0.47000000000E+01 0.  1.
         13    1    4    4    0    0 -0.43523710666E+02 -0.33135106344E+00  0.10283720774E+02  0.44723350686E+02  0.00000000000E+00 0. -1.
        -14    1    4    4    0    0  0.34576786477E+02  0.77825512159E+01  0.24008188387E+02  0.42807889181E+02  0.00000000000E+00 0.  1.
</event>
<event>
12    1  0.8421768E-002  0.1928968E+03  0.7818608E-02  0.1156219E+00
         21   -1    0    0  503  502  0.00000000000E+00  0.00000000000E+00  0.32742215452E+03  0.32742215452E+03  0.00000000000E+00 0.  1.
         21   -1    0    0  501  503 -0.00000000000E+00 -0.00000000000E+00 -0.11308261537E+03  0.11308261537E+03  0.00000000000E+00 0.  1.
          6    2    1    2  501    0 -0.80643201689E+02 -0.64750789336E+01  0.95309074450E+02  0.21515808645E+03  0.17511119287E+03 0.  0.
         24    2    3    3    0    0 -0.70052485240E+02  0.58750107798E+02  0.83991847441E+02  0.14795200126E+03  0.80475079292E+02 0.  0.
         -6    2    1    2    0  502  0.80643201689E+02  0.64750789336E+01  0.11903046470E+03  0.22534668344E+03  0.17340018335E+03 0.  0.
        -24    2    5    5    0    0  0.76344404438E+02 -0.28372166796E+02  0.26364072632E+02  0.12614002837E+03  0.92643372633E+02 0.  0.
          5    1    3    3  501    0 -0.10590716449E+02 -0.65225186731E+02  0.11317227009E+02  0.67206085187E+02  0.47000000000E+01 0. -1.
        -13    1    4    4    0    0 -0.39459636486E+02 -0.52121523444E+01  0.24240765588E+01  0.39876128083E+02  0.00000000000E+00 0.  1.
         14    1    4    4    0    0 -0.30592848753E+02  0.63962260142E+02  0.81567770882E+02  0.10807587318E+03  0.00000000000E+00 0. -1.
         -5    1    5    5    0  502  0.42987972506E+01  0.34847245730E+02  0.92666392066E+02  0.99206655076E+02  0.47000000000E+01 0.  1.
         11    1    6    6    0    0 -0.81631215304E+01 -0.36226586876E+02 -0.43593323324E+00  0.37137476861E+02  0.00000000000E+00 0. -1.
        -12    1    6    6    0    0  0.84507525969E+02  0.78544200801E+01  0.26800005865E+02  0.89002551506E+02  0.00000000000E+00 0.  1.
</event>
<event>
12    1  0.8421768E-002  0.2001274E+03  0.7818608E-02  0.1150864E+00
         21   -1    0    0  501  502  0.00000000000E+00  0.00000000000E+00  0.64904080187E+03  0.64904080187E+03  0.00000000000E+00 0.  1.
         21   -1    0    0  502  503 -0.00000000000E+00 -0.00000000000E+00 -0.72051492636E+02  0.72051492636E+02  0.00000000000E+00 0.  1.
         -6    2    1    2    0  503  0.14212771423E+01  0.88653895794E+02  0.13721690939E+03  0.23792489484E+03  0.17296890500E+03 0.  0.
        -24    2    3    3    0    0  0.30670891916E+02  0.21441872289E+00  0.11362939195E+03  0.14171916711E+03  0.78942599568E+02 0.  0.
          6    2    1    2  501    0 -0.14212771423E+01 -0.88653895794E+02  0.43977239984E+03  0.48316739966E+03  0.17941415542E+03 0.  0.
         24    2    5    5    0    0 -0.36418160732E+02 -0.11091622559E+03  0.23162233917E+03  0.27087295567E+03  0.78067653895E+02 0.  0.
          5    1    5    5  501    0  0.34996883590E+02  0.22262329793E+02  0.20815006068E+03  0.21229444399E+03  0.47000000000E+01 0. -1.
        -13    1    6    6    0    0 -0.28652946925E+02 -0.23320806708E+02  0.13614545303E+03  0.14106890435E+03  0.00000000000E+00 0.  1.
         14    1    6    6    0    0 -0.77652138071E+01 -0.87595418879E+02  0.95476886132E+02  0.12980405132E+03  0.00000000000E+00 0. -1.
         -5    1    3    3    0  503 -0.29249614774E+02  0.88439477071E+02  0.23587517443E+02  0.96205727730E+02  0.47000000000E+01 0.  1.
         11    1    4    4    0    0  0.83398779583E+01  0.19731823521E+01  0.11848850391E+03  0.11879803270E+03  0.00000000000E+00 0. -1.
        -12    1    4    4    0    0  0.22331013958E+02 -0.17587636292E+01 -0.48591119651E+01  0.22921134418E+02  0.00000000000E+00 0.  1.
</event>
<event>
12    1  0.8421768E-002  0.2292105E+03  0.7818608E-02  0.1127947E+00
         21   -1    0    0  503  502  0.00000000000E+00  0.00000000000E+00  0.24229206295E+03  0.24229206295E+03  0.00000000000E+00 0.  1.
         21   -1    0    0  501  503 -0.00000000000E+00 -0.00000000000E+00 -0.29757422030E+03  0.29757422030E+03  0.00000000000E+00 0. -1.
          6    2    1    2  501    0 -0.11315789516E+03  0.91939778841E+02 -0.17146506079E+03  0.28289176512E+03  0.17137634473E+03 0.  0.
         24    2    3    3    0    0 -0.16196885368E+02 -0.36842794925E+01 -0.31735524186E+02  0.87720477911E+02  0.80073876755E+02 0.  0.
         -6    2    1    2    0  502  0.11315789516E+03 -0.91939778841E+02  0.11618290344E+03  0.25697451813E+03  0.17686097293E+03 0.  0.
        -24    2    5    5    0    0  0.11247389685E+03 -0.11523088294E+03  0.49145957781E+02  0.18584797268E+03  0.78712196815E+02 0.  0.
          5    1    3    3  501    0 -0.96961009792E+02  0.95624058333E+02 -0.13972953661E+03  0.19517128721E+03  0.47000000000E+01 0. -1.
        -13    1    4    4    0    0 -0.29629864098E+02  0.97235477802E+01  0.16930821834E+02  0.35484207134E+02  0.00000000000E+00 0.  1.
         14    1    4    4    0    0  0.13432978730E+02 -0.13407827273E+02 -0.48666346020E+02  0.52236270777E+02  0.00000000000E+00 0. -1.
         -5    1    5    5    0  502  0.68399831275E+00  0.23291104100E+02  0.67036945663E+02  0.71126545450E+02  0.47000000000E+01 0.  1.
         11    1    6    6    0    0  0.67776862333E+02 -0.31270387906E+02 -0.77000537487E+01  0.75038863633E+02  0.00000000000E+00 0. -1.
        -12    1    6    6    0    0  0.44697034514E+02 -0.83960495035E+02  0.56846011529E+02  0.11080910905E+03  0.00000000000E+00 0.  1.
</event>
<event>
12    1  0.8421768E-002  0.2142874E+03  0.7818608E-02  0.1138268E+00
         21   -1    0    0  503  502  0.00000000000E+00  0.00000000000E+00  0.61654261230E+03  0.61654261230E+03  0.00000000000E+00 0.  1.
         21   -1    0    0  501  503 -0.00000000000E+00 -0.00000000000E+00 -0.74850484789E+02  0.74850484789E+02  0.00000000000E+00 0.  1.
          6    2    1    2  501    0 -0.10421780110E+03 -0.74538312508E+02  0.24368243015E+03  0.32449995258E+03  0.17176082895E+03 0.  0.
         24    2    3    3    0    0 -0.12663040048E+03 -0.54131798558E+02  0.12616877436E+03  0.20304914064E+03  0.79654779827E+02 0.  0.
         -6    2    1    2    0  502  0.10421780110E+03  0.74538312508E+02  0.29800969736E+03  0.36689314451E+03  0.17141613014E+03 0.  0.
        -24    2    5    5    0    0  0.10364778509E+03  0.10769267080E+03  0.19630837201E+03  0.25981940371E+03  0.81416036030E+02 0.  0.
          5    1    3    3  501    0  0.22412599387E+02 -0.20406513950E+02  0.11751365580E+03  0.12145081194E+03  0.47000000000E+01 0. -1.
        -13    1    4    4    0    0 -0.81442429363E+02 -0.21308380594E+02  0.25561639923E+02  0.87979053300E+02  0.00000000000E+00 0.  1.
         14    1    4    4    0    0 -0.45187971122E+02 -0.32823417963E+02  0.10060713443E+03  0.11507008734E+03  0.00000000000E+00 0. -1.
         -5    1    5    5    0  502  0.57001600533E+00 -0.33154358292E+02  0.10170132535E+03  0.10707374080E+03  0.47000000000E+01 0.  1.
         11    1    6    6    0    0  0.63367973138E+02  0.72909127596E+02  0.60561742249E+02  0.11401300597E+03  0.00000000000E+00 0. -1.
        -12    1    6    6    0    0  0.40279811954E+02  0.34783543204E+02  0.13574662976E+03  0.14580639774E+03  0.00000000000E+00 0.  1.
</event>
<event>
12    1  0.8421768E-002  0.1910199E+03  0.7818608E-02  0.1158758E+00
         21   -1    0    0  501  502  0.00000000000E+00  0.00000000000E+00  0.94308905180E+02  0.94308905180E+02  0.00000000000E+00 0.  1.
         21   -1    0    0  502  503 -0.00000000000E+00 -0.00000000000E+00 -0.37624934917E+03  0.37624934917E+03  0.00000000000E+00 0.  1.
         -6    2    1    2    0  503  0.61184259560E+02  0.55192796675E+02 -0.13556619586E+03  0.22990494958E+03  0.16639811886E+03 0.  0.
        -24    2    3    3    0    0  0.10683027198E+03  0.34759946374E+02 -0.97669024089E+02  0.16698161966E+03  0.75648279255E+02 0.  0.
          6    2    1    2  501    0 -0.61184259560E+02 -0.55192796675E+02 -0.14637424813E+03  0.24065330477E+03  0.17233349691E+03 0.  0.
         24    2    5    5    0    0 -0.49183187013E+02 -0.95558717788E+02 -0.14718386388E+03  0.19827195501E+03  0.78091125785E+02 0.  0.
          5    1    5    5  501    0 -0.12001072548E+02  0.40365921113E+02  0.80961575255E+00  0.42381349757E+02  0.47000000000E+01 0. -1.
        -13    1    6    6    0    0 -0.53931220487E+02 -0.20874906012E+02 -0.59019564201E+02  0.82629578256E+02  0.00000000000E+00 0.  1.
         14    1    6    6    0    0  0.47480334746E+01 -0.74683811775E+02 -0.88164299679E+02  0.11564237675E+03  0.00000000000E+00 0. -1.
         -5    1    3    3    0  503 -0.45646012415E+02  0.20432850300E+02 -0.37897171774E+02  0.62923329928E+02  0.47000000000E+01 0.  1.
         13    1    4    4    0    0  0.10832931639E+02  0.37769872770E+02 -0.31320301531E+02  0.50248154045E+02  0.00000000000E+00 0. -1.
        -14    1    4    4    0    0  0.95997340337E+02 -0.30099263952E+01 -0.66348722558E+02  0.11673346561E+03  0.00000000000E+00 0.  1.
</event>
<event>
12    1  0.8421768E-002  0.3732128E+03  0.7818608E-02  0.1053888E+00
         21   -1    0    0  501  502  0.00000000000E+00  0.00000000000E+00  0.22628398919E+03  0.22628398919E+03  0.00000000000E+00 0.  1.
         21   -1    0    0  502  503 -0.00000000000E+00 -0.00000000000E+00 -0.10112636592E+04  0.10112636592E+04  0.00000000000E+00 0. -1.
         -6    2    1    2    0  503  0.31461580072E+03  0.10125991860E+03 -0.78445991761E+03  0.86871464998E+03  0.17335255287E+03 0.  0.
        -24    2    3    3    0    0  0.11853704038E+03 -0.38234663250E+01 -0.22154592759E+03  0.26341831908E+03  0.78999771900E+02 0.  0.
          6    2    1    2  501    0 -0.31461580072E+03 -0.10125991860E+03 -0.51975235746E+00  0.36883299836E+03  0.16370961290E+03 0.  0.
         24    2    5    5    0    0 -0.19031321251E+03 -0.18195324928E+01  0.23115749564E+02  0.20783532516E+03  0.80241852858E+02 0.  0.
          5    1    5    5  501    0 -0.12430258821E+03 -0.99440386112E+02 -0.23635501922E+02  0.16099767320E+03  0.47000000000E+01 0. -1.
        -11    1    6    6    0    0 -0.12473244532E+03 -0.31768206701E+02 -0.87501476807E+01  0.12901149932E+03  0.00000000000E+00 0.  1.
         12    1    6    6    0    0 -0.65580767196E+02  0.29948674208E+02  0.31865897245E+02  0.78823825840E+02  0.00000000000E+00 0. -1.
         -5    1    3    3    0  503  0.19607876034E+03  0.10508338493E+03 -0.56291399002E+03  0.60529633091E+03  0.47000000000E+01 0.  1.
         13    1    4    4    0    0  0.12136431174E+03 -0.21809747015E+02 -0.20235145560E+03  0.23696217591E+03  0.00000000000E+00 0. -1.
        -14    1    4    4    0    0 -0.28272713650E+01  0.17986280690E+02 -0.19194471986E+02  0.26456143167E+02  0.00000000000E+00 0.  1.
</event>
<event>
12    1  0.8421768E-002  0.1971231E+03  0.7818608E-02  0.1153659E+00
         21   -1    0    0  501  502  0.00000000000E+00  0.00000000000E+00  0.10017881937E+03  0.10017881937E+03  0.00000000000E+00 0. -1.
         21   -1    0    0  502  503 -0.00000000000E+00 -0.00000000000E+00 -0.78135030958E+03  0.78135030958E+03  0.00000000000E+00 0. -1.
         -6    2    1    2    0  503  0.30548279914E+02 -0.85368604179E+02 -0.66133477677E+03  0.69008782487E+03  0.17503292002E+03 0.  0.
        -24    2    3    3    0    0 -0.80095390993E+01 -0.80709427327E+02 -0.22455981085E+03  0.25156430875E+03  0.79242213590E+02 0.  0.
          6    2    1    2  501    0 -0.30548279914E+02  0.85368604179E+02 -0.19836713434E+02  0.19144130408E+03  0.16743739643E+03 0.  0.
         24    2    5    5    0    0 -0.73025933630E+02  0.77137199725E+02  0.19028430093E+02  0.13309152716E+03  0.77899543562E+02 0.  0.
          5    1    5    5  501    0  0.42477653715E+02  0.82314044533E+01 -0.38865143528E+02  0.58349776914E+02  0.47000000000E+01 0. -1.
        -11    1    6    6    0    0  0.69051944907E+00  0.19635210876E+01 -0.20517948109E+02  0.20623249666E+02  0.00000000000E+00 0.  1.
         12    1    6    6    0    0 -0.73716453079E+02  0.75173678638E+02  0.39546378203E+02  0.11246827750E+03  0.00000000000E+00 0. -1.
         -5    1    3    3    0  503  0.38557819014E+02 -0.46591768517E+01 -0.43677496592E+03  0.43852351612E+03  0.47000000000E+01 0.  1.
         13    1    4    4    0    0 -0.41121147840E+02 -0.25874018330E+02 -0.11136571548E+03  0.12150200084E+03  0.00000000000E+00 0. -1.
        -14    1    4    4    0    0  0.33111608740E+02 -0.54835408997E+02 -0.11319409537E+03  0.13006230791E+03  0.00000000000E+00 0.  1.
</event>
<event>
12    1  0.8421768E-002  0.1744538E+03  0.7818608E-02  0.1175011E+00
         21   -1    0    0  503  502  0.00000000000E+00  0.00000000000E+00  0.18350313725E+03  0.18350313725E+03  0.00000000000E+00 0. -1.
         21   -1    0    0  501  503 -0.00000000000E+00 -0.00000000000E+00 -0.25057983850E+03  0.25057983850E+03  0.00000000000E+00 0. -1.
          6    2    1    2  501    0 -0.19606599552E+02  0.13255758845E+02 -0.16477657789E+03  0.23996968643E+03  0.17284095549E+03 0.  0.
         24    2    3    3    0    0  0.55005779512E+01  0.25518075156E+01 -0.66975777598E+01  0.79482910591E+02  0.78967762085E+02 0.  0.
         -6    2    1    2    0  502  0.19606599552E+02 -0.13255758845E+02  0.97699876642E+02  0.19411328933E+03  0.16605592223E+03 0.  0.
        -24    2    5    5    0    0 -0.28119558897E+01 -0.69540191314E+02  0.51698013852E+02  0.11789786866E+03  0.79896667611E+02 0.  0.
          5    1    3    3  501    0 -0.25107177504E+02  0.10703951330E+02 -0.15807900013E+03  0.16048677584E+03  0.47000000000E+01 0. -1.
        -13    1    4    4    0    0 -0.49263942540E+01 -0.36423882208E+02  0.58771014141E+01  0.37222424376E+02  0.00000000000E+00 0.  1.
         14    1    4    4    0    0  0.10426972205E+02  0.38975689723E+02 -0.12574679174E+02  0.42260486215E+02  0.00000000000E+00 0. -1.
         -5    1    5    5    0  502  0.22418555442E+02  0.56284432468E+02  0.46001862790E+02  0.76215420661E+02  0.47000000000E+01 0.  1.
         11    1    6    6    0    0  0.13926153351E+02  0.66859797667E+01  0.34760817060E+02  0.38038854810E+02  0.00000000000E+00 0. -1.
        -12    1    6    6    0    0 -0.16738109240E+02 -0.76226171080E+02  0.16937196792E+02  0.79859013854E+02  0.00000000000E+00 0.  1.
</event>
<event>
12    1  0.8421768E-002  0.1880078E+03  0.7818608E-02  0.1160601E+00
         21   -1    0    0  503  502  0.00000000000E+00  0.00000000000E+00  0.12262956985E+04  0.12262956985E+04  0.00000000000E+00 0.  1.
         21   -1    0    0  501  503 -0.00000000000E+00 -0.00000000000E+00 -0.58800535345E+02  0.58800535345E+02  0.00000000000E+00 0.  1.
          6    2    1    2  501    0  0.60530474056E+02  0.39677713743E+02  0.12219609474E+03  0.22302416197E+03  0.17195822748E+03 0.  0.
         24    2    3    3    0    0  0.36472804248E+02  0.92967420196E+02  0.79963989092E+02  0.15074549958E+03  0.79729288370E+02 0.  0.
         -6    2    1    2    0  502 -0.60530474056E+02 -0.39677713743E+02  0.10452990684E+04  0.10620720719E+04  0.17351854125E+03 0.  0.
        -24    2    5    5    0    0 -0.93943971968E+02 -0.24585886795E+01  0.52002746005E+03  0.53440354176E+03  0.79542892274E+02 0.  0.
          5    1    3    3  501    0  0.24057669808E+02 -0.53289706453E+02  0.42232105645E+02  0.72278662395E+02  0.47000000000E+01 0. -1.
        -11    1    4    4    0    0  0.44451561198E+02  0.50565752454E+02  0.83723901976E+02  0.10743615954E+03  0.00000000000E+00 0.  1.
         12    1    4    4    0    0 -0.79787569506E+01  0.42401667742E+02 -0.37599128849E+01  0.43309340040E+02  0.00000000000E+00 0. -1.
         -5    1    5    5    0  502  0.33413497912E+02 -0.37219125064E+02  0.52527160835E+03  0.52766853010E+03  0.47000000000E+01 0.  1.
         11    1    6    6    0    0 -0.88209342575E+02  0.25036580501E+02  0.44362444670E+03  0.45300151014E+03  0.00000000000E+00 0. -1.
        -12    1    6    6    0    0 -0.57346293932E+01 -0.27495169180E+02  0.76403013350E+02  0.81402031617E+02  0.00000000000E+00 0.  1.
</event>
<event>
12    1  0.8421768E-002  0.2509209E+03  0.7818608E-02  0.1113154E+00
         21   -1    0    0  501  502  0.00000000000E+00  0.00000000000E+00  0.42196700765E+03  0.42196700765E+03  0.00000000000E+00 0.  1.
         21   -1    0    0  502  503 -0.00000000000E+00 -0.00000000000E+00 -0.66125547152E+03  0.66125547152E+03  0.00000000000E+00 0.  1.
         -6    2    1    2    0  503  0.17830218056E+03  0.36532340520E+02 -0.59714101880E+03  0.64771805021E+03  0.17272810060E+03 0.  0.
        -24    2    3    3    0    0  0.10098656278E+03  0.67713273768E+02 -0.49272773772E+03  0.51402370247E+03  0.81586579035E+02 0.  0.
          6    2    1    2  501    0 -0.17830218056E+03 -0.36532340520E+02  0.35785255494E+03  0.43550442896E+03  0.16875833925E+03 0.  0.
         24    2    5    5    0    0 -0.90234704675E+02 -0.85631940649E+02  0.20789871844E+03  0.25474244699E+03  0.78719158940E+02 0.  0.
          5    1    5    5  501    0 -0.88067475889E+02  0.49099600130E+02  0.14995383650E+03  0.18076198197E+03  0.47000000000E+01 0. -1.
        -13    1    6    6    0    0 -0.41963907896E+02  0.71457179888E+01  0.63526018875E+02  0.76469509777E+02  0.00000000000E+00 0.  1.
         14    1    6    6    0    0 -0.48270796779E+02 -0.92777658638E+02  0.14437269956E+03  0.17827293721E+03  0.00000000000E+00 0. -1.
         -5    1    3    3    0  503  0.77315617780E+02 -0.31180933249E+02 -0.10441328108E+03  0.13369434774E+03  0.47000000000E+01 0.  1.
         11    1    4    4    0    0 -0.10231794150E+02 -0.70291218571E+01 -0.43453765226E+02  0.45192121857E+02  0.00000000000E+00 0. -1.
        -12    1    4    4    0    0  0.11121835693E+03  0.74742395625E+02 -0.44927397249E+03  0.46883158062E+03  0.00000000000E+00 0.  1.
</event>
<event>
12    1  0.8421768E-002  0.1741042E+03  0.7818608E-02  0.1174089E+00
         21   -1    0    0  503  502  0.00000000000E+00  0.00000000000E+00  0.38541765360E+02  0.38541765360E+02  0.00000000000E+00 0.  1.
         21   -1    0    0  501  503 -0.00000000000E+00 -0.00000000000E+00 -0.11958863729E+04  0.11958863729E+04  0.00000000000E+00 0.  1.
          6    2    1    2  501    0  0.25815873276E+02  0.81226675512E+01 -0.94529107871E+03  0.96119067176E+03  0.17198792675E+03 0.  0.
         24    2    3    3    0    0  0.44078766725E+01  0.22821941137E+02 -0.21829609913E+03  0.23371685003E+03  0.80187958696E+02 0.  0.
         -6    2    1    2    0  502 -0.25815873276E+02 -0.81226675512E+01 -0.21205352887E+03  0.27323746654E+03  0.17017513618E+03 0.  0.
        -24    2    5    5    0    0  0.79287888593E+01  0.56409207938E+02 -0.13644091301E+03  0.16815453332E+03  0.80093444801E+02 0.  0.
          5    1    3    3  501    0  0.21407996603E+02 -0.14699273586E+02 -0.72699497959E+03  0.72747382173E+03  0.47000000000E+01 0. -1.
        -13    1    4    4    0    0  0.16412782103E+01  0.36816103373E+02 -0.21617648952E+03  0.21929522083E+03  0.00000000000E+00 0.  1.
         14    1    4    4    0    0  0.27665984622E+01 -0.13994162236E+02 -0.21196096114E+01  0.14421629195E+02  0.00000000000E+00 0. -1.
         -5    1    5    5    0  502 -0.33744662135E+02 -0.64531875489E+02 -0.75612615861E+02  0.10508293322E+03  0.47000000000E+01 0.  1.
         13    1    6    6    0    0 -0.33689743107E+02  0.15885892732E+02 -0.74164543616E+02  0.82992408739E+02  0.00000000000E+00 0. -1.
        -14    1    6    6    0    0  0.41618531966E+02  0.40523315205E+02 -0.62276369389E+02  0.85162124578E+02  0.00000000000E+00 0.  1.
</event>
<event>
12    1  0.8421768E-002  0.1988480E+03  0.7818608E-02  0.1150893E+00
         21   -1    0    0  501  502  0.00000000000E+00  0.00000000000E+00  0.27146838347E+03  0.27146838347E+03  0.00000000000E+00 0. -1.
         21   -1    0    0  502  503 -0.00000000000E+00 -0.00000000000E+00 -0.54194777126E+03  0.54194777126E+03  0.00000000000E+00 0. -1.
         -6    2    1    2    0  503 -0.96986776284E+02  0.24955642038E+02 -0.48337123709E+03  0.52267415295E+03  0.17178852835E+03 0.  0.
        -24    2    3    3    0    0 -0.51689658692E+02 -0.37092157523E+02 -0.15541900036E+03  0.18581139474E+03  0.79518298376E+02 0.  0.
          6    2    1    2  501    0  0.96986776284E+02 -0.24955642038E+02  0.21289184930E+03  0.29074200178E+03  0.17081789502E+03 0.  0.
         24    2    5    5    0    0  0.37799505816E+02 -0.37381744960E+02  0.20714847664E+03  0.22981075078E+03  0.84120700807E+02 0.  0.
          5    1    5    5  501    0  0.59187270468E+02  0.12426102922E+02  0.57433726627E+01  0.60931251003E+02  0.47000000000E+01 0. -1.
        -11    1    6    6    0    0 -0.23489729995E+02 -0.17313482605E+02  0.32720410684E+02  0.43842323963E+02  0.00000000000E+00 0.  1.
         12    1    6    6    0    0  0.61289235811E+02 -0.20068262355E+02  0.17442806595E+03  0.18596842682E+03  0.00000000000E+00 0. -1.
         -5    1    3    3    0  503 -0.45297117592E+02  0.62047799562E+02 -0.32795223673E+03  0.33686275821E+03  0.47000000000E+01 0.  1.
         13    1    4    4    0    0 -0.37606175596E+02  0.11768891739E+02 -0.11272789207E+03  0.11941653532E+03  0.00000000000E+00 0. -1.
        -14    1    4    4    0    0 -0.14083483097E+02 -0.48861049262E+02 -0.42691108289E+02  0.66394859425E+02  0.00000000000E+00 0.  1.
</event>
<event>
12    1  0.8421768E-002  0.1887008E+03  0.7818608E-02  0.1159916E+00
         21   -1    0    0  501  502  0.00000000000E+00  0.00000000000E+00  0.12499189754E+03  0.12499189754E+03  0.00000000000E+00 0.  1.
         21   -1    0    0  502  503 -0.00000000000E+00 -0.00000000000E+00 -0.56324340143E+03  0.56324340143E+03  0.00000000000E+00 0.  1.
         -6    2    1    2    0  503  0.49760142243E+02  0.56922848273E+02 -0.46147878266E+03  0.49811031215E+03  0.17156612081E+03 0.  0.
        -24    2    3    3    0    0  0.66224539470E+02 -0.21342763319E+02 -0.29802031557E+03  0.31607365980E+03  0.79026873615E+02 0.  0.
          6    2    1    2  501    0 -0.49760142243E+02 -0.56922848273E+02  0.23227278771E+02  0.19012498683E+03  0.17289222576E+03 0.  0.
         24    2    5    5    0    0 -0.19524162026E+02 -0.42783292615E+02  0.80497239153E+02  0.12367139478E+03  0.81260109195E+02 0.  0.
          5    1    5    5  501    0 -0.30235980217E+02 -0.14139555657E+02 -0.57269960382E+02  0.66453592047E+02  0.47000000000E+01 0. -1.
        -13    1    6    6    0    0 -0.67158911963E+01 -0.30265438600E+02 -0.90937764193E+01  0.32307843286E+02  0.00000000000E+00 0.  1.
         14    1    6    6    0    0 -0.12808270830E+02 -0.12517854015E+02  0.89591015572E+02  0.91363551496E+02  0.00000000000E+00 0. -1.
         -5    1    3    3    0  503 -0.16464397227E+02  0.78265611592E+02 -0.16345846709E+03  0.18203665235E+03  0.47000000000E+01 0.  1.
         11    1    4    4    0    0 -0.11273827767E+02  0.39881504817E+01 -0.70192023000E+01  0.13866280601E+02  0.00000000000E+00 0. -1.
        -12    1    4    4    0    0  0.77498367237E+02 -0.25330913801E+02 -0.29100111327E+03  0.30220737920E+03  0.00000000000E+00 0.  1.
</event>
<event>
12    1  0.8421768E-002  0.2140352E+03  0.7818608E-02  0.1138598E+00
         21   -1    0    0  501  502  0.00000000000E+00  0.00000000000E+00  0.15759953825E+03  0.15759953825E+03  0.00000000000E+00 0. -1.
         21   -1    0    0  502  503 -0.00000000000E+00 -0.00000000000E+00 -0.59641811378E+03  0.59641811378E+03  0.00000000000E+00 0.  1.
         -6    2    1    2    0  503 -0.12502450845E+03 -0.13302307710E+02 -0.48967776809E+03  0.53402286452E+03  0.17201169778E+03 0.  0.
        -24    2    3    3    0    0 -0.15082842654E+03 -0.40307488844E+02 -0.40153252923E+03  0.43817509392E+03  0.79969575415E+02 0.  0.
          6    2    1    2  501    0  0.12502450845E+03  0.13302307710E+02  0.50859192557E+02  0.21999478751E+03  0.17321365408E+03 0.  0.
         24    2    5    5    0    0  0.42678207901E+02  0.66646498425E+02  0.47612994658E+02  0.12171384481E+03  0.79272174036E+02 0.  0.
          5    1    5    5  501    0  0.82346300548E+02 -0.53344190715E+02  0.32461978990E+01  0.98280942699E+02  0.47000000000E+01 0. -1.
        -13    1    6    6    0    0  0.53682950922E+01  0.64666364768E+02  0.53233926373E+02  0.83930973077E+02  0.00000000000E+00 0.  1.
         14    1    6    6    0    0  0.37309912809E+02  0.19801336563E+01 -0.56209317151E+01  0.37782871734E+02  0.00000000000E+00 0. -1.
         -5    1    3    3    0  503  0.25803918092E+02  0.27005181135E+02 -0.88145238854E+02  0.95847770603E+02  0.47000000000E+01 0.  1.
         11    1    4    4    0    0  0.45339715279E+01 -0.17862431600E+02 -0.41011462159E+02  0.44961799218E+02  0.00000000000E+00 0. -1.
        -12    1    4    4    0    0 -0.15536239807E+03 -0.22445057244E+02 -0.36052106707E+03  0.39321329470E+03  0.00000000000E+00 0.  1.
</event>
<event>
12    1  0.8421768E-002  0.1824147E+03  0.7818608E-02  0.1165936E+00
         21   -1    0    0  501  502  0.00000000000E+00  0.00000000000E+00  0.21320644072E+03  0.21320644072E+03  0.00000000000E+00 0.  1.
         21   -1    0    0  502  503 -0.00000000000E+00 -0.00000000000E+00 -0.20093559887E+03  0.20093559887E+03  0.00000000000E+00 0.  1.
         -6    2    1    2    0  503  0.89283770418E+01  0.60506173747E+02 -0.93471262383E+02  0.20329486332E+03  0.16985644404E+03 0.  0.
        -24    2    3    3    0    0 -0.40009900964E+01  0.38170208619E+02  0.23033310380E+02  0.83873469310E+02  0.70931323964E+02 0.  0.
          6    2    1    2  501    0 -0.89283770418E+01 -0.60506173747E+02  0.10574210424E+03  0.21084717627E+03  0.17185582956E+03 0.  0.
         24    2    5    5    0    0 -0.72091311338E+02 -0.47661080028E+02  0.62052058608E+02  0.13283779998E+03  0.79540476533E+02 0.  0.
          5    1    5    5  501    0  0.63162934296E+02 -0.12845093719E+02  0.43690045630E+02  0.78009376287E+02  0.47000000000E+01 0. -1.
        -13    1    6    6    0    0 -0.38561488913E+02 -0.55357878594E+02  0.70327251543E+02  0.97454632825E+02  0.00000000000E+00 0.  1.
         14    1    6    6    0    0 -0.33529822425E+02  0.76967985660E+01 -0.82751929349E+01  0.35383167158E+02  0.00000000000E+00 0. -1.
         -5    1    3    3    0  503  0.12929367138E+02  0.22335965128E+02 -0.11650457276E+03  0.11942139401E+03  0.47000000000E+01 0.  1.
         11    1    4    4    0    0  0.28033168449E+02  0.78656320063E+00  0.20197882903E+02  0.34560551048E+02  0.00000000000E+00 0. -1.
        -12    1    4    4    0    0 -0.32034158546E+02  0.37383645418E+02  0.28354274770E+01  0.49312918261E+02  0.00000000000E+00 0.  1.
</event>
<event>
12    1  0.8421768E-002  0.1946804E+03  0.7818608E-02  0.1154714E+00
         21   -1    0    0  501  502  0.00000000000E+00  0.00000000000E+00  0.91811206417E+02  0.91811206417E+02  0.00000000000E+00 0.  1.
         21   -1    0    0  502  503 -0.00000000000E+00 -0.00000000000E+00 -0.44004314086E+03  0.44004314086E+03  0.00000000000E+00 0.  1.
         -6    2    1    2    0  503  0.67429856576E+02  0.61306630641E+02 -0.10412209623E+03  0.22077559265E+03  0.17203244714E+03 0.  0.
        -24    2    3    3    0    0  0.40993211550E+01 -0.23195201607E+02 -0.23003089495E+02  0.87532582989E+02  0.81104803476E+02 0.  0.
          6    2    1    2  501    0 -0.67429856576E+02 -0.61306630641E+02 -0.24410983821E+03  0.31107875463E+03  0.16992671935E+03 0.  0.
         24    2    5    5    0    0  0.15555664556E+01 -0.92802270834E+01 -0.17845596072E+03  0.20245897334E+03  0.95155470496E+02 0.  0.
          5    1    5    5  501    0 -0.68985423032E+02 -0.52026403558E+02 -0.65653877490E+02  0.10861978129E+03  0.47000000000E+01 0. -1.
        -11    1    6    6    0    0  0.73707642038E+01 -0.43133946823E+02 -0.38292585157E+02  0.58147980287E+02  0.00000000000E+00 0.  1.
         12    1    6    6    0    0 -0.58151977482E+01  0.33853719739E+02 -0.14016337557E+03  0.14431099305E+03  0.00000000000E+00 0. -1.
         -5    1    3    3    0  503  0.63330535421E+02  0.84501832248E+02 -0.81119006737E+02  0.13324300966E+03  0.47000000000E+01 0.  1.
         13    1    4    4    0    0 -0.41622487481E+01 -0.49906342907E+02 -0.30434466209E+02  0.58602253459E+02  0.00000000000E+00 0. -1.
        -14    1    4    4    0    0  0.82615699032E+01  0.26711141300E+02  0.74313767145E+01  0.28930329530E+02  0.00000000000E+00 0.  1.
</event>
<event>
12    1  0.8421768E-002  0.2352891E+03  0.7818608E-02  0.1123241E+00
         21   -1    0    0  503  502  0.00000000000E+00  0.00000000000E+00  0.36927599320E+03  0.36927599320E+03  0.00000000000E+00 0.  1.
         21   -1    0    0  501  503 -0.00000000000E+00 -0.00000000000E+00 -0.16503393857E+03  0.16503393857E+03  0.00000000000E+00 0.  1.
          6    2    1    2  501    0 -0.15478422349E+03  0.31656949739E+02  0.18331312397E+02  0.23443700326E+03  0.17223342642E+03 0.  0.
         24    2    3    3    0    0 -0.28000665946E+02  0.65846454242E+01  0.53389141575E+02  0.10044509196E+03  0.80071350759E+02 0.  0.
         -6    2    1    2    0  502  0.15478422349E+03 -0.31656949739E+02  0.18591074223E+03  0.29987292852E+03  0.17435782423E+03 0.  0.
        -24    2    5    5    0    0  0.37236198610E+02  0.37809375778E+02  0.10205611698E+03  0.13957072419E+03  0.79047154633E+02 0.  0.
          5    1    3    3  501    0 -0.12678355754E+03  0.25072304315E+02 -0.35057829177E+02  0.13399191130E+03  0.47000000000E+01 0. -1.
        -11    1    4    4    0    0  0.10996347962E+02  0.31558723130E+02  0.55742759773E+01  0.33881340392E+02  0.00000000000E+00 0.  1.
         12    1    4    4    0    0 -0.38997013908E+02 -0.24974077705E+02  0.47814865597E+02  0.66563751570E+02  0.00000000000E+00 0. -1.
         -5    1    5    5    0  502  0.11754802488E+03 -0.69466325516E+02  0.83854625255E+02  0.16030220432E+03  0.47000000000E+01 0.  1.
         11    1    6    6    0    0  0.52983312158E+02  0.50012783266E+02  0.91688401672E+02  0.11711222335E+03  0.00000000000E+00 0. -1.
        -12    1    6    6    0    0 -0.15747113547E+02 -0.12203407488E+02  0.10367715307E+02  0.22458500842E+02  0.00000000000E+00 0.  1.
</event>
<event>
12    1  0.8421768E-002  0.2129117E+03  0.7818608E-02  0.1139359E+00
         21   -1    0    0  503  502  0.00000000000E+00  0.00000000000E+00  0.14740190821E+04  0.14740190821E+04  0.00000000000E+00 0.  1.
         21   -1    0    0  501  503 -0.00000000000E+00 -0.00000000000E+00 -0.36018692176E+02  0.36018692176E+02  0.00000000000E+00 0. -1.
          6    2    1    2  501    0 -0.11802206344E+03  0.41094147989E+02  0.42932868973E+03  0.47922284159E+03  0.17237596010E+03 0.  0.
         24    2    3    3    0    0 -0.42286050161E+02 -0.28017591608E+02  0.29746729349E+03  0.31212438536E+03  0.79760552661E+02 0.  0.
         -6    2    1    2    0  502  0.11802206344E+03 -0.41094147989E+02  0.10086717002E+04  0.10308149327E+04  0.17188045328E+03 0.  0.
        -24    2    5    5    0    0  0.12914761547E+03 -0.80144197566E+02  0.81416216802E+03  0.83205695829E+03  0.79727956300E+02 0.  0.
          5    1    3    3  501    0 -0.75736013276E+02  0.69111739597E+02  0.13186139624E+03  0.16709845623E+03  0.47000000000E+01 0. -1.
        -11    1    4    4    0    0 -0.19076110291E+02 -0.27076490162E+02  0.28262340784E+03  0.28455759516E+03  0.00000000000E+00 0.  1.
         12    1    4    4    0    0 -0.23209939870E+02 -0.94110144633E+00  0.14843885651E+02  0.27566790200E+02  0.00000000000E+00 0. -1.
         -5    1    5    5    0  502 -0.11125552036E+02  0.39050049578E+02  0.19450953222E+03  0.19875797444E+03  0.47000000000E+01 0.  1.
         11    1    6    6    0    0  0.65581124699E+01 -0.15536790426E+02  0.21257435514E+02  0.27134466285E+02  0.00000000000E+00 0. -1.
        -12    1    6    6    0    0  0.12258950300E+03 -0.64607407140E+02  0.79290473250E+03  0.80492249200E+03  0.00000000000E+00 0.  1.
</event>
<event>
12    1  0.8421768E-002  0.2266967E+03  0.7818608E-02  0.1129722E+00
         21   -1    0    0  501  502  0.00000000000E+00  0.00000000000E+00  0.36361985034E+03  0.36361985034E+03  0.00000000000E+00 0. -1.
         21   -1    0    0  502  503 -0.00000000000E+00 -0.00000000000E+00 -0.20751094469E+03  0.20751094469E+03  0.00000000000E+00 0.  1.
         -6    2    1    2    0  503  0.41855279042E+02  0.14038041276E+03 -0.85778085488E+02  0.24238250671E+03  0.17301119888E+03 0.  0.
        -24    2    3    3    0    0  0.25793606819E+02  0.64391471472E+01 -0.63050501577E+02  0.10549980868E+03  0.80299882406E+02 0.  0.
          6    2    1    2  501    0 -0.41855279042E+02 -0.14038041276E+03  0.24188699114E+03  0.32874828832E+03  0.16765320135E+03 0.  0.
         24    2    5    5    0    0 -0.59498142284E+02 -0.13777437655E+03  0.10293495631E+03  0.18857760653E+03  0.49437846710E+02 0.  0.
          5    1    5    5  501    0  0.17642863242E+02 -0.26060362055E+01  0.13895203484E+03  0.14017068179E+03  0.47000000000E+01 0. -1.
        -11    1    6    6    0    0 -0.45282762151E+02 -0.59358378179E+02  0.29717656235E+02  0.80355987332E+02  0.00000000000E+00 0.  1.
         12    1    6    6    0    0 -0.14215380133E+02 -0.78415998371E+02  0.73217300071E+02  0.10822161920E+03  0.00000000000E+00 0. -1.
         -5    1    3    3    0  503  0.16061672224E+02  0.13394126561E+03 -0.22727583911E+02  0.13688269802E+03  0.47000000000E+01 0.  1.
         13    1    4    4    0    0  0.32117053104E+02  0.12000516458E+02  0.69596146535E+01  0.34985050114E+02  0.00000000000E+00 0. -1.
        -14    1    4    4    0    0 -0.63234462855E+01 -0.55613693106E+01 -0.70010116231E+02  0.70514758570E+02  0.00000000000E+00 0.  1.
</event>
<event>
12    1  0.8421768E-002  0.1885402E+03  0.7818608E-02  0.1160216E+00
         21   -1    0    0  501  502  0.00000000000E+00  0.00000000000E+00  0.95582865381E+02  0.95582865381E+02  0.00000000000E+00 0.  1.
         21   -1    0    0  502  503 -0.00000000000E+00 -0.00000000000E+00 -0.10215900533E+04  0.10215900533E+04  0.00000000000E+00 0.  1.
         -6    2    1    2    0  503  0.30003860304E+02  0.63802268290E+02 -0.90888806183E+03  0.92785708069E+03  0.17283024092E+03 0.  0.
        -24    2    3    3    0    0  0.37456423424E+02 -0.29561442312E+02 -0.43432580159E+03  0.44411773766E+03  0.79528614014E+02 0.  0.
          6    2    1    2  501    0 -0.30003860304E+02 -0.63802268290E+02 -0.17119126139E+02  0.18931583804E+03  0.17486126209E+03 0.  0.
         24    2    5    5    0    0  0.24397374294E+02 -0.75407629262E+02  0.23102419901E+02  0.12051146685E+03  0.87793789153E+02 0.  0.
          5    1    5    5  501    0 -0.54401234598E+02  0.11605360971E+02 -0.40221546040E+02  0.68804371190E+02  0.47000000000E+01 0. -1.
        -11    1    6    6    0    0  0.33179991197E+02 -0.91735663298E+02  0.10547537756E+02  0.98120305183E+02  0.00000000000E+00 0.  1.
         12    1    6    6    0    0 -0.87826169023E+01  0.16328034036E+02  0.12554882144E+02  0.22391161667E+02  0.00000000000E+00 0. -1.
         -5    1    3    3    0  503 -0.74525631200E+01  0.93363710602E+02 -0.47456226023E+03  0.48373934303E+03  0.47000000000E+01 0.  1.
         11    1    4    4    0    0 -0.22379075408E+02 -0.15854891439E+02 -0.20056144928E+03  0.20242800087E+03  0.00000000000E+00 0. -1.
        -12    1    4    4    0    0  0.59835498832E+02 -0.13706550872E+02 -0.23376435231E+03  0.24168973679E+03  0.00000000000E+00 0.  1.
</event>
<event>
12    1  0.8421768E-002  0.2783900E+03  0.7818608E-02  0.1096626E+00
         21   -1    0    0  501  502  0.00000000000E+00  0.00000000000E+00  0.16007353578E+04  0.16007353578E+04  0.00000000000E+00 0.  1.
         21   -1    0    0  502  503 -0.00000000000E+00 -0.00000000000E+00 -0.77084150769E+02  0.77084150769E+02  0.00000000000E+00 0. -1.
         -6    2    1    2    0  503 -0.17820709128E+03  0.12561039846E+03  0.24994915413E+03  0.37413309942E+03  0.17310475687E+03 0.  0.
        -24    2    3    3    0    0 -0.16583350759E+03  0.11705250525E+03  0.13153558621E+03  0.25467513118E+03  0.79723088108E+02 0.  0.
          6    2    1    2  501    0  0.17820709128E+03 -0.12561039846E+03  0.12737020529E+04  0.13036864091E+04  0.17246911097E+03 0.  0.
         24    2    5    5    0    0  0.11935315928E+03 -0.15415138116E+03  0.90074789333E+03  0.92501073242E+03  0.79311177013E+02 0.  0.
          5    1    5    5  501    0  0.58853932000E+02  0.28540982703E+02  0.37295415957E+03  0.37867567673E+03  0.47000000000E+01 0. -1.
        -13    1    6    6    0    0  0.37572436728E+02 -0.97342566330E+02  0.57474025637E+03  0.58413493777E+03  0.00000000000E+00 0.  1.
         14    1    6    6    0    0  0.81780722555E+02 -0.56808814832E+02  0.32600763696E+03  0.34087579465E+03  0.00000000000E+00 0. -1.
         -5    1    3    3    0  503 -0.12373583695E+02  0.85578932041E+01  0.11841356791E+03  0.11945796824E+03  0.47000000000E+01 0.  1.
         13    1    4    4    0    0 -0.26955656240E+02  0.41683280193E+02  0.88844237504E+00  0.49647684546E+02  0.00000000000E+00 0. -1.
        -14    1    4    4    0    0 -0.13887785135E+03  0.75369225062E+02  0.13064714384E+03  0.20502744664E+03  0.00000000000E+00 0.  1.
</event>
<event>
12    1  0.8421768E-002  0.3179504E+03  0.7818608E-02  0.1076617E+00
         21   -1    0    0  501  502  0.00000000000E+00  0.00000000000E+00  0.51593303738E+03  0.51593303738E+03  0.00000000000E+00 0.  1.
         21   -1    0    0  502  503 -0.00000000000E+00 -0.00000000000E+00 -0.23370450709E+03  0.23370450709E+03  0.00000000000E+00 0.  1.
         -6    2    1    2    0  503  0.13821646076E+03 -0.22871258536E+03 -0.97374993802E+01  0.31809944283E+03  0.17227652164E+03 0.  0.
        -24    2    3    3    0    0  0.70855642948E+01 -0.99607754051E+02  0.26257484440E+02  0.13053319231E+03  0.79859557451E+02 0.  0.
          6    2    1    2  501    0 -0.13821646076E+03  0.22871258536E+03  0.29196602968E+03  0.43153810164E+03  0.17195270848E+03 0.  0.
         24    2    5    5    0    0 -0.14615228359E+03  0.24063706616E+03  0.29533497457E+03  0.41609108523E+03  0.81500652732E+02 0.  0.
          5    1    5    5  501    0  0.79358228280E+01 -0.11924480796E+02 -0.33689448944E+01  0.15447016408E+02  0.47000000000E+01 0. -1.
        -11    1    6    6    0    0 -0.28601704687E+02  0.10195578191E+03  0.71692261231E+02  0.12787814237E+03  0.00000000000E+00 0.  1.
         12    1    6    6    0    0 -0.11755057890E+03  0.13868128425E+03  0.22364271334E+03  0.28821294286E+03  0.00000000000E+00 0. -1.
         -5    1    3    3    0  503  0.13113089647E+03 -0.12910483131E+03 -0.35994983820E+02  0.18756625053E+03  0.47000000000E+01 0.  1.
         13    1    4    4    0    0  0.20954041997E+02 -0.10903650072E+03  0.24189294624E+02  0.11363605211E+03  0.00000000000E+00 0. -1.
        -14    1    4    4    0    0 -0.13868477702E+02  0.94287466712E+01  0.20681898163E+01  0.16897140193E+02  0.00000000000E+00 0.  1.
</event>
<event>
12    1  0.8421768E-002  0.1868593E+03  0.7818608E-02  0.1165948E+00
         21   -1    0    0  501  502  0.00000000000E+00  0.00000000000E+00  0.51647662385E+03  0.51647662385E+03  0.00000000000E+00 0.  1.
         21   -1    0    0  502  503 -0.00000000000E+00 -0.00000000000E+00 -0.60972761267E+02  0.60972761267E+02  0.00000000000E+00 0.  1.
         -6    2    1    2    0  503 -0.39230530512E+02  0.77709360110E+01  0.24814796062E+03  0.31063454668E+03  0.18252942026E+03 0.  0.
        -24    2    3    3    0    0 -0.42862325843E+02 -0.18902886562E+02  0.26319345386E+03  0.27943936091E+03  0.81369921800E+02 0.  0.
          6    2    1    2  501    0  0.39230530512E+02 -0.77709360110E+01  0.20735590197E+03  0.26681483844E+03  0.16307748453E+03 0.  0.
         24    2    5    5    0    0  0.68824870023E+02  0.58265985446E+01  0.72270174879E+02  0.12777901018E+03  0.79584453762E+02 0.  0.
          5    1    5    5  501    0 -0.29594339511E+02 -0.13597534556E+02  0.13508572709E+03  0.13903582826E+03  0.47000000000E+01 0. -1.
        -11    1    6    6    0    0  0.65245379920E+02 -0.19456957729E+01  0.88181917171E+02  0.10971233226E+03  0.00000000000E+00 0.  1.
         12    1    6    6    0    0  0.35794901036E+01  0.77722943176E+01 -0.15911742292E+02  0.18066677922E+02  0.00000000000E+00 0. -1.
         -5    1    3    3    0  503  0.36317953310E+01  0.26673822573E+02 -0.15045493247E+02  0.31195185766E+02  0.47000000000E+01 0.  1.
         13    1    4    4    0    0 -0.15326799733E+02 -0.48307040987E+02  0.18011492622E+03  0.18710923988E+03  0.00000000000E+00 0. -1.
        -14    1    4    4    0    0 -0.27535526110E+02  0.29404154426E+02  0.83078527641E+02  0.92330121037E+02  0.00000000000E+00 0.  1.
</event>
<event>
12    1  0.8421768E-002  0.1939145E+03  0.7818608E-02  0.1155473E+00
         21   -1    0    0  503  502  0.00000000000E+00  0.00000000000E+00  0.16864027935E+04  0.16864027935E+04  0.00000000000E+00 0. -1.
         21   -1    0    0  501  503 -0.00000000000E+00 -0.00000000000E+00 -0.31999043244E+02  0.31999043244E+02  0.00000000000E+00 0.  1.
          6    2    1    2  501    0 -0.66352324244E+02  0.48535087544E+02  0.35120561614E+03  0.40118353862E+03  0.17562619734E+03 0.  0.
         24    2    3    3    0    0  0.15728920415E+02 -0.18554047692E+02  0.19604984449E+03  0.21321097075E+03  0.80198035525E+02 0.  0.
         -6    2    1    2    0  502  0.66352324244E+02 -0.48535087544E+02  0.13031981341E+04  0.13172182981E+04  0.17314844068E+03 0.  0.
        -24    2    5    5    0    0  0.55936569775E+02 -0.88294338208E+02  0.11771335031E+04  0.11845394861E+04  0.81029131397E+02 0.  0.
          5    1    3    3  501    0 -0.82081244659E+02  0.67089135236E+02  0.15515577166E+03  0.18797256786E+03  0.47000000000E+01 0. -1.
        -11    1    4    4    0    0  0.70773398889E+01 -0.80673642030E+01 -0.49030287555E+01  0.11798762480E+02  0.00000000000E+00 0.  1.
         12    1    4    4    0    0  0.86515805260E+01 -0.10486683489E+02  0.20095287324E+03  0.20141220827E+03  0.00000000000E+00 0. -1.
         -5    1    5    5    0  502  0.10415754469E+02  0.39759250664E+02  0.12606463100E+03  0.13267881197E+03  0.47000000000E+01 0.  1.
         13    1    6    6    0    0 -0.49711319631E+01 -0.67707162432E+02  0.58539192777E+03  0.58931543429E+03  0.00000000000E+00 0. -1.
        -14    1    6    6    0    0  0.60907701738E+02 -0.20587175776E+02  0.59174157530E+03  0.59522405183E+03  0.00000000000E+00 0.  1.
</event>
<event>
12    1  0.8421768E-002  0.2214762E+03  0.7818608E-02  0.1132886E+00
         21   -1    0    0  503  502  0.00000000000E+00  0.00000000000E+00  0.46950644354E+02  0.46950644354E+02  0.00000000000E+00 0.  1.
         21   -1    0    0  501  503 -0.00000000000E+00 -0.00000000000E+00 -0.10439096329E+04  0.10439096329E+04  0.00000000000E+00 0. -1.
          6    2    1    2  501    0  0.13603671179E+03 -0.20737455181E+02 -0.47607090962E+03  0.52484251412E+03  0.17285868403E+03 0.  0.
         24    2    3    3    0    0  0.75718216218E+02 -0.32335202348E+02 -0.13120966493E+03  0.17452237948E+03  0.80394472390E+02 0.  0.
         -6    2    1    2    0  502 -0.13603671179E+03  0.20737455181E+02 -0.52088807893E+03  0.56601776314E+03  0.17353872309E+03 0.  0.
        -24    2    5    5    0    0 -0.27979489013E+02  0.27555706987E+02 -0.37101070847E+03  0.38106326028E+03  0.77576373596E+02 0.  0.
          5    1    3    3  501    0  0.60318495568E+02  0.11597747168E+02 -0.34486124469E+03  0.35032013464E+03  0.47000000000E+01 0. -1.
        -11    1    4    4    0    0  0.81071403252E+02 -0.36729732520E+01 -0.11618370729E+03  0.14172055954E+03  0.00000000000E+00 0.  1.
         12    1    4    4    0    0 -0.53531870343E+01 -0.28662229096E+02 -0.15025957637E+02  0.32801819936E+02  0.00000000000E+00 0. -1.
         -5    1    5    5    0  502 -0.10805722277E+03 -0.68182518058E+01 -0.14987737046E+03  0.18495450286E+03  0.47000000000E+01 0.  1.
         11    1    6    6    0    0 -0.19543752058E+01  0.51007961560E+02 -0.19287920930E+03  0.19951947551E+03  0.00000000000E+00 0. -1.
        -12    1    6    6    0    0 -0.26025113807E+02 -0.23452254574E+02 -0.17813149917E+03  0.18154378477E+03  0.00000000000E+00 0.  1.
</event>
<event>
12    1  0.8421768E-002  0.2810008E+03  0.7818608E-02  0.1095180E+00
         21   -1    0    0  501  502  0.00000000000E+00  0.00000000000E+00  0.83133727035E+02  0.83133727035E+02  0.00000000000E+00 0. -1.
         21   -1    0    0  502  503 -0.00000000000E+00 -0.00000000000E+00 -0.96074955509E+03  0.96074955509E+03  0.00000000000E+00 0.  1.
         -6    2    1    2    0  503 -0.98344637989E+02 -0.19895096103E+03 -0.38109314580E+03  0.47349071081E+03  0.17236100119E+03 0.  0.
        -24    2    3    3    0    0  0.11793852484E+02 -0.12346957278E+03 -0.20332663201E+03  0.25111501412E+03  0.79581409076E+02 0.  0.
          6    2    1    2  501    0  0.98344637989E+02  0.19895096103E+03 -0.49652268225E+03  0.57039257132E+03  0.17192951668E+03 0.  0.
         24    2    5    5    0    0  0.60918047079E+02  0.18893636188E+03 -0.48409660000E+03  0.52943479521E+03  0.80893305968E+02 0.  0.
          5    1    5    5  501    0  0.37426590910E+02  0.10014599147E+02 -0.12426082257E+02  0.40957776105E+02  0.47000000000E+01 0. -1.
        -13    1    6    6    0    0  0.13971174741E+02  0.60091079658E+01 -0.10292951370E+03  0.10404704653E+03  0.00000000000E+00 0.  1.
         14    1    6    6    0    0  0.46946872338E+02  0.18292725392E+03 -0.38116708630E+03  0.42538774868E+03  0.00000000000E+00 0. -1.
         -5    1    3    3    0  503 -0.11013849047E+03 -0.75481388249E+02 -0.17776651379E+03  0.22237569669E+03  0.47000000000E+01 0.  1.
         13    1    4    4    0    0  0.21181729503E+02 -0.12559414560E+01 -0.53390930534E+02  0.57452889544E+02  0.00000000000E+00 0. -1.
        -14    1    4    4    0    0 -0.93878770197E+01 -0.12221363132E+03 -0.14993570148E+03  0.19366212457E+03  0.00000000000E+00 0.  1.
</event>
<event>
12    1  0.8421768E-002  0.2106412E+03  0.7818608E-02  0.1141127E+00
         21   -1    0    0  503  502  0.00000000000E+00  0.00000000000E+00  0.12423296148E+03  0.12423296148E+03  0.00000000000E+00 0.  1.
         21   -1    0    0  501  503 -0.00000000000E+00 -0.00000000000E+00 -0.36358720119E+03  0.36358720119E+03  0.00000000000E+00 0.  1.
          6    2    1    2  501    0 -0.84506085776E+00 -0.12121079616E+03 -0.85700951189E+02  0.22709226625E+03  0.17185305677E+03 0.  0.
         24    2    3    3    0    0  0.48102069422E+02 -0.12522325334E+03 -0.45491780117E+02  0.16344645874E+03  0.81551030375E+02 0.  0.
         -6    2    1    2    0  502  0.84506085776E+00  0.12121079616E+03 -0.15365328852E+03  0.26072789642E+03  0.17226993837E+03 0.  0.
        -24    2    5    5    0    0 -0.20301119782E+01  0.10007415694E+03 -0.23969613750E+02  0.12921755600E+03  0.78126027370E+02 0.  0.
          5    1    3    3  501    0 -0.48947130279E+02  0.40124571833E+01 -0.40209171072E+02  0.63645807509E+02  0.47000000000E+01 0. -1.
        -13    1    4    4    0    0 -0.50328775007E+01 -0.64546831965E+02 -0.51272518591E+02  0.82586285395E+02  0.00000000000E+00 0.  1.
         14    1    4    4    0    0  0.53134946922E+02 -0.60676421378E+02  0.57807384744E+01  0.80860173342E+02  0.00000000000E+00 0. -1.
         -5    1    5    5    0  502  0.28751728359E+01  0.21136639217E+02 -0.12968367477E+03  0.13151034042E+03  0.47000000000E+01 0.  1.
         13    1    6    6    0    0 -0.17413572476E+02  0.13466071629E+02 -0.34188498436E+02  0.40662280025E+02  0.00000000000E+00 0. -1.
        -14    1    6    6    0    0  0.15383460498E+02  0.86608085314E+02  0.10218884686E+02  0.88555275974E+02  0.00000000000E+00 0.  1.
</event>
<event>
12    1  0.8421768E-002  0.1873502E+03  0.7818608E-02  0.1161030E+00
         21   -1    0    0  503  502  0.00000000000E+00  0.00000000000E+00  0.14111204281E+03  0.14111204281E+03  0.00000000000E+00 0. -1.
         21   -1    0    0  501  503 -0.00000000000E+00 -0.00000000000E+00 -0.36301717465E+03  0.36301717465E+03  0.00000000000E+00 0. -1.
          6    2    1    2  501    0 -0.23415640147E+02  0.65032377543E+02 -0.25279994690E+03  0.31424871831E+03  0.17339821646E+03 0.  0.
         24    2    3    3    0    0 -0.54843958537E+02  0.97710043078E+02 -0.21395153338E+03  0.25435833298E+03  0.79798437409E+02 0.  0.
         -6    2    1    2    0  502  0.23415640147E+02 -0.65032377543E+02  0.30894815060E+02  0.18988049915E+03  0.17413389109E+03 0.  0.
        -24    2    5    5    0    0  0.77723855158E+02 -0.65479022374E+02  0.37785806377E+02  0.13493363873E+03  0.80316994866E+02 0.  0.
          5    1    3    3  501    0  0.31428318390E+02 -0.32677665535E+02 -0.38848413519E+02  0.59890385326E+02  0.47000000000E+01 0. -1.
        -11    1    4    4    0    0 -0.34925816387E+02  0.44589799327E+01 -0.26568501293E+02  0.44108733979E+02  0.00000000000E+00 0.  1.
         12    1    4    4    0    0 -0.19918142150E+02  0.93251063146E+02 -0.18738303209E+03  0.21024959900E+03  0.00000000000E+00 0. -1.
         -5    1    5    5    0  502 -0.54308215010E+02  0.44664483094E+00 -0.68909913177E+01  0.54946860425E+02  0.47000000000E+01 0.  1.
         11    1    6    6    0    0  0.72375895926E+02 -0.21190100536E+02  0.47701762315E+02  0.89234235581E+02  0.00000000000E+00 0. -1.
        -12    1    6    6    0    0  0.53479592322E+01 -0.44288921838E+02 -0.99159559379E+01  0.45699403144E+02  0.00000000000E+00 0.  1.
</event>
<event>
12    1  0.8421768E-002  0.2564216E+03  0.7818608E-02  0.1109416E+00
         21   -1    0    0  503  502  0.00000000000E+00  0.00000000000E+00  0.10789239985E+03  0.10789239985E+03  0.00000000000E+00 0.  1.
         21   -1    0    0  501  503 -0.00000000000E+00 -0.00000000000E+00 -0.61873387384E+03  0.61873387384E+03  0.00000000000E+00 0.  1.
          6    2    1    2  501    0 -0.18712766547E+03  0.31965425069E+02 -0.20749669073E+03  0.32985892571E+03  0.17237599201E+03 0.  0.
         24    2    3    3    0    0 -0.18876688657E+03  0.11629024749E+02 -0.22434699364E+03  0.30298367814E+03  0.75494132092E+02 0.  0.
         -6    2    1    2    0  502  0.18712766547E+03 -0.31965425069E+02 -0.30334478326E+03  0.39676734798E+03  0.17137012374E+03 0.  0.
        -24    2    5    5    0    0  0.19271789218E+03 -0.19795851403E+02 -0.19090578386E+03  0.28343611776E+03  0.79743042580E+02 0.  0.
          5    1    3    3  501    0  0.16392211011E+01  0.20336400320E+02  0.16850302910E+02  0.26875247570E+02  0.47000000000E+01 0. -1.
        -13    1    4    4    0    0 -0.16836372865E+03 -0.14154812340E+02 -0.17152665480E+03  0.24076564777E+03  0.00000000000E+00 0.  1.
         14    1    4    4    0    0 -0.20403157920E+02  0.25783837089E+02 -0.52820338839E+02  0.62218030371E+02  0.00000000000E+00 0. -1.
         -5    1    5    5    0  502 -0.55902267123E+01 -0.12169573665E+02 -0.11243899940E+03  0.11333123022E+03  0.47000000000E+01 0.  1.
         11    1    6    6    0    0  0.38581384163E+02 -0.30515585937E+01 -0.91274430448E+02  0.99140591421E+02  0.00000000000E+00 0. -1.
        -12    1    6    6    0    0  0.15413650802E+03 -0.16744292810E+02 -0.99631353412E+02  0.18429552634E+03  0.00000000000E+00 0.  1.
</event>
<event>
12    1  0.8421768E-002  0.1823237E+03  0.7818608E-02  0.1165696E+00
         21   -1    0    0  501  502  0.00000000000E+00  0.00000000000E+00  0.17829468308E+03  0.17829468308E+03  0.00000000000E+00 0.  1.
         21   -1    0    0  502  503 -0.00000000000E+00 -0.00000000000E+00 -0.27800900768E+03  0.27800900768E+03  0.00000000000E+00 0.  1.
         -6    2    1    2    0  503 -0.52417971748E+02  0.30693757630E+02 -0.18121671867E+03  0.25706310899E+03  0.17190751106E+03 0.  0.
        -24    2    3    3    0    0 -0.18739549281E+02  0.63657963567E+02 -0.45611831837E+02  0.11342589116E+03  0.79884207131E+02 0.  0.
          6    2    1    2  501    0  0.52417971748E+02 -0.30693757630E+02  0.81502394069E+02  0.19924058177E+03  0.17136049331E+03 0.  0.
         24    2    5    5    0    0 -0.23807709917E+02  0.88323467505E-01 -0.47878012159E+01  0.79967873814E+02  0.76191357445E+02 0.  0.
          5    1    5    5  501    0  0.76225681665E+02 -0.30782081098E+02  0.86290195285E+02  0.11927270796E+03  0.47000000000E+01 0. -1.
        -13    1    6    6    0    0 -0.26146007226E+02  0.22475469646E+02  0.25031594459E+02  0.42606820473E+02  0.00000000000E+00 0.  1.
         14    1    6    6    0    0  0.23382973089E+01 -0.22387146179E+02 -0.29819395675E+02  0.37361053341E+02  0.00000000000E+00 0. -1.
         -5    1    3    3    0  503 -0.33678422466E+02 -0.32964205937E+02 -0.13560488684E+03  0.14363721783E+03  0.47000000000E+01 0.  1.
         11    1    4    4    0    0 -0.17478953800E+01 -0.36573790366E+00  0.20065810084E+02  0.20145114465E+02  0.00000000000E+00 0. -1.
        -12    1    4    4    0    0 -0.16991653901E+02  0.64023701471E+02 -0.65677641921E+02  0.93280776694E+02  0.00000000000E+00 0.  1.
</event>
<event>
12    1  0.8421768E-002  0.2224363E+03  0.7818608E-02  0.1132461E+00
         21   -1    0    0  503  502  0.00000000000E+00  0.00000000000E+00  0.88863379306E+02  0.88863379306E+02  0.00000000000E+00 0. -1.
         21   -1    0    0  501  503 -0.00000000000E+00 -0.00000000000E+00 -0.58661084874E+03  0.58661084874E+03  0.00000000000E+00 0.  1.
          6    2    1    2  501    0  0.18793467914E+01  0.14111149643E+03 -0.33243548054E+03  0.39998906638E+03  0.17193579654E+03 0.  0.
         24    2    3    3    0    0  0.37173800280E+02  0.15894853171E+03 -0.28962676021E+03  0.34152082876E+03  0.78142748122E+02 0.  0.
         -6    2    1    2    0  502 -0.18793467914E+01 -0.14111149643E+03 -0.16531198889E+03  0.27548516167E+03  0.16925730194E+03 0.  0.
        -24    2    5    5    0    0 -0.49252214795E+02 -0.11585998506E+03 -0.66598478941E+02  0.16302061394E+03  0.79316116711E+02 0.  0.
          5    1    3    3  501    0 -0.35294453488E+02 -0.17837035281E+02 -0.42808720330E+02  0.58468237625E+02  0.47000000000E+01 0. -1.
        -11    1    4    4    0    0  0.13127777788E+02  0.68173076990E+02 -0.20000374200E+03  0.21171066055E+03  0.00000000000E+00 0.  1.
         12    1    4    4    0    0  0.24046022491E+02  0.90775454717E+02 -0.89623018215E+02  0.12981016821E+03  0.00000000000E+00 0. -1.
         -5    1    5    5    0  502  0.47372868003E+02 -0.25251511365E+02 -0.98713509952E+02  0.11246454773E+03  0.47000000000E+01 0.  1.
         13    1    6    6    0    0  0.10144235179E+02 -0.12914128955E+00  0.81301552654E+01  0.13000831107E+02  0.00000000000E+00 0. -1.
        -14    1    6    6    0    0 -0.59396449973E+02 -0.11573084377E+03 -0.74728634206E+02  0.15001978283E+03  0.00000000000E+00 0.  1.
</event>
<event>
12    1  0.8421768E-002  0.1748200E+03  0.7818608E-02  0.1173078E+00
         21   -1    0    0  503  502  0.00000000000E+00  0.00000000000E+00  0.28709796255E+03  0.28709796255E+03  0.00000000000E+00 0.  1.
         21   -1    0    0  501  503 -0.00000000000E+00 -0.00000000000E+00 -0.11067998813E+03  0.11067998813E+03  0.00000000000E+00 0.  1.
          6    2    1    2  501    0  0.80280441306E+01 -0.23048442470E+02  0.12871737977E+03  0.21656706585E+03  0.17244549853E+03 0.  0.
         24    2    3    3    0    0  0.14199554771E+02  0.52757997473E+02  0.99345846864E+02  0.13490017644E+03  0.73098745966E+02 0.  0.
         -6    2    1    2    0  502 -0.80280441306E+01  0.23048442470E+02  0.47700594650E+02  0.18121088483E+03  0.17310793701E+03 0.  0.
        -24    2    5    5    0    0 -0.25594494066E+01 -0.28156393633E+02  0.82733532305E+02  0.11875099778E+03  0.80359372966E+02 0.  0.
          5    1    3    3  501    0 -0.61715106406E+01 -0.75806439944E+02  0.29371532901E+02  0.81666889407E+02  0.47000000000E+01 0. -1.
        -11    1    4    4    0    0 -0.26198672855E+02  0.19227479281E+01  0.30832802858E+02  0.40505915013E+02  0.00000000000E+00 0.  1.
         12    1    4    4    0    0  0.40398227626E+02  0.50835249545E+02  0.68513044006E+02  0.94394261429E+02  0.00000000000E+00 0. -1.
         -5    1    5    5    0  502 -0.54685947240E+01  0.51204836103E+02 -0.35032937655E+02  0.62459887043E+02  0.47000000000E+01 0.  1.
         11    1    6    6    0    0  0.17968641074E+02  0.16274015862E+02  0.60143771841E+02  0.64845886111E+02  0.00000000000E+00 0. -1.
        -12    1    6    6    0    0 -0.20528090481E+02 -0.44430409495E+02  0.22589760465E+02  0.53905111674E+02  0.00000000000E+00 0.  1.
</event>
<event>
12    1  0.8421768E-002  0.1985314E+03  0.7818608E-02  0.1151584E+00
         21   -1    0    0  503  502  0.00000000000E+00  0.00000000000E+00  0.18600205943E+04  0.18600205943E+04  0.00000000000E+00 0.  1.
         21   -1    0    0  501  503 -0.00000000000E+00 -0.00000000000E+00 -0.24284013792E+02  0.24284013792E+02  0.00000000000E+00 0. -1.
          6    2    1    2  501    0  0.99331106996E+02 -0.11494307891E+01  0.57140739985E+03  0.60491416011E+03  0.17189163588E+03 0.  0.
         24    2    3    3    0    0 -0.31679127756E+01 -0.32332508949E+02  0.17448398285E+03  0.19375880944E+03  0.77732806192E+02 0.  0.
         -6    2    1    2    0  502 -0.99331106996E+02  0.11494307891E+01  0.12643291806E+04  0.12793904480E+04  0.16865245722E+03 0.  0.
        -24    2    5    5    0    0 -0.85714207975E+02  0.92419942345E+01  0.44895676097E+03  0.46385063761E+03  0.78504145645E+02 0.  0.
          5    1    3    3  501    0  0.10249901977E+03  0.31183078160E+02  0.39692341700E+03  0.41115535067E+03  0.47000000000E+01 0. -1.
        -13    1    4    4    0    0  0.19465174650E+02 -0.13654801951E+02  0.15863612854E+03  0.16040812922E+03  0.00000000000E+00 0.  1.
         14    1    4    4    0    0 -0.22633087426E+02 -0.18677706999E+02  0.15847854308E+02  0.33350680223E+02  0.00000000000E+00 0. -1.
         -5    1    5    5    0  502 -0.13616899021E+02 -0.80925634454E+01  0.81537241965E+03  0.81553981034E+03  0.47000000000E+01 0.  1.
         13    1    6    6    0    0 -0.10013985083E+03  0.10966405630E+02  0.36502287304E+03  0.37866865413E+03  0.00000000000E+00 0. -1.
        -14    1    6    6    0    0  0.14425642859E+02 -0.17244113955E+01  0.83933887926E+02  0.85181983476E+02  0.00000000000E+00 0.  1.
</event>
<event>
12    1  0.8421768E-002  0.1879061E+03  0.7818608E-02  0.1160368E+00
         21   -1    0    0  501  502  0.00000000000E+00  0.00000000000E+00  0.21315125754E+04  0.21315125754E+04  0.00000000000E+00 0.  1.
         21   -1    0    0  502  503 -0.00000000000E+00 -0.00000000000E+00 -0.20626225930E+02  0.20626225930E+02  0.00000000000E+00 0.  1.
         -6    2    1    2    0  503  0.27767226373E+02  0.70368262876E+02  0.57783174522E+03  0.60761132281E+03  0.17198628592E+03 0.  0.
        -24    2    3    3    0    0  0.71964205232E+02  0.53890736323E+02  0.51527051525E+03  0.52912005376E+03  0.79882846154E+02 0.  0.
          6    2    1    2  501    0 -0.27767226373E+02 -0.70368262876E+02  0.15330546043E+04  0.15445274785E+04  0.17200581679E+03 0.  0.
         24    2    5    5    0    0 -0.45282493868E+01 -0.11414468860E+03  0.11493559861E+04  0.11576125718E+04  0.77447844005E+02 0.  0.
          5    1    5    5  501    0 -0.23238976986E+02  0.43776425725E+02  0.38369861811E+03  0.38691490672E+03  0.47000000000E+01 0. -1.
        -13    1    6    6    0    0 -0.28834834201E+02 -0.10255014320E+03  0.77467938563E+03  0.78196939202E+03  0.00000000000E+00 0.  1.
         14    1    6    6    0    0  0.24306584815E+02 -0.11594545400E+02  0.37467660052E+03  0.37564317979E+03  0.00000000000E+00 0. -1.
         -5    1    3    3    0  503 -0.44196978860E+02  0.16477526553E+02  0.62561229968E+02  0.78491269048E+02  0.47000000000E+01 0.  1.
         13    1    4    4    0    0  0.43773767073E+01 -0.11079830601E+02  0.11019994895E+02  0.16228504567E+02  0.00000000000E+00 0. -1.
        -14    1    4    4    0    0  0.67586828525E+02  0.64970566924E+02  0.50425052035E+03  0.51289154919E+03  0.00000000000E+00 0.  1.
</event>
<event>
12    1  0.8421768E-002  0.2974544E+03  0.7818608E-02  0.1086607E+00
         21   -1    0    0  503  502  0.00000000000E+00  0.00000000000E+00  0.78673630854E+03  0.78673630854E+03  0.00000000000E+00 0.  1.
         21   -1    0    0  501  503 -0.00000000000E+00 -0.00000000000E+00 -0.14878529508E+03  0.14878529508E+03  0.00000000000E+00 0. -1.
          6    2    1    2  501    0 -0.10410548373E+03 -0.21845490158E+03  0.55118842467E+03  0.62632881687E+03  0.17296997304E+03 0.  0.
         24    2    3    3    0    0 -0.11745085781E+03 -0.23545489732E+03  0.51853598254E+03  0.58689062672E+03  0.79544515074E+02 0.  0.
         -6    2    1    2    0  502  0.10410548373E+03  0.21845490158E+03  0.86762588785E+02  0.30919278675E+03  0.17179038622E+03 0.  0.
        -24    2    5    5    0    0  0.12559755559E+02  0.16095230639E+03  0.23097652141E+02  0.18364405932E+03  0.84428944086E+02 0.  0.
          5    1    3    3  501    0  0.13345374074E+02  0.16999995739E+02  0.32652442136E+02  0.39438190142E+02  0.47000000000E+01 0. -1.
        -13    1    4    4    0    0 -0.86993272627E+02 -0.10487697123E+03  0.31439785836E+03  0.34265583596E+03  0.00000000000E+00 0.  1.
         14    1    4    4    0    0 -0.30457585179E+02 -0.13057792608E+03  0.20413812418E+03  0.24423479076E+03  0.00000000000E+00 0. -1.
         -5    1    5    5    0  502  0.91545728174E+02  0.57502595192E+02  0.63664936644E+02  0.12554872743E+03  0.47000000000E+01 0.  1.
         13    1    6    6    0    0  0.74128463562E+01  0.83340776176E+02 -0.30640753471E+02  0.89103821680E+02  0.00000000000E+00 0. -1.
        -14    1    6    6    0    0  0.51469092024E+01  0.77611530209E+02  0.53738405612E+02  0.94540237642E+02  0.00000000000E+00 0.  1.
</event>
<event>
12    1  0.8421768E-002  0.2322902E+03  0.7818608E-02  0.1125553E+00
         21   -1    0    0  503  502  0.00000000000E+00  0.00000000000E+00  0.55459927982E+02  0.55459927982E+02  0.00000000000E+00 0. -1.
         21   -1    0    0  501  503 -0.00000000000E+00 -0.00000000000E+00 -0.11752381704E+04  0.11752381704E+04  0.00000000000E+00 0. -1.
          6    2    1    2  501    0 -0.15494076830E+03  0.29695531629E+02 -0.82575604648E+03  0.85780636745E+03  0.17049999841E+03 0.  0.
         24    2    3    3    0    0 -0.56948148278E+02  0.36962443048E+02 -0.62568448895E+03  0.63485776415E+03  0.83390570208E+02 0.  0.
         -6    2    1    2    0  502  0.15494076830E+03 -0.29695531629E+02 -0.29402219590E+03  0.37289173090E+03  0.16646538682E+03 0.  0.
        -24    2    5    5    0    0  0.10062321975E+03  0.12098566236E+02 -0.27233607586E+03  0.30085340429E+03  0.77938597659E+02 0.  0.
          5    1    3    3  501    0 -0.97992620022E+02 -0.72669114192E+01 -0.20007155752E+03  0.22294860329E+03  0.47000000000E+01 0. -1.
        -13    1    4    4    0    0 -0.72704474289E+01  0.13887574092E+02 -0.46171788866E+03  0.46198390970E+03  0.00000000000E+00 0.  1.
         14    1    4    4    0    0 -0.49677700849E+02  0.23074868956E+02 -0.16396660030E+03  0.17287385445E+03  0.00000000000E+00 0. -1.
         -5    1    5    5    0  502  0.54317548555E+02 -0.41794097865E+02 -0.21686120046E+02  0.72038326605E+02  0.47000000000E+01 0.  1.
         11    1    6    6    0    0  0.39756613568E+02  0.33213403518E+02 -0.61591135672E+02  0.80480969732E+02  0.00000000000E+00 0. -1.
        -12    1    6    6    0    0  0.60866606178E+02 -0.21114837283E+02 -0.21074494019E+03  0.22037243456E+03  0.00000000000E+00 0.  1.
</event>
<event>
12    1  0.8421768E-002  0.1797761E+03  0.7818608E-02  0.1168226E+00
         21   -1    0    0  503  502  0.00000000000E+00  0.00000000000E+00  0.34819017916E+02  0.34819017916E+02  0.00000000000E+00 0. -1.
         21   -1    0    0  501  503 -0.00000000000E+00 -0.00000000000E+00 -0.10716598810E+04  0.10716598810E+04  0.00000000000E+00 0. -1.
          6    2    1    2  501    0 -0.18249139716E+02 -0.46186942585E+02 -0.72283384244E+03  0.74465042119E+03  0.17189886919E+03 0.  0.
         24    2    3    3    0    0  0.14921129509E+02 -0.45928993343E+02 -0.69478231955E+03  0.70095475510E+03  0.79265279918E+02 0.  0.
         -6    2    1    2    0  502  0.18249139716E+02  0.46186942585E+02 -0.31400702062E+03  0.36182847771E+03  0.17278070933E+03 0.  0.
        -24    2    5    5    0    0  0.61175640123E+02 -0.17273959600E+02 -0.17372306948E+03  0.20191710385E+03  0.80931843737E+02 0.  0.
          5    1    3    3  501    0 -0.33170269225E+02 -0.25794924261E+00 -0.28051522888E+02  0.43695666085E+02  0.47000000000E+01 0. -1.
        -13    1    4    4    0    0  0.23691583862E+02 -0.57441090695E+02 -0.32482402090E+03  0.33071349322E+03  0.00000000000E+00 0.  1.
         14    1    4    4    0    0 -0.87704543532E+01  0.11512097352E+02 -0.36995829866E+03  0.37024126188E+03  0.00000000000E+00 0. -1.
         -5    1    5    5    0  502 -0.42926500407E+02  0.63460902185E+02 -0.14028395114E+03  0.15991137386E+03  0.47000000000E+01 0.  1.
         13    1    6    6    0    0  0.20564846900E+02 -0.38423580965E+02 -0.13529339918E+03  0.14213932729E+03  0.00000000000E+00 0. -1.
        -14    1    6    6    0    0  0.40610793222E+02  0.21149621365E+02 -0.38429670306E+02  0.59777776555E+02  0.00000000000E+00 0.  1.
</event>
<event>
12    1  0.8421768E-002  0.1954315E+03  0.7818608E-02  0.1153985E+00
         21   -1    0    0  503  502  0.00000000000E+00  0.00000000000E+00  0.17936070720E+03  0.17936070720E+03  0.00000000000E+00 0.  1.
         21   -1    0    0  501  503 -0.00000000000E+00 -0.00000000000E+00 -0.22216722481E+03  0.22216722481E+03  0.00000000000E+00 0.  1.
          6    2    1    2  501    0  0.69574134597E+02  0.57186890028E+02 -0.65767505962E+02  0.20475221581E+03  0.17171838702E+03 0.  0.
         24    2    3    3    0    0  0.87572716453E+02  0.94481827113E+02 -0.44173384972E+02  0.15781334766E+03  0.79736870014E+02 0.  0.
         -6    2    1    2    0  502 -0.69574134597E+02 -0.57186890028E+02  0.22960988356E+02  0.19677571620E+03  0.17344329017E+03 0.  0.
        -24    2    5    5    0    0  0.10324524154E+02 -0.73053086414E+02 -0.59483833122E+01  0.11021144165E+03  0.81656777879E+02 0.  0.
          5    1    3    3  501    0 -0.17998581856E+02 -0.37294937085E+02 -0.21594120990E+02  0.46938868141E+02  0.47000000000E+01 0. -1.
        -11    1    4    4    0    0  0.44207188217E+02  0.58801452828E+02  0.16233324055E+02  0.75335298198E+02  0.00000000000E+00 0.  1.
         12    1    4    4    0    0  0.43365528236E+02  0.35680374285E+02 -0.60406709027E+02  0.82478049467E+02  0.00000000000E+00 0. -1.
         -5    1    5    5    0  502 -0.79898658751E+02  0.15866196386E+02  0.28909371668E+02  0.86564274549E+02  0.47000000000E+01 0.  1.
         11    1    6    6    0    0  0.17511490355E+01  0.97372293685E+01  0.20595326785E+02  0.22848361957E+02  0.00000000000E+00 0. -1.
        -12    1    6    6    0    0  0.85733751184E+01 -0.82790315783E+02 -0.26543710098E+02  0.87363079696E+02  0.00000000000E+00 0.  1.
</event>
<event>
12    1  0.8421768E-002  0.1846875E+03  0.7818608E-02  0.1163456E+00
         21   -1    0    0  503  502  0.00000000000E+00  0.00000000000E+00  0.48596199788E+02  0.48596199788E+02  0.00000000000E+00 0. -1.
         21   -1    0    0  501  503 -0.00000000000E+00 -0.00000000000E+00 -0.71543698500E+03  0.71543698500E+03  0.00000000000E+00 0. -1.
          6    2    1    2  501    0  0.51260675771E+02 -0.43525317196E+02 -0.27696525866E+03  0.33262572493E+03  0.17148763297E+03 0.  0.
         24    2    3    3    0    0  0.37740577213E+02  0.32925342635E+02 -0.86476562767E+02  0.12686972935E+03  0.78162030177E+02 0.  0.
         -6    2    1    2    0  502 -0.51260675771E+02  0.43525317196E+02 -0.38987552655E+03  0.43140745986E+03  0.17200976745E+03 0.  0.
        -24    2    5    5    0    0 -0.84332882762E+02  0.49118231719E+02 -0.18360157979E+03  0.22237138001E+03  0.78834350011E+02 0.  0.
          5    1    3    3  501    0  0.13520098559E+02 -0.76450659831E+02 -0.19048869590E+03  0.20575599558E+03  0.47000000000E+01 0. -1.
        -13    1    4    4    0    0 -0.68927862633E+01 -0.21272125375E+02 -0.16945758324E+02  0.28056595403E+02  0.00000000000E+00 0.  1.
         14    1    4    4    0    0  0.44633363476E+02  0.54197468010E+02 -0.69530804443E+02  0.98813133947E+02  0.00000000000E+00 0. -1.
         -5    1    5    5    0  502  0.33072206991E+02 -0.55929145229E+01 -0.20627394676E+03  0.20903607985E+03  0.47000000000E+01 0.  1.
         11    1    6    6    0    0 -0.48198713938E+02 -0.13036924766E+02 -0.50047685823E+02  0.70695461586E+02  0.00000000000E+00 0. -1.
        -12    1    6    6    0    0 -0.36134168825E+02  0.62155156485E+02 -0.13355389397E+03  0.15167591842E+03  0.00000000000E+00 0.  1.
</event>
<event>
12    1  0.8421768E-002  0.1817793E+03  0.7818608E-02  0.1166255E+00
         21   -1    0    0  501  502  0.00000000000E+00  0.00000000000E+00  0.44878944035E+03  0.44878944035E+03  0.00000000000E+00 0. -1.
         21   -1    0    0  502  503 -0.00000000000E+00 -0.00000000000E+00 -0.86594761673E+02  0.86594761673E+02  0.00000000000E+00 0. -1.
         -6    2    1    2    0  503 -0.57956713185E+02  0.73235159381E+01  0.76705008578E+02  0.19730020002E+03  0.17213685282E+03 0.  0.
        -24    2    3    3    0    0 -0.37666746601E+02  0.67703295989E+02  0.72760129517E+02  0.13330760159E+03  0.80463408501E+02 0.  0.
          6    2    1    2  501    0  0.57956713185E+02 -0.73235159381E+01  0.28548967010E+03  0.33808400201E+03  0.17141711171E+03 0.  0.
         24    2    5    5    0    0  0.16222011636E+02  0.44462828353E+02  0.24150695770E+03  0.25820797457E+03  0.78138663596E+02 0.  0.
          5    1    5    5  501    0  0.41734701549E+02 -0.51786344291E+02  0.43982712406E+02  0.79876027436E+02  0.47000000000E+01 0. -1.
        -11    1    6    6    0    0  0.30742019437E+02  0.54342581109E+02  0.11838921059E+03  0.13384391307E+03  0.00000000000E+00 0.  1.
         12    1    6    6    0    0 -0.14520007802E+02 -0.98797527554E+01  0.12311774710E+03  0.12436406150E+03  0.00000000000E+00 0. -1.
         -5    1    3    3    0  503 -0.20289966584E+02 -0.60379780051E+02  0.39448790610E+01  0.63992598430E+02  0.47000000000E+01 0.  1.
         13    1    4    4    0    0 -0.13088927373E+02  0.83487633398E+01 -0.16938516352E+02  0.22976840629E+02  0.00000000000E+00 0. -1.
        -14    1    4    4    0    0 -0.24577819228E+02  0.59354532650E+02  0.89698645869E+02  0.11033076096E+03  0.00000000000E+00 0.  1.
</event>
<event>
12    1  0.8421768E-002  0.2029537E+03  0.7818608E-02  0.1147311E+00
         21   -1    0    0  501  502  0.00000000000E+00  0.00000000000E+00  0.11050338567E+04  0.11050338567E+04  0.00000000000E+00 0. -1.
         21   -1    0    0  502  503 -0.00000000000E+00 -0.00000000000E+00 -0.11885191841E+03  0.11885191841E+03  0.00000000000E+00 0. -1.
         -6    2    1    2    0  503  0.78176441033E+02 -0.73619565717E+02 -0.13926701996E+02  0.20343095661E+03  0.17221731821E+03 0.  0.
        -24    2    3    3    0    0  0.24190008108E+02  0.24087552973E+02  0.18242240197E+02  0.87163390955E+02  0.78098083810E+02 0.  0.
          6    2    1    2  501    0 -0.78176441033E+02  0.73619565717E+02  0.10001086403E+04  0.10204548185E+04  0.17198647568E+03 0.  0.
         24    2    5    5    0    0 -0.80438119425E+02 -0.12959489055E+02  0.64207027362E+03  0.65206017966E+03  0.79309534219E+02 0.  0.
          5    1    5    5  501    0  0.22616783919E+01  0.86579054771E+02  0.35803836667E+03  0.36839463883E+03  0.47000000000E+01 0. -1.
        -11    1    6    6    0    0  0.72891158620E+01 -0.20087040622E+02  0.67904087877E+02  0.71186976066E+02  0.00000000000E+00 0.  1.
         12    1    6    6    0    0 -0.87727235287E+02  0.71275515676E+01  0.57416618575E+03  0.58087320360E+03  0.00000000000E+00 0. -1.
         -5    1    3    3    0  503  0.53986432925E+02 -0.97707118690E+02 -0.32168942193E+02  0.11626756566E+03  0.47000000000E+01 0.  1.
         13    1    4    4    0    0  0.42776782442E+01  0.44498161561E+02 -0.11294874152E+02  0.46108123965E+02  0.00000000000E+00 0. -1.
        -14    1    4    4    0    0  0.19912329864E+02 -0.20410608588E+02  0.29537114349E+02  0.41055266990E+02  0.00000000000E+00 0.  1.
</event>
<event>
12    1  0.8421768E-002  0.1915241E+03  0.7818608E-02  0.1157633E+00
         21   -1    0    0  503  502  0.00000000000E+00  0.00000000000E+00  0.94636170484E+03  0.94636170484E+03  0.00000000000E+00 0.  1.
         21   -1    0    0  501  503 -0.00000000000E+00 -0.00000000000E+00 -0.38281492396E+02  0.38281492396E+02  0.00000000000E+00 0. -1.
          6    2    1    2  501    0  0.68999741000E+02 -0.46298045989E+02  0.45705649441E+03  0.49463923734E+03  0.16989073757E+03 0.  0.
         24    2    3    3    0    0  0.10802736297E+03 -0.21656115716E+02  0.27813411803E+03  0.30979961287E+03  0.80487974416E+02 0.  0.
         -6    2    1    2    0  502 -0.68999741000E+02  0.46298045989E+02  0.45102371803E+03  0.49000395989E+03  0.17256017259E+03 0.  0.
        -24    2    5    5    0    0  0.26048777274E+02  0.10275566637E+01  0.24858521529E+03  0.26177802924E+03  0.77804451432E+02 0.  0.
          5    1    3    3  501    0 -0.39027621968E+02 -0.24641930274E+02  0.17892237638E+03  0.18483962447E+03  0.47000000000E+01 0. -1.
        -11    1    4    4    0    0  0.53104787989E+02 -0.49969090955E+02  0.12571460598E+03  0.14533131361E+03  0.00000000000E+00 0.  1.
         12    1    4    4    0    0  0.54922574979E+02  0.28312975240E+02  0.15241951205E+03  0.16446829927E+03  0.00000000000E+00 0. -1.
         -5    1    5    5    0  502 -0.95048518274E+02  0.45270489325E+02  0.20243850274E+03  0.22822593066E+03  0.47000000000E+01 0.  1.
         13    1    6    6    0    0  0.40233238995E+01 -0.37539799335E+01 -0.48545893636E+01  0.73380200620E+01  0.00000000000E+00 0. -1.
        -14    1    6    6    0    0  0.22025453375E+02  0.47815365972E+01  0.25343980465E+03  0.25444000918E+03  0.00000000000E+00 0.  1.
</event>
<event>
12    1  0.8421768E-002  0.1931242E+03  0.7818608E-02  0.1155908E+00
         21   -1    0    0  501  502  0.00000000000E+00  0.00000000000E+00  0.29642421487E+03  0.29642421487E+03  0.00000000000E+00 0. -1.
         21   -1    0    0  502  503 -0.00000000000E+00 -0.00000000000E+00 -0.12768531610E+03  0.12768531610E+03  0.00000000000E+00 0. -1.
         -6    2    1    2    0  503  0.75706931933E+02  0.33696580346E+02  0.11412183141E+03  0.22341079390E+03  0.17326739843E+03 0.  0.
        -24    2    3    3    0    0  0.50496428494E+02 -0.22267381266E+02  0.12348637219E+03  0.16114267118E+03  0.87591956249E+02 0.  0.
          6    2    1    2  501    0 -0.75706931933E+02 -0.33696580346E+02  0.54617067360E+02  0.20069873706E+03  0.17444185261E+03 0.  0.
         24    2    5    5    0    0 -0.29869979729E+02 -0.73780131368E+02  0.77608861446E+02  0.13544209108E+03  0.77367313426E+02 0.  0.
          5    1    5    5  501    0 -0.45836952204E+02  0.40083551023E+02 -0.22991794087E+02  0.65256645986E+02  0.47000000000E+01 0. -1.
        -13    1    6    6    0    0  0.15003695192E+02  0.11738149866E+01  0.35304216842E+02  0.38378072357E+02  0.00000000000E+00 0.  1.
         14    1    6    6    0    0 -0.44873674921E+02 -0.74953946355E+02  0.42304644604E+02  0.97064018720E+02  0.00000000000E+00 0. -1.
         -5    1    3    3    0  503  0.25210503439E+02  0.55963961611E+02 -0.93645407846E+01  0.62268122719E+02  0.47000000000E+01 0.  1.
         11    1    4    4    0    0  0.44712493281E+02 -0.15243171780E+01  0.10277367221E+02  0.45903756657E+02  0.00000000000E+00 0. -1.
        -12    1    4    4    0    0  0.57839352132E+01 -0.20743064088E+02  0.11320900497E+03  0.11523891453E+03  0.00000000000E+00 0.  1.
</event>
<event>
12    1  0.8421768E-002  0.1930013E+03  0.7818608E-02  0.1155783E+00
         21   -1    0    0  503  502  0.00000000000E+00  0.00000000000E+00  0.34429422399E+02  0.34429422399E+02  0.00000000000E+00 0. -1.
         21   -1    0    0  501  503 -0.00000000000E+00 -0.00000000000E+00 -0.20728501583E+04  0.20728501583E+04  0.00000000000E+00 0.  1.
          6    2    1    2  501    0 -0.32645127109E+02 -0.80058466896E+02 -0.17477180615E+04  0.17583418594E+04  0.17254741163E+03 0.  0.
         24    2    3    3    0    0 -0.15252184950E+02  0.19485682258E+02 -0.10437869684E+04  0.10471789906E+04  0.80500198077E+02 0.  0.
         -6    2    1    2    0  502  0.32645127109E+02  0.80058466896E+02 -0.29070267437E+03  0.34893772136E+03  0.17255267618E+03 0.  0.
        -24    2    5    5    0    0 -0.44722889839E+02  0.52882649688E+02 -0.20299456360E+03  0.22877475792E+03  0.79588852841E+02 0.  0.
          5    1    3    3  501    0 -0.17392942159E+02 -0.99544149153E+02 -0.70393109312E+03  0.71116286878E+03  0.47000000000E+01 0. -1.
        -13    1    4    4    0    0 -0.40431710921E+02  0.11169381940E+02 -0.89937332033E+03  0.90035095805E+03  0.00000000000E+00 0.  1.
         14    1    4    4    0    0  0.25179525971E+02  0.83163003174E+01 -0.14441364809E+03  0.14682803252E+03  0.00000000000E+00 0. -1.
         -5    1    5    5    0  502  0.77368016948E+02  0.27175817208E+02 -0.87708110764E+02  0.12016296343E+03  0.47000000000E+01 0.  1.
         13    1    6    6    0    0  0.28332374593E+01 -0.13710522371E+02 -0.55780942593E+01  0.15070527322E+02  0.00000000000E+00 0. -1.
        -14    1    6    6    0    0 -0.47556127298E+02  0.66593172059E+02 -0.19741646934E+03  0.21370423060E+03  0.00000000000E+00 0.  1.
</event>
<event>
12    1  0.8421768E-002  0.1950847E+03  0.7818608E-02  0.1153969E+00
         21   -1    0    0  501  502  0.00000000000E+00  0.00000000000E+00  0.57662506706E+03  0.57662506706E+03  0.00000000000E+00 0.  1.
         21   -1    0    0  502  503 -0.00000000000E+00 -0.00000000000E+00 -0.66418999893E+02  0.66418999893E+02  0.00000000000E+00 0. -1.
         -6    2    1    2    0  503  0.51398941425E+02 -0.77093323113E+02  0.28135555156E+03  0.34237257792E+03  0.17167645171E+03 0.  0.
        -24    2    3    3    0    0  0.19385095643E+01 -0.57004921563E+02  0.27103110125E+03  0.28779637000E+03  0.78202134494E+02 0.  0.
          6    2    1    2  501    0 -0.51398941425E+02  0.77093323113E+02  0.22885051561E+03  0.30067148903E+03  0.17159706924E+03 0.  0.
         24    2    5    5    0    0  0.14645639771E+02  0.45485920379E+02  0.46190004759E+02  0.10382671049E+03  0.79768449625E+02 0.  0.
          5    1    5    5  501    0 -0.66044581196E+02  0.31607402734E+02  0.18266051085E+03  0.19684477853E+03  0.47000000000E+01 0. -1.
        -13    1    6    6    0    0  0.29474134574E+01  0.19019980966E+02  0.66006583400E+02  0.68755479593E+02  0.00000000000E+00 0.  1.
         14    1    6    6    0    0  0.11698226314E+02  0.26465939413E+02 -0.19816578641E+02  0.35071230901E+02  0.00000000000E+00 0. -1.
         -5    1    3    3    0  503  0.49460431861E+02 -0.20088401550E+02  0.10324450306E+02  0.54576207919E+02  0.47000000000E+01 0.  1.
         13    1    4    4    0    0 -0.27514834277E+02 -0.19127223659E+02  0.41681198210E+02  0.53481203000E+02  0.00000000000E+00 0. -1.
        -14    1    4    4    0    0  0.29453343841E+02 -0.37877697905E+02  0.22934990304E+03  0.23431516700E+03  0.00000000000E+00 0.  1.
</event>
<event>
12    1  0.8421768E-002  0.2848857E+03  0.7818608E-02  0.1093088E+00
         21   -1    0    0  503  502  0.00000000000E+00  0.00000000000E+00  0.24912913952E+03  0.24912913952E+03  0.00000000000E+00 0. -1.
         21   -1    0    0  501  503 -0.00000000000E+00 -0.00000000000E+00 -0.32963725922E+03  0.32963725922E+03  0.00000000000E+00 0.  1.
          6    2    1    2  501    0  0.16686707507E+03 -0.15372649294E+03 -0.76461244224E+01  0.28498829271E+03  0.17228873552E+03 0.  0.
         24    2    3    3    0    0  0.27796260170E+02 -0.72123065709E+02 -0.43508248590E+02  0.11973699061E+03  0.80433889246E+02 0.  0.
         -6    2    1    2    0  502 -0.16686707507E+03  0.15372649294E+03 -0.72861995271E+02  0.29377810604E+03  0.17181457987E+03 0.  0.
        -24    2    5    5    0    0 -0.16531868092E+03  0.84714372602E+02 -0.90202600509E+02  0.22244889135E+03  0.82705555648E+02 0.  0.
          5    1    3    3  501    0  0.13907081490E+03 -0.81603427233E+02  0.35862124167E+02  0.16525130209E+03  0.47000000000E+01 0. -1.
        -13    1    4    4    0    0  0.18537625342E+02 -0.80597334378E+01 -0.50727616068E+02  0.54606720176E+02  0.00000000000E+00 0.  1.
         14    1    4    4    0    0  0.92586348283E+01 -0.64063332272E+02  0.72193674784E+01  0.65130270439E+02  0.00000000000E+00 0. -1.
         -5    1    5    5    0  502 -0.15483941485E+01  0.69012120340E+02  0.17340605238E+02  0.71329214690E+02  0.47000000000E+01 0.  1.
         13    1    6    6    0    0 -0.34976058623E+02 -0.15760937925E+02 -0.11676532943E+02  0.40100788803E+02  0.00000000000E+00 0. -1.
        -14    1    6    6    0    0 -0.13034262230E+03  0.10047531053E+03 -0.78526067566E+02  0.18234810254E+03  0.00000000000E+00 0.  1.
</event>
<event>
12    1  0.8421768E-002  0.1972021E+03  0.7818608E-02  0.1153465E+00
         21   -1    0    0  501  502  0.00000000000E+00  0.00000000000E+00  0.13457306915E+03  0.13457306915E+03  0.00000000000E+00 0. -1.
         21   -1    0    0  502  503 -0.00000000000E+00 -0.00000000000E+00 -0.28316717992E+03  0.28316717992E+03  0.00000000000E+00 0.  1.
         -6    2    1    2    0  503 -0.70991295013E+02  0.43689648593E+02 -0.51166651397E+02  0.19778390375E+03  0.17190665201E+03 0.  0.
        -24    2    3    3    0    0 -0.10602117168E+03  0.34836649160E+02 -0.72705400343E+02  0.15545807754E+03  0.80168932041E+02 0.  0.
          6    2    1    2  501    0  0.70991295013E+02 -0.43689648593E+02 -0.97427459365E+02  0.21995634532E+03  0.17871803112E+03 0.  0.
         24    2    5    5    0    0  0.78733987625E+02  0.35577853737E+02 -0.54057424794E+02  0.12914700597E+03  0.79321620589E+02 0.  0.
          5    1    5    5  501    0 -0.77426926119E+01 -0.79267502330E+02 -0.43370034572E+02  0.90809339350E+02  0.47000000000E+01 0. -1.
        -11    1    6    6    0    0  0.34145370607E+02  0.53916605419E+02 -0.49409999724E+02  0.80710933253E+02  0.00000000000E+00 0.  1.
         12    1    6    6    0    0  0.44588617017E+02 -0.18338751683E+02 -0.46474250697E+01  0.48436072720E+02  0.00000000000E+00 0. -1.
         -5    1    3    3    0  503  0.35029876664E+02  0.88529994333E+01  0.21538748946E+02  0.42325826208E+02  0.47000000000E+01 0.  1.
         11    1    4    4    0    0 -0.88645250570E+02 -0.86636901118E+01 -0.36506971336E+02  0.96259019998E+02  0.00000000000E+00 0. -1.
        -12    1    4    4    0    0 -0.17375921106E+02  0.43500339272E+02 -0.36198429008E+02  0.59199057540E+02  0.00000000000E+00 0.  1.
</event>
<event>
12    1  0.8421768E-002  0.2033754E+03  0.7818608E-02  0.1149974E+00
         21   -1    0    0  503  502  0.00000000000E+00  0.00000000000E+00  0.10215906698E+04  0.10215906698E+04  0.00000000000E+00 0. -1.
         21   -1    0    0  501  503 -0.00000000000E+00 -0.00000000000E+00 -0.37788041230E+02  0.37788041230E+02  0.00000000000E+00 0. -1.
          6    2    1    2  501    0  0.10722689548E+03 -0.11958995555E+02  0.53455832681E+03  0.57193894264E+03  0.17239757729E+03 0.  0.
         24    2    3    3    0    0  0.23346924645E+02 -0.44175269072E+02  0.39618192216E+03  0.40688180965E+03  0.78077898846E+02 0.  0.
         -6    2    1    2    0  502 -0.10722689548E+03  0.11958995555E+02  0.44924430176E+03  0.48743976839E+03  0.15535913381E+03 0.  0.
        -24    2    5    5    0    0 -0.49197175916E+02  0.39275432725E+02  0.36490407506E+03  0.38137846569E+03  0.91277753898E+02 0.  0.
          5    1    3    3  501    0  0.83879970838E+02  0.32216273517E+02  0.13837640465E+03  0.16505713299E+03  0.47000000000E+01 0. -1.
        -11    1    4    4    0    0 -0.27085597216E+02 -0.33610083835E+01  0.98466695446E+02  0.10217933287E+03  0.00000000000E+00 0.  1.
         12    1    4    4    0    0  0.50432521861E+02 -0.40814260688E+02  0.29771522671E+03  0.30470247678E+03  0.00000000000E+00 0. -1.
         -5    1    5    5    0  502 -0.58029719567E+02 -0.27316437170E+02  0.84340226693E+02  0.10606130270E+03  0.47000000000E+01 0.  1.
         11    1    6    6    0    0 -0.50880493415E+02 -0.16441156450E+02  0.21171439556E+03  0.21836236289E+03  0.00000000000E+00 0. -1.
        -12    1    6    6    0    0  0.16833174987E+01  0.55716589175E+02  0.15318967950E+03  0.16301610280E+03  0.00000000000E+00 0.  1.
</event>
<event>
12    1  0.8421768E-002  0.2028229E+03  0.7818608E-02  0.1147705E+00
         21   -1    0    0  501  502  0.00000000000E+00  0.00000000000E+00  0.30130296062E+03  0.30130296062E+03  0.00000000000E+00 0. -1.
         21   -1    0    0  502  503 -0.00000000000E+00 -0.00000000000E+00 -0.26356197934E+03  0.26356197934E+03  0.00000000000E+00 0.  1.
         -6    2    1    2    0  503 -0.94625376367E+01  0.10252026766E+03 -0.17805410913E+03  0.26871525560E+03  0.17292969066E+03 0.  0.
        -24    2    3    3    0    0  0.36612746828E+02  0.83794082853E+02 -0.51082159894E+02  0.13226904740E+03  0.80769872416E+02 0.  0.
          6    2    1    2  501    0  0.94625376367E+01 -0.10252026766E+03  0.21579509041E+03  0.29614968437E+03  0.17474887583E+03 0.  0.
         24    2    5    5    0    0  0.65571969732E+02 -0.92649246751E+02  0.18406621987E+03  0.23076989659E+03  0.80565536897E+02 0.  0.
          5    1    5    5  501    0 -0.56109432096E+02 -0.98710209104E+01  0.31728870541E+02  0.65379787777E+02  0.47000000000E+01 0. -1.
        -13    1    6    6    0    0 -0.14601157720E+02 -0.12300424575E+02  0.67781252270E+01  0.20259250555E+02  0.00000000000E+00 0.  1.
         14    1    6    6    0    0  0.80173127452E+02 -0.80348822176E+02  0.17728809465E+03  0.21051064603E+03  0.00000000000E+00 0. -1.
         -5    1    3    3    0  503 -0.46075284465E+02  0.18726184808E+02 -0.12697194924E+03  0.13644620819E+03  0.47000000000E+01 0.  1.
         13    1    4    4    0    0  0.24593311825E+01  0.72465418422E+00 -0.41906849715E+02  0.41985205568E+02  0.00000000000E+00 0. -1.
        -14    1    4    4    0    0  0.34153415646E+02  0.83069428669E+02 -0.91753101783E+01  0.90283841835E+02  0.00000000000E+00 0.  1.
</event>
<event>
12    1  0.8421768E-002  0.2399810E+03  0.7818608E-02  0.1119811E+00
         21   -1    0    0  501  502  0.00000000000E+00  0.00000000000E+00  0.40672977629E+03  0.40672977629E+03  0.00000000000E+00 0. -1.
         21   -1    0    0  502  503 -0.00000000000E+00 -0.00000000000E+00 -0.20874593791E+03  0.20874593791E+03  0.00000000000E+00 0. -1.
         -6    2    1    2    0  503  0.12854503329E+02  0.16703424735E+03 -0.75569108215E+02  0.25159801781E+03  0.17182896847E+03 0.  0.
        -24    2    3    3    0    0  0.37404294128E+01  0.11651553058E+03  0.20697320452E+02  0.14239855638E+03  0.79114537903E+02 0.  0.
          6    2    1    2  501    0 -0.12854503329E+02 -0.16703424735E+03  0.27355294659E+03  0.36387769639E+03  0.17178499731E+03 0.  0.
         24    2    5    5    0    0  0.23194638047E+02 -0.25311531924E+02  0.61510206151E+02  0.10625572055E+03  0.79549404820E+02 0.  0.
          5    1    5    5  501    0 -0.36049141376E+02 -0.14172271542E+03  0.21204274044E+03  0.25762197584E+03  0.47000000000E+01 0. -1.
        -13    1    6    6    0    0 -0.17907008040E+02 -0.10779766164E+02 -0.94780991630E+01  0.22949916323E+02  0.00000000000E+00 0.  1.
         14    1    6    6    0    0  0.41101646087E+02 -0.14531765761E+02  0.70988305314E+02  0.83305804231E+02  0.00000000000E+00 0. -1.
         -5    1    3    3    0  503  0.91140739165E+01  0.50518716766E+02 -0.96266428667E+02  0.10919946142E+03  0.47000000000E+01 0.  1.
         11    1    4    4    0    0 -0.32699215203E+02  0.85404268718E+02  0.23438977085E+02  0.94406109109E+02  0.00000000000E+00 0. -1.
        -12    1    4    4    0    0  0.36439644616E+02  0.31111261863E+02 -0.27416566335E+01  0.47992447276E+02  0.00000000000E+00 0.  1.
</event>
<event>
12    1  0.8421768E-002  0.1849083E+03  0.7818608E-02  0.1164142E+00
         21   -1    0    0  503  502  0.00000000000E+00  0.00000000000E+00  0.17973821190E+04  0.17973821190E+04  0.00000000000E+00 0. -1.
         21   -1    0    0  501  503 -0.00000000000E+00 -0.00000000000E+00 -0.20019564360E+02  0.20019564360E+02  0.00000000000E+00 0. -1.
          6    2    1    2  501    0 -0.22234145987E+01  0.67843207349E+02  0.63604802968E+03  0.66120536717E+03  0.16741504459E+03 0.  0.
         24    2    3    3    0    0 -0.74748858998E+01  0.10400340213E+02  0.55771504581E+03  0.56381231148E+03  0.81695833732E+02 0.  0.
         -6    2    1    2    0  502  0.22234145987E+01 -0.67843207349E+02  0.11413145249E+04  0.11561963161E+04  0.17199834980E+03 0.  0.
        -24    2    5    5    0    0  0.66031494782E+02 -0.26958902244E+02  0.58268276773E+03  0.59242816555E+03  0.79780842344E+02 0.  0.
          5    1    3    3  501    0  0.52514713012E+01  0.57442867136E+02  0.78332983870E+02  0.97393055695E+02  0.47000000000E+01 0. -1.
        -11    1    4    4    0    0 -0.18319184941E+02  0.43537035144E+02  0.28692979282E+03  0.29079162982E+03  0.00000000000E+00 0.  1.
         12    1    4    4    0    0  0.10844299041E+02 -0.33136694932E+02  0.27078525300E+03  0.27302068166E+03  0.00000000000E+00 0. -1.
         -5    1    5    5    0  502 -0.63808080184E+02 -0.40884305105E+02  0.55863175718E+03  0.56376815060E+03  0.47000000000E+01 0.  1.
         13    1    6    6    0    0  0.45145319076E+02  0.24473335474E+02  0.29570958666E+03  0.30013530886E+03  0.00000000000E+00 0. -1.
        -14    1    6    6    0    0  0.20886175707E+02 -0.51432237718E+02  0.28697318107E+03  0.29229285668E+03  0.00000000000E+00 0.  1.
</event>
<event>
12    1  0.8421768E-002  0.1819308E+03  0.7818608E-02  0.1166386E+00
         21   -1    0    0  503  502  0.00000000000E+00  0.00000000000E+00  0.39708516852E+03  0.39708516852E+03  0.00000000000E+00 0.  1.
         21   -1    0    0  501  503 -0.00000000000E+00 -0.00000000000E+00 -0.99811503814E+02  0.99811503814E+02  0.00000000000E+00 0.  1.
          6    2    1    2  501    0 -0.82212154325E+01 -0.51388406113E+02  0.45845640401E+02  0.18761834676E+03  0.17432861105E+03 0.  0.
         24    2    3    3    0    0  0.45704282185E+02 -0.55183354165E+02  0.71483829801E+02  0.12760361790E+03  0.77708824417E+02 0.  0.
         -6    2    1    2    0  502  0.82212154325E+01  0.51388406113E+02  0.25142802430E+03  0.30927832557E+03  0.17242005277E+03 0.  0.
        -24    2    5    5    0    0 -0.27799606135E+02 -0.22736977488E+01  0.22278531167E+03  0.23842907742E+03  0.80231802042E+02 0.  0.
          5    1    3    3  501    0 -0.53925497617E+02  0.37949480517E+01 -0.25638189401E+02  0.60014728857E+02  0.47000000000E+01 0. -1.
        -11    1    4    4    0    0  0.25129345719E+02  0.12698646598E+02  0.18685041766E+01  0.28217564557E+02  0.00000000000E+00 0.  1.
         12    1    4    4    0    0  0.20574936466E+02 -0.67882000762E+02  0.69615325625E+02  0.99386053347E+02  0.00000000000E+00 0. -1.
         -5    1    5    5    0  502  0.36020821567E+02  0.53662103862E+02  0.28642712635E+02  0.70849248157E+02  0.47000000000E+01 0.  1.
         11    1    6    6    0    0  0.67388933600E+01  0.19220511021E+02  0.11760983739E+02  0.23519384901E+02  0.00000000000E+00 0. -1.
        -12    1    6    6    0    0 -0.34538499495E+02 -0.21494208770E+02  0.21102432793E+03  0.21490969251E+03  0.00000000000E+00 0.  1.
</event>
<event>
12    1  0.8421768E-002  0.1989957E+03  0.7818608E-02  0.1152131E+00
         21   -1    0    0  501  502  0.00000000000E+00  0.00000000000E+00  0.33047270611E+02  0.33047270611E+02  0.00000000000E+00 0. -1.
         21   -1    0    0  502  503 -0.00000000000E+00 -0.00000000000E+00 -0.16153980481E+04  0.16153980481E+04  0.00000000000E+00 0.  1.
         -6    2    1    2    0  503 -0.46347337096E+02 -0.71829112857E+02 -0.12204626616E+04  0.12354534515E+04  0.17178074803E+03 0.  0.
        -24    2    3    3    0    0  0.17759635227E+02 -0.90276972763E+02 -0.65655139159E+03  0.66759075871E+03  0.78436948335E+02 0.  0.
          6    2    1    2  501    0  0.46347337096E+02  0.71829112857E+02 -0.36188811595E+03  0.41299186726E+03  0.17969912866E+03 0.  0.
         24    2    5    5    0    0  0.97884886030E+02  0.35378734366E+02 -0.28041485795E+03  0.30981856252E+03  0.80758549762E+02 0.  0.
          5    1    5    5  501    0 -0.51537548934E+02  0.36450378490E+02 -0.81473257996E+02  0.10317330474E+03  0.47000000000E+01 0. -1.
        -11    1    6    6    0    0 -0.41805998137E+00  0.66198763033E+01 -0.11547105670E+03  0.11566141306E+03  0.00000000000E+00 0.  1.
         12    1    6    6    0    0  0.98302946011E+02  0.28758858063E+02 -0.16494380126E+03  0.19415714946E+03  0.00000000000E+00 0. -1.
         -5    1    3    3    0  503 -0.64106972323E+02  0.18447859906E+02 -0.56391126999E+03  0.56786269278E+03  0.47000000000E+01 0.  1.
         13    1    4    4    0    0  0.16582654173E+02 -0.96601394090E+02 -0.43332653045E+03  0.44427322196E+03  0.00000000000E+00 0. -1.
        -14    1    4    4    0    0  0.11769810541E+01  0.63244213279E+01 -0.22322486114E+03  0.22331753675E+03  0.00000000000E+00 0.  1.
</event>
<event>
12    1  0.8421768E-002  0.1821473E+03  0.7818608E-02  0.1165988E+00
         21   -1    0    0  501  502  0.00000000000E+00  0.00000000000E+00  0.11469935890E+02  0.11469935890E+02  0.00000000000E+00 0.  1.
         21   -1    0    0  502  503 -0.00000000000E+00 -0.00000000000E+00 -0.31118344627E+04  0.31118344627E+04  0.00000000000E+00 0.  1.
         -6    2    1    2    0  503 -0.36472635434E+02  0.42899709973E+02 -0.11163473708E+04  0.11309435576E+04  0.17213727050E+03 0.  0.
        -24    2    3    3    0    0 -0.53212476381E+02 -0.29733717095E+02 -0.48732910756E+03  0.49750697631E+03  0.79422105415E+02 0.  0.
          6    2    1    2  501    0  0.36472635434E+02 -0.42899709973E+02 -0.19840171560E+04  0.19923608410E+04  0.17322530758E+03 0.  0.
         24    2    5    5    0    0  0.71271740760E+02 -0.30530106839E+02 -0.72870042586E+03  0.73649215050E+03  0.73516179438E+02 0.  0.
          5    1    5    5  501    0 -0.34799105326E+02 -0.12369603134E+02 -0.12553167301E+04  0.12558686905E+04  0.47000000000E+01 0. -1.
        -11    1    6    6    0    0  0.76263860458E+02 -0.24223374348E+02 -0.72076497690E+03  0.72519314682E+03  0.00000000000E+00 0.  1.
         12    1    6    6    0    0 -0.49921196981E+01 -0.63067324907E+01 -0.79354489655E+01  0.11299003676E+02  0.00000000000E+00 0. -1.
         -5    1    3    3    0  503  0.16739840948E+02  0.72633427068E+02 -0.62901826326E+03  0.63343658129E+03  0.47000000000E+01 0.  1.
         11    1    4    4    0    0  0.19637311631E+02  0.12004943150E+01 -0.68680878071E+02  0.71443181671E+02  0.00000000000E+00 0. -1.
        -12    1    4    4    0    0 -0.72849788013E+02 -0.30934211410E+02 -0.41864822949E+03  0.42606379464E+03  0.00000000000E+00 0.  1.
</event>
<event>
12    1  0.8421768E-002  0.2553066E+03  0.7818608E-02  0.1110312E+00
         21   -1    0    0  503  502  0.00000000000E+00  0.00000000000E+00  0.49144987923E+03  0.49144987923E+03  0.00000000000E+00 0. -1.
         21   -1    0    0  501  503 -0.00000000000E+00 -0.00000000000E+00 -0.13183167039E+03  0.13183167039E+03  0.00000000000E+00 0.  1.
          6    2    1    2  501    0 -0.18179209418E+03 -0.26194766387E+02  0.19291197769E+03  0.31836774251E+03  0.17438020829E+03 0.  0.
         24    2    3    3    0    0 -0.11082640660E+03  0.36809672079E+02  0.83505977179E+02  0.17346277010E+03  0.97358307446E+02 0.  0.
         -6    2    1    2    0  502  0.18179209418E+03  0.26194766387E+02  0.16670623115E+03  0.30491380710E+03  0.17733282540E+03 0.  0.
        -24    2    5    5    0    0  0.39189987148E+02  0.34744715830E+02  0.12422596626E+03  0.15579933607E+03  0.78091561998E+02 0.  0.
          5    1    3    3  501    0 -0.70965687581E+02 -0.63004438466E+02  0.10940600051E+03  0.14490497241E+03  0.47000000000E+01 0. -1.
        -11    1    4    4    0    0  0.17016301482E+02  0.14260028696E+02  0.11158843979E+02  0.24847992544E+02  0.00000000000E+00 0.  1.
         12    1    4    4    0    0 -0.12784270808E+03  0.22549643383E+02  0.72347133200E+02  0.14861477756E+03  0.00000000000E+00 0. -1.
         -5    1    5    5    0  502  0.14260210703E+03 -0.85499494429E+01  0.42480264888E+02  0.14911447103E+03  0.47000000000E+01 0.  1.
         11    1    6    6    0    0  0.28001952955E+02  0.47195589214E+01  0.12019613454E+03  0.12350503781E+03  0.00000000000E+00 0. -1.
        -12    1    6    6    0    0  0.11188034193E+02  0.30025156909E+02  0.40298317218E+01  0.32294298262E+02  0.00000000000E+00 0.  1.
</event>
<event>
12    1  0.8421768E-002  0.2041805E+03  0.7818608E-02  0.1146537E+00
         21   -1    0    0  501  502  0.00000000000E+00  0.00000000000E+00  0.16366434700E+04  0.16366434700E+04  0.00000000000E+00 0. -1.
         21   -1    0    0  502  503 -0.00000000000E+00 -0.00000000000E+00 -0.25346434705E+02  0.25346434705E+02  0.00000000000E+00 0. -1.
         -6    2    1    2    0  503 -0.85328727140E+02  0.66548242192E+02  0.84214944461E+03  0.86654796662E+03  0.17314742617E+03 0.  0.
        -24    2    3    3    0    0 -0.11799771202E+03  0.70812577329E+02  0.77632664855E+03  0.79279040696E+03  0.83040249052E+02 0.  0.
          6    2    1    2  501    0  0.85328727140E+02 -0.66548242192E+02  0.76914759065E+03  0.79544193805E+03  0.17155232551E+03 0.  0.
         24    2    5    5    0    0 -0.16924160043E+02 -0.58826223203E+02  0.37866994214E+03  0.39169676284E+03  0.79299919368E+02 0.  0.
          5    1    5    5  501    0  0.10225288718E+03 -0.77220189892E+01  0.39047764852E+03  0.40374517521E+03  0.47000000000E+01 0. -1.
        -11    1    6    6    0    0 -0.26196258078E+02 -0.20537192417E+02  0.46430510606E+02  0.57129786669E+02  0.00000000000E+00 0.  1.
         12    1    6    6    0    0  0.92720980350E+01 -0.38289030786E+02  0.33223943153E+03  0.33456697617E+03  0.00000000000E+00 0. -1.
         -5    1    3    3    0  503  0.32668984876E+02 -0.42643351367E+01  0.65822796055E+02  0.73757559663E+02  0.47000000000E+01 0.  1.
         13    1    4    4    0    0 -0.53650527414E+02  0.61334079915E+01  0.14172720971E+03  0.15166607978E+03  0.00000000000E+00 0. -1.
        -14    1    4    4    0    0 -0.64347184602E+02  0.64679169337E+02  0.63459943885E+03  0.64112432717E+03  0.00000000000E+00 0.  1.
</event>
<event>
12    1  0.8421768E-002  0.2052908E+03  0.7818608E-02  0.1145413E+00
         21   -1    0    0  501  502  0.00000000000E+00  0.00000000000E+00  0.29789576907E+03  0.29789576907E+03  0.00000000000E+00 0.  1.
         21   -1    0    0  502  503 -0.00000000000E+00 -0.00000000000E+00 -0.25131861858E+03  0.25131861858E+03  0.00000000000E+00 0.  1.
         -6    2    1    2    0  503 -0.88261391460E+02 -0.69391090224E+02 -0.15844365296E+03  0.25908018585E+03  0.17150205512E+03 0.  0.
        -24    2    3    3    0    0 -0.10098979968E+03 -0.10566706205E+03 -0.12180833456E+03  0.20576794464E+03  0.78349914052E+02 0.  0.
          6    2    1    2  501    0  0.88261391460E+02  0.69391090224E+02  0.20502080345E+03  0.29013420180E+03  0.17186951032E+03 0.  0.
         24    2    5    5    0    0  0.79503509067E+02  0.77493335275E+02  0.68408291766E+02  0.15292117315E+03  0.79869680420E+02 0.  0.
          5    1    5    5  501    0  0.87578823933E+01 -0.81022450515E+01  0.13661251169E+03  0.13721302864E+03  0.47000000000E+01 0. -1.
        -13    1    6    6    0    0  0.69471991561E+02  0.34679012149E+02  0.77950970288E+01  0.78036882515E+02  0.00000000000E+00 0.  1.
         14    1    6    6    0    0  0.10031517506E+02  0.42814323127E+02  0.60613194737E+02  0.74884290639E+02  0.00000000000E+00 0. -1.
         -5    1    3    3    0  503  0.12728408217E+02  0.36275971829E+02 -0.36635318406E+02  0.53312241207E+02  0.47000000000E+01 0.  1.
         13    1    4    4    0    0 -0.61914345903E+01 -0.25926529382E+02 -0.63474345143E+02  0.68844108531E+02  0.00000000000E+00 0. -1.
        -14    1    4    4    0    0 -0.94798365087E+02 -0.79740532670E+02 -0.58333989415E+02  0.13692383611E+03  0.00000000000E+00 0.  1.
</event>
<event>
12    1  0.8421768E-002  0.2502300E+03  0.7818608E-02  0.1113253E+00
         21   -1    0    0  503  502  0.00000000000E+00  0.00000000000E+00  0.10963295171E+03  0.10963295171E+03  0.00000000000E+00 0. -1.
         21   -1    0    0  501  503 -0.00000000000E+00 -0.00000000000E+00 -0.57387497576E+03  0.57387497576E+03  0.00000000000E+00 0. -1.
          6    2    1    2  501    0 -0.82182779903E+02 -0.16120838862E+03 -0.26125712407E+03  0.36176002703E+03  0.17283772275E+03 0.  0.
         24    2    3    3    0    0 -0.12537545586E+02 -0.10436586697E+03 -0.23300744417E+03  0.26741138981E+03  0.78529982330E+02 0.  0.
         -6    2    1    2    0  502  0.82182779903E+02  0.16120838862E+03 -0.20298489998E+03  0.32174790044E+03  0.17197874271E+03 0.  0.
        -24    2    5    5    0    0 -0.20959588601E+02  0.54806505259E+02 -0.57689845281E+02  0.11416068532E+03  0.79129554848E+02 0.  0.
          5    1    3    3  501    0 -0.69645234317E+02 -0.56842521643E+02 -0.28249679901E+02  0.94348637215E+02  0.47000000000E+01 0. -1.
        -11    1    4    4    0    0  0.17682847105E+02  0.18244878226E+01 -0.56379993523E+02  0.59116118844E+02  0.00000000000E+00 0.  1.
         12    1    4    4    0    0 -0.30220392690E+02 -0.10619035479E+03 -0.17662745064E+03  0.20829527097E+03  0.00000000000E+00 0. -1.
         -5    1    5    5    0  502  0.10314236850E+03  0.10640188336E+03 -0.14529505470E+03  0.20758721513E+03  0.47000000000E+01 0.  1.
         11    1    6    6    0    0  0.47109175302E+00  0.37702412902E+02  0.11757827088E+02  0.39496080361E+02  0.00000000000E+00 0. -1.
        -12    1    6    6    0    0 -0.21430680354E+02  0.17104092357E+02 -0.69447672368E+02  0.74664604956E+02  0.00000000000E+00 0.  1.
</event>
<event>
12    1  0.8421768E-002  0.1771964E+03  0.7818608E-02  0.1171602E+00
         21   -1    0    0  503  502  0.00000000000E+00  0.00000000000E+00  0.70924060740E+02  0.70924060740E+02  0.00000000000E+00 0.  1.
         21   -1    0    0  501  503 -0.00000000000E+00 -0.00000000000E+00 -0.58003979689E+03  0.58003979689E+03  0.00000000000E+00 0.  1.
          6    2    1    2  501    0  0.15779675847E+02  0.24405021906E+02 -0.41657547279E+03  0.45105821766E+03  0.17051037483E+03 0.  0.
         24    2    3    3    0    0  0.74307323996E+02  0.14393142795E+00 -0.30061378903E+03  0.31883383183E+03  0.75926036675E+02 0.  0.
         -6    2    1    2    0  502 -0.15779675847E+02 -0.24405021906E+02 -0.92540263366E+02  0.19990563998E+03  0.17479691441E+03 0.  0.
        -24    2    5    5    0    0 -0.16228832280E+02  0.96146665335E+01  0.22353499173E+02  0.79988136611E+02  0.74448682081E+02 0.  0.
          5    1    3    3  501    0 -0.58527648149E+02  0.24261090478E+02 -0.11596168376E+03  0.13222438583E+03  0.47000000000E+01 0. -1.
        -13    1    4    4    0    0  0.52862374168E+02  0.29549317701E+02 -0.11805079197E+03  0.13267849209E+03  0.00000000000E+00 0.  1.
         14    1    4    4    0    0  0.21444949828E+02 -0.29405386273E+02 -0.18256299706E+03  0.18615533974E+03  0.00000000000E+00 0. -1.
         -5    1    5    5    0  502  0.44915643321E+00 -0.34019688440E+02 -0.11489376254E+03  0.11991750337E+03  0.47000000000E+01 0.  1.
         13    1    6    6    0    0 -0.17687406603E+02  0.22660496679E+02 -0.20410154303E+02  0.35255026035E+02  0.00000000000E+00 0. -1.
        -14    1    6    6    0    0  0.14585743228E+01 -0.13045830145E+02  0.42763653476E+02  0.44733110576E+02  0.00000000000E+00 0.  1.
</event>
<event>
12    1  0.8421768E-002  0.1890378E+03  0.7818608E-02  0.1159581E+00
         21   -1    0    0  501  502  0.00000000000E+00  0.00000000000E+00  0.38595639639E+03  0.38595639639E+03  0.00000000000E+00 0.  1.
         21   -1    0    0  502  503 -0.00000000000E+00 -0.00000000000E+00 -0.92122254227E+02  0.92122254227E+02  0.00000000000E+00 0.  1.
         -6    2    1    2    0  503  0.29515006040E+02 -0.71173331125E+02  0.15381884433E+03  0.24371195743E+03  0.17262242808E+03 0.  0.
        -24    2    3    3    0    0 -0.26828311203E+02 -0.87042146132E+01  0.13289674715E+03  0.15689730391E+03  0.78483736769E+02 0.  0.
          6    2    1    2  501    0 -0.29515006040E+02  0.71173331125E+02  0.14001529783E+03  0.23436669319E+03  0.17142544912E+03 0.  0.
         24    2    5    5    0    0 -0.74517015062E+02  0.88957326618E+02  0.93572559243E+02  0.16713225797E+03  0.75572325078E+02 0.  0.
          5    1    5    5  501    0  0.45002009022E+02 -0.17783995494E+02  0.46442738590E+02  0.67234435221E+02  0.47000000000E+01 0. -1.
        -13    1    6    6    0    0 -0.64080958769E+02  0.41621147165E+02  0.90668204717E+02  0.11857239356E+03  0.00000000000E+00 0.  1.
         14    1    6    6    0    0 -0.10436056292E+02  0.47336179453E+02  0.29043545269E+01  0.48559864409E+02  0.00000000000E+00 0. -1.
         -5    1    3    3    0  503  0.56343317243E+02 -0.62469116512E+02  0.20922097186E+02  0.86814653523E+02  0.47000000000E+01 0.  1.
         13    1    4    4    0    0  0.20800146107E+02 -0.14110327163E+02  0.86907423818E+02  0.90469042912E+02  0.00000000000E+00 0. -1.
        -14    1    4    4    0    0 -0.47628457310E+02  0.54061125497E+01  0.45989323330E+02  0.66428260997E+02  0.00000000000E+00 0.  1.
</event>
<event>
12    1  0.8421768E-002  0.2164836E+03  0.7818608E-02  0.1136728E+00
         21   -1    0    0  503  502  0.00000000000E+00  0.00000000000E+00  0.84794793642E+03  0.84794793642E+03  0.00000000000E+00 0. -1.
         21   -1    0    0  501  503 -0.00000000000E+00 -0.00000000000E+00 -0.77279440417E+02  0.77279440417E+02  0.00000000000E+00 0.  1.
          6    2    1    2  501    0 -0.93464694532E+02  0.89559620090E+02  0.63303539636E+03  0.66869663639E+03  0.17223473458E+03 0.  0.
         24    2    3    3    0    0 -0.26657580415E+02  0.22089589649E+02  0.12912125561E+03  0.15589360719E+03  0.80199386207E+02 0.  0.
         -6    2    1    2    0  502  0.93464694532E+02 -0.89559620090E+02  0.13763309964E+03  0.25653074045E+03  0.17351822960E+03 0.  0.
        -24    2    5    5    0    0  0.11512717810E+03 -0.65413570946E+02  0.50085503312E+02  0.16304830089E+03  0.80888740747E+02 0.  0.
          5    1    3    3  501    0 -0.66807114117E+02  0.67470030440E+02  0.50391414075E+03  0.51280302920E+03  0.47000000000E+01 0. -1.
        -11    1    4    4    0    0  0.23596189708E+02 -0.67641219662E+01  0.64931762443E+02  0.69416621127E+02  0.00000000000E+00 0.  1.
         12    1    4    4    0    0 -0.50253770122E+02  0.28853711616E+02  0.64189493165E+02  0.86476986061E+02  0.00000000000E+00 0. -1.
         -5    1    5    5    0  502 -0.21662483565E+02 -0.24146049143E+02  0.87547596331E+02  0.93482439563E+02  0.47000000000E+01 0.  1.
         11    1    6    6    0    0  0.44905310815E+01  0.14242282660E+02  0.17259593143E+02  0.22823256565E+02  0.00000000000E+00 0. -1.
        -12    1    6    6    0    0  0.11063664702E+03 -0.79655853607E+02  0.32825910169E+02  0.14022504432E+03  0.00000000000E+00 0.  1.
</event>
<event>
12    1  0.8421768E-002  0.2938629E+03  0.7818608E-02  0.1088412E+00
         21   -1    0    0  503  502  0.00000000000E+00  0.00000000000E+00  0.68223539249E+02  0.68223539249E+02  0.00000000000E+00 0.  1.
         21   -1    0    0  501  503 -0.00000000000E+00 -0.00000000000E+00 -0.15935990939E+04  0.15935990939E+04  0.00000000000E+00 0.  1.
          6    2    1    2  501    0  0.23079278454E+03 -0.56874134173E+02 -0.11402563960E+04  0.11773929047E+04  0.17195763139E+03 0.  0.
         24    2    3    3    0    0  0.12971235234E+03 -0.81591152498E+02 -0.88690114702E+03  0.90346014483E+03  0.78512280525E+02 0.  0.
         -6    2    1    2    0  502 -0.23079278454E+03  0.56874134173E+02 -0.38511915869E+03  0.48442972844E+03  0.17278720692E+03 0.  0.
        -24    2    5    5    0    0 -0.32445816349E+02  0.43891457495E+01 -0.91320265137E+02  0.12604993876E+03  0.80481057634E+02 0.  0.
          5    1    3    3  501    0  0.10108043220E+03  0.24717018325E+02 -0.25335524894E+03  0.27393275987E+03  0.47000000000E+01 0. -1.
        -13    1    4    4    0    0  0.69008414445E+02 -0.72158328185E+02 -0.69033221183E+03  0.69751526742E+03  0.00000000000E+00 0.  1.
         14    1    4    4    0    0  0.60703937891E+02 -0.94328243130E+01 -0.19656893519E+03  0.20594487741E+03  0.00000000000E+00 0. -1.
         -5    1    5    5    0  502 -0.19834696819E+03  0.52484988424E+02 -0.29379889356E+03  0.35837978968E+03  0.47000000000E+01 0.  1.
         13    1    6    6    0    0 -0.27902822552E+02  0.94330618850E+01 -0.10592544995E+03  0.10994430913E+03  0.00000000000E+00 0. -1.
        -14    1    6    6    0    0 -0.45429937973E+01 -0.50439161354E+01  0.14605184809E+02  0.16105629635E+02  0.00000000000E+00 0.  1.
</event>
<event>
12    1  0.8421768E-002  0.1806447E+03  0.7818608E-02  0.1167341E+00
         21   -1    0    0  501  502  0.00000000000E+00  0.00000000000E+00  0.29779920114E+03  0.29779920114E+03  0.00000000000E+00 0. -1.
         21   -1    0    0  502  503 -0.00000000000E+00 -0.00000000000E+00 -0.11459985166E+03  0.11459985166E+03  0.00000000000E+00 0. -1.
         -6    2    1    2    0  503 -0.33552837361E+02  0.42160934243E+02  0.13661601558E+03  0.22648719471E+03  0.17242150789E+03 0.  0.
        -24    2    3    3    0    0 -0.39480924820E+02  0.83239587107E+02  0.13771815670E+03  0.18470319470E+03  0.81617443978E+02 0.  0.
          6    2    1    2  501    0  0.33552837361E+02 -0.42160934243E+02  0.46583333896E+02  0.18591185808E+03  0.17172616197E+03 0.  0.
         24    2    5    5    0    0  0.68528062174E+02 -0.75940396621E+02  0.23303146879E+02  0.13179739109E+03  0.79777669182E+02 0.  0.
          5    1    5    5  501    0 -0.34975224814E+02  0.33779462378E+02  0.23280187017E+02  0.54114466983E+02  0.47000000000E+01 0. -1.
        -13    1    6    6    0    0 -0.46494093755E+01 -0.26034976123E+02  0.33451455997E+02  0.42643134238E+02  0.00000000000E+00 0.  1.
         14    1    6    6    0    0  0.73177471550E+02 -0.49905420498E+02 -0.10148309118E+02  0.89154256855E+02  0.00000000000E+00 0. -1.
         -5    1    3    3    0  503  0.59280874598E+01 -0.41078652864E+02 -0.11021411166E+01  0.41784000013E+02  0.47000000000E+01 0.  1.
         11    1    4    4    0    0 -0.23727459146E+02  0.46056045300E+02  0.13456889990E+03  0.14419757435E+03  0.00000000000E+00 0. -1.
        -12    1    4    4    0    0 -0.15753465674E+02  0.37183541807E+02  0.31492567987E+01  0.40505620356E+02  0.00000000000E+00 0.  1.
</event>
<event>
12    1  0.8421768E-002  0.1723473E+03  0.7818608E-02  0.1175457E+00
         21   -1    0    0  501  502  0.00000000000E+00  0.00000000000E+00  0.27635751774E+02  0.27635751774E+02  0.00000000000E+00 0. -1.
         21   -1    0    0  502  503 -0.00000000000E+00 -0.00000000000E+00 -0.12967425569E+04  0.12967425569E+04  0.00000000000E+00 0. -1.
         -6    2    1    2    0  503 -0.11931169791E+02  0.15614645943E+00 -0.90921876860E+03  0.92540930291E+03  0.17193379987E+03 0.  0.
        -24    2    3    3    0    0 -0.70812196235E+02 -0.20370748911E+02 -0.54544493729E+03  0.55629980824E+03  0.80808183274E+02 0.  0.
          6    2    1    2  501    0  0.11931169791E+02 -0.15614645943E+00 -0.35988803654E+03  0.39896900578E+03  0.17179782168E+03 0.  0.
         24    2    5    5    0    0  0.17001365296E+02  0.58319357596E+02 -0.29195750448E+03  0.30907051501E+03  0.81210867094E+02 0.  0.
          5    1    5    5  501    0 -0.50701955045E+01 -0.58475504055E+02 -0.67930532062E+02  0.89898490773E+02  0.47000000000E+01 0. -1.
        -13    1    6    6    0    0  0.58844479717E+01  0.59458642419E+02 -0.97906781607E+02  0.11469827711E+03  0.00000000000E+00 0.  1.
         14    1    6    6    0    0  0.11116917324E+02 -0.11392848230E+01 -0.19405072287E+03  0.19437223791E+03  0.00000000000E+00 0. -1.
         -5    1    3    3    0  503  0.58881026444E+02  0.20526895370E+02 -0.36377383131E+03  0.36910949467E+03  0.47000000000E+01 0.  1.
         13    1    4    4    0    0 -0.47367467888E+02 -0.47138508401E+01 -0.50359557232E+03  0.50584028889E+03  0.00000000000E+00 0. -1.
        -14    1    4    4    0    0 -0.23444728347E+02 -0.15656898071E+02 -0.41849364968E+02  0.50459519347E+02  0.00000000000E+00 0.  1.
</event>
<event>
12    1  0.8421768E-002  0.2129145E+03  0.7818608E-02  0.1139738E+00
         21   -1    0    0  501  502  0.00000000000E+00  0.00000000000E+00  0.38224426105E+03  0.38224426105E+03  0.00000000000E+00 0. -1.
         21   -1    0    0  502  503 -0.00000000000E+00 -0.00000000000E+00 -0.19511582091E+03  0.19511582091E+03  0.00000000000E+00 0.  1.
         -6    2    1    2    0  503  0.74235244829E+02 -0.97229900426E+02 -0.88438798395E+02  0.23055150395E+03  0.17426431018E+03 0.  0.
        -24    2    3    3    0    0  0.10877039504E+03 -0.10891147201E+03 -0.86342433896E+02  0.19373275249E+03  0.79904041970E+02 0.  0.
          6    2    1    2  501    0 -0.74235244829E+02  0.97229900426E+02  0.27556723853E+03  0.34680857801E+03  0.17138950293E+03 0.  0.
         24    2    5    5    0    0 -0.73692503926E+02  0.12703365869E+03  0.26356076488E+03  0.31433083203E+03  0.88155882406E+02 0.  0.
          5    1    5    5  501    0 -0.54274090353E+00 -0.29803758266E+02  0.12006473654E+02  0.32477745982E+02  0.47000000000E+01 0. -1.
        -13    1    6    6    0    0  0.19673388931E+02  0.23969922842E+02  0.34751881358E+02  0.46575666297E+02  0.00000000000E+00 0.  1.
         14    1    6    6    0    0 -0.93365892857E+02  0.10306373585E+03  0.22880888352E+03  0.26775516573E+03  0.00000000000E+00 0. -1.
         -5    1    3    3    0  503 -0.34535150216E+02  0.11681571581E+02 -0.20963644985E+01  0.36818751461E+02  0.47000000000E+01 0.  1.
         11    1    4    4    0    0  0.30969934333E+02 -0.50622689600E+02  0.60061652211E+01  0.59647862959E+02  0.00000000000E+00 0. -1.
        -12    1    4    4    0    0  0.77800460712E+02 -0.58288782408E+02 -0.92348599117E+02  0.13408488953E+03  0.00000000000E+00 0.  1.
</event>
<event>
12    1  0.8421768E-002  0.1731598E+03  0.7818608E-02  0.1175664E+00
         21   -1    0    0  503  502  0.00000000000E+00  0.00000000000E+00  0.39808562972E+03  0.39808562972E+03  0.00000000000E+00 0. -1.
         21   -1    0    0  501  503 -0.00000000000E+00 -0.00000000000E+00 -0.75321157414E+02  0.75321157414E+02  0.00000000000E+00 0. -1.
          6    2    1    2  501    0 -0.82764090496E+01  0.31061671805E+01  0.12672925600E+03  0.21458010043E+03  0.17293399884E+03 0.  0.
         24    2    3    3    0    0  0.50633169000E+02  0.20500791728E+02  0.11815440918E+03  0.15238259769E+03  0.79221155047E+02 0.  0.
         -6    2    1    2    0  502  0.82764090496E+01 -0.31061671805E+01  0.19603521630E+03  0.25882668670E+03  0.16876996325E+03 0.  0.
        -24    2    5    5    0    0 -0.35657419853E+02  0.49943743547E+02  0.11901022502E+03  0.15538871672E+03  0.78844089926E+02 0.  0.
          5    1    3    3  501    0 -0.58909578050E+02 -0.17394624548E+02  0.85748468264E+01  0.62197502742E+02  0.47000000000E+01 0. -1.
        -13    1    4    4    0    0  0.57865828278E+02 -0.14114998414E+02  0.61637905794E+02  0.85714168568E+02  0.00000000000E+00 0.  1.
         14    1    4    4    0    0 -0.72326592777E+01  0.34615790142E+02  0.56516503382E+02  0.66668429124E+02  0.00000000000E+00 0. -1.
         -5    1    5    5    0  502  0.43933828903E+02 -0.53049910728E+02  0.77024991284E+02  0.10343796998E+03  0.47000000000E+01 0.  1.
         11    1    6    6    0    0  0.16615828190E+02  0.18993733230E+02  0.78285729113E+02  0.82252677958E+02  0.00000000000E+00 0. -1.
        -12    1    6    6    0    0 -0.52273248044E+02  0.30950010317E+02  0.40724495903E+02  0.73136038765E+02  0.00000000000E+00 0.  1.
</event>
<event>
12    1  0.8421768E-002  0.2416448E+03  0.7818608E-02  0.1119198E+00
         21   -1    0    0  503  502  0.00000000000E+00  0.00000000000E+00  0.32805184792E+03  0.32805184792E+03  0.00000000000E+00 0.  1.
         21   -1    0    0  501  503 -0.00000000000E+00 -0.00000000000E+00 -0.18605758853E+03  0.18605758853E+03  0.00000000000E+00 0.  1.
          6    2    1    2  501    0  0.90577590073E+02  0.14308663513E+03  0.10233613233E+02  0.23887664732E+03  0.16816432683E+03 0.  0.
         24    2    3    3    0    0 -0.53167677627E+00  0.45360011648E+02 -0.34244881122E+02  0.97980167933E+02  0.79809699212E+02 0.  0.
         -6    2    1    2    0  502 -0.90577590073E+02 -0.14308663513E+03  0.13176064616E+03  0.27523278913E+03  0.17237788536E+03 0.  0.
        -24    2    5    5    0    0  0.28614197046E+01 -0.82178045324E+01  0.45544444697E+02  0.89825741238E+02  0.76932745383E+02 0.  0.
          5    1    3    3  501    0  0.91109266849E+02  0.97726623482E+02  0.44478494355E+02  0.14089647938E+03  0.47000000000E+01 0. -1.
        -13    1    4    4    0    0  0.31654731444E+02  0.17323011614E+02 -0.41160297514E+02  0.54738275873E+02  0.00000000000E+00 0.  1.
         14    1    4    4    0    0 -0.32186408221E+02  0.28037000033E+02  0.69154163919E+01  0.43241892059E+02  0.00000000000E+00 0. -1.
         -5    1    5    5    0  502 -0.93439009777E+02 -0.13486883060E+03  0.86216201461E+02  0.18540704790E+03  0.47000000000E+01 0.  1.
         13    1    6    6    0    0  0.20472719274E+02 -0.35637384347E+02  0.11455549495E+02  0.42665970185E+02  0.00000000000E+00 0. -1.
        -14    1    6    6    0    0 -0.17611299569E+02  0.27419579815E+02  0.34088895202E+02  0.47159771053E+02  0.00000000000E+00 0.  1.
</event>
<event>
12    1  0.8421768E-002  0.2040298E+03  0.7818608E-02  0.1147440E+00
         21   -1    0    0  503  502  0.00000000000E+00  0.00000000000E+00  0.24692932095E+03  0.24692932095E+03  0.00000000000E+00 0. -1.
         21   -1    0    0  501  503 -0.00000000000E+00 -0.00000000000E+00 -0.16480159552E+03  0.16480159552E+03  0.00000000000E+00 0. -1.
          6    2    1    2  501    0  0.55459575714E+02  0.95664998644E+02  0.50514651015E+02  0.20526649525E+03  0.16539361415E+03 0.  0.
         24    2    3    3    0    0 -0.17079015321E+02 -0.30024091405E+01 -0.41149933122E+01  0.71089028484E+02  0.68818671710E+02 0.  0.
         -6    2    1    2    0  502 -0.55459575714E+02 -0.95664998644E+02  0.31613074411E+02  0.20646442122E+03  0.17146607318E+03 0.  0.
        -24    2    5    5    0    0  0.27141340367E+02 -0.59415947141E+02 -0.12717519633E+02  0.10584535423E+03  0.82307937499E+02 0.  0.
          5    1    3    3  501    0  0.72538591035E+02  0.98667407784E+02  0.54629644328E+02  0.13417746677E+03  0.47000000000E+01 0. -1.
        -11    1    4    4    0    0  0.38556503624E+00 -0.34729309270E+02 -0.11245783257E+01  0.34749651210E+02  0.00000000000E+00 0.  1.
         12    1    4    4    0    0 -0.17464580357E+02  0.31726900130E+02 -0.29904149865E+01  0.36339377275E+02  0.00000000000E+00 0. -1.
         -5    1    5    5    0  502 -0.82600916081E+02 -0.36249051502E+02  0.44330594044E+02  0.10061906698E+03  0.47000000000E+01 0.  1.
         11    1    6    6    0    0 -0.11709318535E+02 -0.56189817384E+02  0.13375161789E+02  0.58934698363E+02  0.00000000000E+00 0. -1.
        -12    1    6    6    0    0  0.38850658902E+02 -0.32261297567E+01 -0.26092681422E+02  0.46910655869E+02  0.00000000000E+00 0.  1.
</event>
<event>
12    1  0.8421768E-002  0.2389400E+03  0.7818608E-02  0.1120565E+00
         21   -1    0    0  501  502  0.00000000000E+00  0.00000000000E+00  0.14994811225E+04  0.14994811225E+04  0.00000000000E+00 0. -1.
         21   -1    0    0  502  503 -0.00000000000E+00 -0.00000000000E+00 -0.14796353200E+03  0.14796353200E+03  0.00000000000E+00 0. -1.
         -6    2    1    2    0  503 -0.15086206799E+03  0.70041859692E+02 -0.34451078242E+02  0.24103024982E+03  0.17100724800E+03 0.  0.
        -24    2    3    3    0    0 -0.14978908622E+03 -0.43470077207E+00 -0.24317784747E+02  0.16966589946E+03  0.75882827224E+02 0.  0.
          6    2    1    2  501    0  0.15086206799E+03 -0.70041859692E+02  0.13859686687E+04  0.14064144047E+04  0.17154329273E+03 0.  0.
         24    2    5    5    0    0  0.54200042223E+02 -0.94472816070E+02  0.92109305568E+03  0.93094427472E+03  0.79887845579E+02 0.  0.
          5    1    5    5  501    0  0.96662025765E+02  0.24430956378E+02  0.46487561304E+03  0.47547012993E+03  0.47000000000E+01 0. -1.
        -13    1    6    6    0    0  0.10855149119E+02 -0.15257955833E+02  0.49662025941E+03  0.49697315977E+03  0.00000000000E+00 0.  1.
         14    1    6    6    0    0  0.43344893104E+02 -0.79214860237E+02  0.42447279627E+03  0.43397111495E+03  0.00000000000E+00 0. -1.
         -5    1    3    3    0  503 -0.10729817637E+01  0.70476560464E+02 -0.10133293495E+02  0.71364350356E+02  0.47000000000E+01 0.  1.
         11    1    4    4    0    0 -0.10416570370E+03 -0.21731162559E+02  0.12713440992E+02  0.10716514749E+03  0.00000000000E+00 0. -1.
        -12    1    4    4    0    0 -0.45623382523E+02  0.21296461787E+02 -0.37031225739E+02  0.62500751974E+02  0.00000000000E+00 0.  1.
</event>
<event>
12    1  0.8421768E-002  0.2147388E+03  0.7818608E-02  0.1138689E+00
         21   -1    0    0  503  502  0.00000000000E+00  0.00000000000E+00  0.23258522324E+03  0.23258522324E+03  0.00000000000E+00 0.  1.
         21   -1    0    0  501  503 -0.00000000000E+00 -0.00000000000E+00 -0.35557020751E+03  0.35557020751E+03  0.00000000000E+00 0.  1.
          6    2    1    2  501    0 -0.12734909081E+03 -0.24693202160E+02 -0.25915515643E+03  0.33388184045E+03  0.16579548580E+03 0.  0.
         24    2    3    3    0    0 -0.15374994838E+03 -0.15759167215E+02 -0.24784718497E+03  0.30343873811E+03  0.82215830054E+02 0.  0.
         -6    2    1    2    0  502  0.12734909081E+03  0.24693202160E+02  0.13617017216E+03  0.25427359031E+03  0.17112918448E+03 0.  0.
        -24    2    5    5    0    0  0.13096640607E+03 -0.25113006081E+02  0.65788583547E+02  0.16784789179E+03  0.77858297308E+02 0.  0.
          5    1    3    3  501    0  0.26400857573E+02 -0.89340349444E+01 -0.11307971465E+02  0.30443102333E+02  0.47000000000E+01 0. -1.
        -13    1    4    4    0    0 -0.54085333205E+02 -0.31580213108E+02 -0.15142457509E+03  0.16386560063E+03  0.00000000000E+00 0.  1.
         14    1    4    4    0    0 -0.99664615176E+02  0.15821045892E+02 -0.96422609878E+02  0.13957313748E+03  0.00000000000E+00 0. -1.
         -5    1    5    5    0  502 -0.36173152613E+01  0.49806208240E+02  0.70381588615E+02  0.86425698522E+02  0.47000000000E+01 0.  1.
         11    1    6    6    0    0  0.63604535382E+01 -0.91738698956E+01 -0.14845635697E+02  0.18574395207E+02  0.00000000000E+00 0. -1.
        -12    1    6    6    0    0  0.12460595253E+03 -0.15939136185E+02  0.80634219244E+02  0.14927349658E+03  0.00000000000E+00 0.  1.
</event>
<event>
12    1  0.8421768E-002  0.1880024E+03  0.7818608E-02  0.1161238E+00
         21   -1    0    0  501  502  0.00000000000E+00  0.00000000000E+00  0.21254586193E+03  0.21254586193E+03  0.00000000000E+00 0.  1.
         21   -1    0    0  502  503 -0.00000000000E+00 -0.00000000000E+00 -0.32229181086E+03  0.32229181086E+03  0.00000000000E+00 0.  1.
         -6    2    1    2    0  503 -0.21115076088E+02  0.61388239963E+02 -0.24339647048E+03  0.30754958109E+03  0.17643848940E+03 0.  0.
        -24    2    3    3    0    0  0.53565247870E+02  0.42402547551E+02 -0.10118196065E+03  0.14573282019E+03  0.79580486933E+02 0.  0.
          6    2    1    2  501    0  0.21115076088E+02 -0.61388239963E+02  0.13365052155E+03  0.22728809170E+03  0.17199724496E+03 0.  0.
         24    2    5    5    0    0  0.28943446796E+02 -0.13217324089E+02  0.15244119888E+03  0.17478190084E+03  0.79359769241E+02 0.  0.
          5    1    5    5  501    0 -0.78283707086E+01 -0.48170915875E+02 -0.18790677334E+02  0.52506190862E+02  0.47000000000E+01 0. -1.
        -13    1    6    6    0    0 -0.22705051637E+02 -0.20096415490E+02  0.79959404386E+02  0.85515446764E+02  0.00000000000E+00 0.  1.
         14    1    6    6    0    0  0.51648498433E+02  0.68790914013E+01  0.72481794498E+02  0.89266454072E+02  0.00000000000E+00 0. -1.
         -5    1    3    3    0  503 -0.74680323958E+02  0.18985692412E+02 -0.14221450983E+03  0.16181676091E+03  0.47000000000E+01 0.  1.
         13    1    4    4    0    0 -0.16648155407E+02  0.24248057042E+02 -0.46015871791E+02  0.54613091887E+02  0.00000000000E+00 0. -1.
        -14    1    4    4    0    0  0.70213403278E+02  0.18154490510E+02 -0.55166088858E+02  0.91119728300E+02  0.00000000000E+00 0.  1.
</event>
<event>
12    1  0.8421768E-002  0.2058234E+03  0.7818608E-02  0.1145228E+00
         21   -1    0    0  501  502  0.00000000000E+00  0.00000000000E+00  0.24879762655E+02  0.24879762655E+02  0.00000000000E+00 0.  1.
         21   -1    0    0  502  503 -0.00000000000E+00 -0.00000000000E+00 -0.26362606003E+04  0.26362606003E+04  0.00000000000E+00 0. -1.
         -6    2    1    2    0  503  0.88567911126E+02 -0.71224296670E+02 -0.20996910166E+04  0.21096063596E+04  0.16976292914E+03 0.  0.
        -24    2    3    3    0    0 -0.16221395519E+02 -0.40087142798E+02 -0.65388860235E+03  0.65966945336E+03  0.75652962398E+02 0.  0.
          6    2    1    2  501    0 -0.88567911126E+02  0.71224296670E+02 -0.51168982107E+03  0.55153400334E+03  0.17159868455E+03 0.  0.
         24    2    5    5    0    0  0.41430800634E+01  0.78174349561E+02 -0.27448441904E+03  0.29671617847E+03  0.81058005324E+02 0.  0.
          5    1    5    5  501    0 -0.92710991189E+02 -0.69500528910E+01 -0.23720540203E+03  0.25481782487E+03  0.47000000000E+01 0. -1.
        -11    1    6    6    0    0 -0.31506258971E+02  0.68424927876E+02 -0.17205915623E+03  0.18782696385E+03  0.00000000000E+00 0.  1.
         12    1    6    6    0    0  0.35649339034E+02  0.97494216843E+01 -0.10242526282E+03  0.10888921462E+03  0.00000000000E+00 0. -1.
         -5    1    3    3    0  503  0.10478930664E+03 -0.31137153871E+02 -0.14458024142E+04  0.14499369063E+04  0.47000000000E+01 0.  1.
         13    1    4    4    0    0  0.17779074054E+02 -0.36401673862E+02 -0.51657219163E+03  0.51815828325E+03  0.00000000000E+00 0. -1.
        -14    1    4    4    0    0 -0.34000469573E+02 -0.36854689365E+01 -0.13731641072E+03  0.14151117011E+03  0.00000000000E+00 0.  1.
</event>
<event>
12    1  0.8421768E-002  0.3048581E+03  0.7818608E-02  0.1082853E+00
         21   -1    0    0  503  502  0.00000000000E+00  0.00000000000E+00  0.33420607569E+03  0.33420607569E+03  0.00000000000E+00 0.  1.
         21   -1    0    0  501  503 -0.00000000000E+00 -0.00000000000E+00 -0.28311256603E+03  0.28311256603E+03  0.00000000000E+00 0. -1.
          6    2    1    2  501    0  0.25144132179E+03 -0.81681261558E+01 -0.16051718482E+02  0.30515367270E+03  0.17196409424E+03 0.  0.
         24    2    3    3    0    0  0.34174941182E+02 -0.67830109719E+01 -0.35432109044E+01  0.87472365628E+02  0.80155627142E+02 0.  0.
         -6    2    1    2    0  502 -0.25144132179E+03  0.81681261558E+01  0.67145228137E+02  0.31216496902E+03  0.17218893586E+03 0.  0.
        -24    2    5    5    0    0 -0.86974841773E+02  0.84796497731E+01 -0.27856246077E+02  0.12217367922E+03  0.80708796838E+02 0.  0.
          5    1    3    3  501    0  0.21726638061E+03 -0.13851151839E+01 -0.12508507577E+02  0.21768130708E+03  0.47000000000E+01 0. -1.
        -13    1    4    4    0    0  0.23237468291E+02  0.29076480091E+02  0.20928806496E+02  0.42701716223E+02  0.00000000000E+00 0.  1.
         14    1    4    4    0    0  0.10937472891E+02 -0.35859491063E+02 -0.24472017400E+02  0.44770649405E+02  0.00000000000E+00 0. -1.
         -5    1    5    5    0  502 -0.16446648002E+03 -0.31152361726E+00  0.95001474214E+02  0.18999128980E+03  0.47000000000E+01 0.  1.
         11    1    6    6    0    0 -0.76196885415E+02  0.39239578242E+02 -0.25840765306E+02  0.89517903233E+02  0.00000000000E+00 0. -1.
        -12    1    6    6    0    0 -0.10777956358E+02 -0.30759928468E+02 -0.20154807706E+01  0.32655775988E+02  0.00000000000E+00 0.  1.
</event>
<event>
12    1  0.8421768E-002  0.1744779E+03  0.7818608E-02  0.1173419E+00
         21   -1    0    0  501  502  0.00000000000E+00  0.00000000000E+00  0.91818340522E+03  0.91818340522E+03  0.00000000000E+00 0. -1.
         21   -1    0    0  502  503 -0.00000000000E+00 -0.00000000000E+00 -0.45713594703E+02  0.45713594703E+02  0.00000000000E+00 0. -1.
         -6    2    1    2    0  503  0.33912077362E+01  0.27803568658E+02  0.18182817417E+03  0.25155690659E+03  0.17156588709E+03 0.  0.
        -24    2    3    3    0    0  0.15532380808E+02 -0.58026803901E+01  0.16968159803E+02  0.82803529162E+02  0.79332087085E+02 0.  0.
          6    2    1    2  501    0 -0.33912077362E+01 -0.27803568658E+02  0.69064163635E+03  0.71234009333E+03  0.17221498188E+03 0.  0.
         24    2    5    5    0    0 -0.41344952308E+02 -0.59432353286E+02  0.59181552066E+03  0.60175276183E+03  0.81358258250E+02 0.  0.
          5    1    5    5  501    0  0.37953744572E+02  0.31628784627E+02  0.98826115691E+02  0.11058733149E+03  0.47000000000E+01 0. -1.
        -13    1    6    6    0    0  0.95754665473E+01 -0.10119745324E+02  0.14524408768E+02  0.20126034261E+02  0.00000000000E+00 0.  1.
         14    1    6    6    0    0 -0.50920418856E+02 -0.49312607962E+02  0.57729111189E+03  0.58162672757E+03  0.00000000000E+00 0. -1.
         -5    1    3    3    0  503 -0.12141173072E+02  0.33606249049E+02  0.16486001436E+03  0.16875337743E+03  0.47000000000E+01 0.  1.
         11    1    4    4    0    0 -0.30647748158E+02  0.80596938597E+01  0.21926757620E-02  0.31689795472E+02  0.00000000000E+00 0. -1.
        -12    1    4    4    0    0  0.46180128966E+02 -0.13862374250E+02  0.16965967128E+02  0.51113733690E+02  0.00000000000E+00 0.  1.
</event>
<event>
12    1  0.8421768E-002  0.2334765E+03  0.7818608E-02  0.1124305E+00
         21   -1    0    0  501  502  0.00000000000E+00  0.00000000000E+00  0.70655929713E+03  0.70655929713E+03  0.00000000000E+00 0. -1.
         21   -1    0    0  502  503 -0.00000000000E+00 -0.00000000000E+00 -0.10420583494E+03  0.10420583494E+03  0.00000000000E+00 0. -1.
         -6    2    1    2    0  503 -0.79542256094E+02 -0.13541797578E+03  0.93722778446E+02  0.25110768253E+03  0.17206426229E+03 0.  0.
        -24    2    3    3    0    0 -0.12679713443E+02  0.42847555374E+00  0.17018462431E+02  0.81312217208E+02  0.78492610350E+02 0.  0.
          6    2    1    2  501    0  0.79542256094E+02  0.13541797578E+03  0.50863068375E+03  0.55965744954E+03  0.17276078753E+03 0.  0.
         24    2    5    5    0    0  0.56934452361E+02  0.16161278508E+03  0.47810689683E+03  0.51327779461E+03  0.74213647457E+02 0.  0.
          5    1    5    5  501    0  0.22607803733E+02 -0.26194809303E+02  0.30523786912E+02  0.46379654931E+02  0.47000000000E+01 0. -1.
        -11    1    6    6    0    0 -0.15773424120E+02  0.56970548978E+02  0.14082753457E+03  0.15273126351E+03  0.00000000000E+00 0.  1.
         12    1    6    6    0    0  0.72707876481E+02  0.10464223610E+03  0.33727936226E+03  0.36054653110E+03  0.00000000000E+00 0. -1.
         -5    1    3    3    0  503 -0.66862542651E+02 -0.13584645133E+03  0.76704316016E+02  0.16979546532E+03  0.47000000000E+01 0.  1.
         13    1    4    4    0    0 -0.41506357908E+02  0.29178257118E+01 -0.88052942586E+01  0.42530279339E+02  0.00000000000E+00 0. -1.
        -14    1    4    4    0    0  0.28826644465E+02 -0.24893501580E+01  0.25823756689E+02  0.38781937869E+02  0.00000000000E+00 0.  1.
</event>
<event>
12    1  0.8421768E-002  0.1908268E+03  0.7818608E-02  0.1157721E+00
         21   -1    0    0  503  502  0.00000000000E+00  0.00000000000E+00  0.20057159358E+03  0.20057159358E+03  0.00000000000E+00 0.  1.
         21   -1    0    0  501  503 -0.00000000000E+00 -0.00000000000E+00 -0.39093026255E+03  0.39093026255E+03  0.00000000000E+00 0.  1.
          6    2    1    2  501    0  0.78333133863E+02  0.28150330764E+02 -0.31162928388E+03  0.36541438420E+03  0.17171587179E+03 0.  0.
         24    2    3    3    0    0  0.79770325653E+02 -0.23968222992E+02 -0.28383781749E+03  0.30614495894E+03  0.78886302236E+02 0.  0.
         -6    2    1    2    0  502 -0.78333133863E+02 -0.28150330764E+02  0.12127061491E+03  0.22608747193E+03  0.17169875346E+03 0.  0.
        -24    2    5    5    0    0 -0.94115586922E+02 -0.18722908411E+02  0.24226450142E+02  0.12720561296E+03  0.79912802991E+02 0.  0.
          5    1    3    3  501    0 -0.14371917891E+01  0.52118553756E+02 -0.27791466387E+02  0.59269425252E+02  0.47000000000E+01 0. -1.
        -13    1    4    4    0    0  0.94431448757E+02 -0.11021761267E+02 -0.23072326142E+03  0.24954358556E+03  0.00000000000E+00 0.  1.
         14    1    4    4    0    0 -0.14661123104E+02 -0.12946461725E+02 -0.53114556075E+02  0.56601373384E+02  0.00000000000E+00 0. -1.
         -5    1    5    5    0  502  0.15782453059E+02 -0.94274223526E+01  0.97044164771E+02  0.98881858967E+02  0.47000000000E+01 0.  1.
         11    1    6    6    0    0 -0.73793181082E+02 -0.40861240176E+02 -0.60234557547E+01  0.84565693648E+02  0.00000000000E+00 0. -1.
        -12    1    6    6    0    0 -0.20322405840E+02  0.22138331765E+02  0.30249905897E+02  0.42639919315E+02  0.00000000000E+00 0.  1.
</event>
<event>
12    1  0.8421768E-002  0.3271521E+03  0.7818608E-02  0.1072473E+00
         21   -1    0    0  501  502  0.00000000000E+00  0.00000000000E+00  0.25066547235E+04  0.25066547235E+04  0.00000000000E+00 0. -1.
         21   -1    0    0  502  503 -0.00000000000E+00 -0.00000000000E+00 -0.53404369994E+02  0.53404369994E+02  0.00000000000E+00 0.  1.
         -6    2    1    2    0  503  0.24608521635E+03  0.12813960551E+03  0.18009844596E+04  0.18303473240E+04  0.17218771826E+03 0.  0.
        -24    2    3    3    0    0  0.18005020358E+03  0.11081795337E+03  0.16411835826E+04  0.16565109847E+04  0.76461729535E+02 0.  0.
          6    2    1    2  501    0 -0.24608521635E+03 -0.12813960551E+03  0.65226589394E+03  0.72971176958E+03  0.17335160245E+03 0.  0.
         24    2    5    5    0    0 -0.25299913200E+03 -0.10760508951E+03  0.49384453687E+03  0.56974650788E+03  0.71702444623E+02 0.  0.
          5    1    5    5  501    0  0.69139156518E+01 -0.20534515999E+02  0.15842135706E+03  0.15996526170E+03  0.47000000000E+01 0. -1.
        -13    1    6    6    0    0 -0.17537087927E+03 -0.77844872134E+02  0.27224328373E+03  0.33306331973E+03  0.00000000000E+00 0.  1.
         14    1    6    6    0    0 -0.77628252734E+02 -0.29760217378E+02  0.22160125314E+03  0.23668318815E+03  0.00000000000E+00 0. -1.
         -5    1    3    3    0  503  0.66035012772E+02  0.17321652141E+02  0.15980087699E+03  0.17383633921E+03  0.47000000000E+01 0.  1.
         13    1    4    4    0    0  0.82286153764E+02  0.84337616807E+02  0.69452772579E+03  0.70445199028E+03  0.00000000000E+00 0. -1.
        -14    1    4    4    0    0  0.97764049816E+02  0.26480336563E+02  0.94665585683E+03  0.95205899446E+03  0.00000000000E+00 0.  1.
</event>
<event>
12    1  0.8421768E-002  0.2233294E+03  0.7818608E-02  0.1132071E+00
         21   -1    0    0  503  502  0.00000000000E+00  0.00000000000E+00  0.36280429517E+03  0.36280429517E+03  0.00000000000E+00 0. -1.
         21   -1    0    0  501  503 -0.00000000000E+00 -0.00000000000E+00 -0.17309022095E+03  0.17309022095E+03  0.00000000000E+00 0. -1.
          6    2    1    2  501    0 -0.11814513665E+03 -0.86453767546E+02 -0.29713182235E+02  0.22529738069E+03  0.16865203618E+03 0.  0.
         24    2    3    3    0    0 -0.12008642031E+03 -0.12223320394E+02 -0.15470969156E+02  0.14954212674E+03  0.86909946958E+02 0.  0.
         -6    2    1    2    0  502  0.11814513665E+03  0.86453767546E+02  0.21942725646E+03  0.31059713544E+03  0.16398089043E+03 0.  0.
        -24    2    5    5    0    0  0.82753010607E+02  0.99282315864E+02  0.89468536851E+02  0.17521422278E+03  0.77397453244E+02 0.  0.
          5    1    3    3  501    0  0.19412836588E+01 -0.74230447152E+02 -0.14242213079E+02  0.75755253944E+02  0.47000000000E+01 0. -1.
        -11    1    4    4    0    0 -0.30132578707E+02  0.34600281022E+02 -0.14527696397E+02  0.48126974857E+02  0.00000000000E+00 0.  1.
         12    1    4    4    0    0 -0.89953841603E+02 -0.46823601416E+02 -0.94327275917E+00  0.10141515189E+03  0.00000000000E+00 0. -1.
         -5    1    5    5    0  502  0.35392126044E+02 -0.12828548318E+02  0.12995871961E+03  0.13538291266E+03  0.47000000000E+01 0.  1.
         11    1    6    6    0    0  0.80655649460E+01  0.26981809215E+02 -0.11388716661E+02  0.30377199239E+02  0.00000000000E+00 0. -1.
        -12    1    6    6    0    0  0.74687445661E+02  0.72300506650E+02  0.10085725351E+03  0.14483702354E+03  0.00000000000E+00 0.  1.
</event>
<event>
12    1  0.8421768E-002  0.2140906E+03  0.7818608E-02  0.1138410E+00
         21   -1    0    0  503  502  0.00000000000E+00  0.00000000000E+00  0.15531609949E+03  0.15531609949E+03  0.00000000000E+00 0. -1.
         21   -1    0    0  501  503 -0.00000000000E+00 -0.00000000000E+00 -0.29642203276E+03  0.29642203276E+03  0.00000000000E+00 0.  1.
          6    2    1    2  501    0  0.53179323316E+02  0.11795013292E+03 -0.87231927758E+02  0.23097315176E+03  0.17029067305E+03 0.  0.
         24    2    3    3    0    0  0.62931641638E+02  0.19604720731E+02 -0.82801704934E+02  0.13193454976E+03  0.78777322159E+02 0.  0.
         -6    2    1    2    0  502 -0.53179323316E+02 -0.11795013292E+03 -0.53874005506E+02  0.22076498049E+03  0.17057108154E+03 0.  0.
        -24    2    5    5    0    0 -0.71252953991E+02 -0.14335776795E+02 -0.14494943275E+02  0.10835772333E+03  0.79049319256E+02 0.  0.
          5    1    3    3  501    0 -0.97523183224E+01  0.98345412189E+02 -0.44302228241E+01  0.99038601998E+02  0.47000000000E+01 0. -1.
        -13    1    4    4    0    0  0.45019651885E+02  0.47341487268E+02 -0.35803063807E+02  0.74497280827E+02  0.00000000000E+00 0.  1.
         14    1    4    4    0    0  0.17911989753E+02 -0.27736766537E+02 -0.46998641128E+02  0.57437268935E+02  0.00000000000E+00 0. -1.
         -5    1    5    5    0  502  0.18073630675E+02 -0.10361435613E+03 -0.39379062231E+02  0.11240725716E+03  0.47000000000E+01 0.  1.
         11    1    6    6    0    0 -0.85195481089E+02 -0.23079847757E+02 -0.20884255926E+02  0.90703371029E+02  0.00000000000E+00 0. -1.
        -12    1    6    6    0    0  0.13942527097E+02  0.87440709620E+01  0.63893126511E+01  0.17654352296E+02  0.00000000000E+00 0.  1.
</event>
<event>
12    1  0.8421768E-002  0.1796170E+03  0.7818608E-02  0.1169324E+00
         21   -1    0    0  501  502  0.00000000000E+00  0.00000000000E+00  0.19932079314E+04  0.19932079314E+04  0.00000000000E+00 0.  1.
         21   -1    0    0  502  503 -0.00000000000E+00 -0.00000000000E+00 -0.25352640991E+02  0.25352640991E+02  0.00000000000E+00 0.  1.
         -6    2    1    2    0  503  0.27235183895E+02 -0.21527385371E+02  0.37145282800E+03  0.41260087586E+03  0.17623023512E+03 0.  0.
        -24    2    3    3    0    0 -0.16310075540E+02 -0.27958193588E+02  0.81862812717E+02  0.11964693432E+03  0.81032028442E+02 0.  0.
          6    2    1    2  501    0 -0.27235183895E+02  0.21527385371E+02  0.15964024624E+04  0.16059596965E+04  0.17146586053E+03 0.  0.
         24    2    5    5    0    0 -0.79700440600E+02  0.10492943057E+01  0.86463320883E+03  0.87201127473E+03  0.80372981760E+02 0.  0.
          5    1    5    5  501    0  0.52465256705E+02  0.20478091065E+02  0.73176925356E+03  0.73394842177E+03  0.47000000000E+01 0. -1.
        -13    1    6    6    0    0 -0.62499618159E+02  0.27561174434E+02  0.74991938609E+03  0.75302384174E+03  0.00000000000E+00 0.  1.
         14    1    6    6    0    0 -0.17200822441E+02 -0.26511880129E+02  0.11471382274E+03  0.11898743299E+03  0.00000000000E+00 0. -1.
         -5    1    3    3    0  503  0.43545259436E+02  0.64308082173E+01  0.28959001528E+03  0.29295394154E+03  0.47000000000E+01 0.  1.
         13    1    4    4    0    0 -0.92256227982E+01 -0.56520737448E+02  0.60324569690E+02  0.83179081420E+02  0.00000000000E+00 0. -1.
        -14    1    4    4    0    0 -0.70844527421E+01  0.28562543860E+02  0.21538243028E+02  0.36467852900E+02  0.00000000000E+00 0.  1.
</event>
<event>
12    1  0.8421768E-002  0.2502585E+03  0.7818608E-02  0.1113590E+00
         21   -1    0    0  501  502  0.00000000000E+00  0.00000000000E+00  0.20117269349E+03  0.20117269349E+03  0.00000000000E+00 0.  1.
         21   -1    0    0  502  503 -0.00000000000E+00 -0.00000000000E+00 -0.34730214156E+03  0.34730214156E+03  0.00000000000E+00 0.  1.
         -6    2    1    2    0  503  0.49262886495E+02 -0.17389417882E+03 -0.16590104475E+03  0.30025398810E+03  0.17309905635E+03 0.  0.
        -24    2    3    3    0    0  0.40710443914E+02 -0.15561391973E+02 -0.68218157343E+02  0.11395731031E+03  0.80206324050E+02 0.  0.
          6    2    1    2  501    0 -0.49262886495E+02  0.17389417882E+03  0.19771596673E+02  0.24822084695E+03  0.16898714571E+03 0.  0.
         24    2    5    5    0    0 -0.93888391925E+02  0.92549608489E+02  0.77202197069E+01  0.15454213783E+03  0.80269610698E+02 0.  0.
          5    1    5    5  501    0  0.44625505430E+02  0.81344570329E+02  0.12051376966E+02  0.93678709127E+02  0.47000000000E+01 0. -1.
        -13    1    6    6    0    0 -0.56537803409E+02  0.95299066303E+02  0.24530382433E+02  0.11349085829E+03  0.00000000000E+00 0.  1.
         14    1    6    6    0    0 -0.37350588516E+02 -0.27494578149E+01 -0.16810162726E+02  0.41051279538E+02  0.00000000000E+00 0. -1.
         -5    1    3    3    0  503  0.85524425809E+01 -0.15833278684E+03 -0.97682887406E+02  0.18629667779E+03  0.47000000000E+01 0.  1.
         13    1    4    4    0    0 -0.77039403657E+01  0.72129647126E+01 -0.58666150436E+02  0.59607841465E+02  0.00000000000E+00 0. -1.
        -14    1    4    4    0    0  0.48414384280E+02 -0.22774356686E+02 -0.95520069067E+01  0.54349468844E+02  0.00000000000E+00 0.  1.
</event>
<event>
12    1  0.8421768E-002  0.2652532E+03  0.7818608E-02  0.1104054E+00
         21   -1    0    0  503  502  0.00000000000E+00  0.00000000000E+00  0.12515960712E+04  0.12515960712E+04  0.00000000000E+00 0.  1.
         21   -1    0    0  501  503 -0.00000000000E+00 -0.00000000000E+00 -0.77109412065E+02  0.77109412065E+02  0.00000000000E+00 0.  1.
          6    2    1    2  501    0  0.93533094433E+02 -0.17748840859E+03  0.24095983708E+03  0.35822540651E+03  0.17324325050E+03 0.  0.
         24    2    3    3    0    0 -0.27934480891E+01 -0.14047582902E+03  0.14967588995E+03  0.22037192326E+03  0.80122722353E+02 0.  0.
         -6    2    1    2    0  502 -0.93533094433E+02  0.17748840859E+03  0.93352682202E+03  0.97048007672E+03  0.17351852048E+03 0.  0.
        -24    2    5    5    0    0 -0.68131145367E+02  0.21449946297E+02  0.41117980131E+03  0.42471294619E+03  0.78805485136E+02 0.  0.
          5    1    3    3  501    0  0.96326542522E+02 -0.37012579569E+02  0.91283947128E+02  0.13785348325E+03  0.47000000000E+01 0. -1.
        -11    1    4    4    0    0  0.34571449859E+02 -0.43129484944E+02  0.35225889819E+02  0.65545411208E+02  0.00000000000E+00 0.  1.
         12    1    4    4    0    0 -0.37364897948E+02 -0.97346344072E+02  0.11445000013E+03  0.15482651205E+03  0.00000000000E+00 0. -1.
         -5    1    5    5    0  502 -0.25401949066E+02  0.15603846229E+03  0.52234702070E+03  0.54576713053E+03  0.47000000000E+01 0.  1.
         13    1    6    6    0    0 -0.61057939887E+02  0.47199163147E+02  0.34101900016E+03  0.34964237657E+03  0.00000000000E+00 0. -1.
        -14    1    6    6    0    0 -0.70732054799E+01 -0.25749216850E+02  0.70160801153E+02  0.75070569617E+02  0.00000000000E+00 0.  1.
</event>
<event>
12    1  0.8421768E-002  0.1856243E+03  0.7818608E-02  0.1162505E+00
         21   -1    0    0  501  502  0.00000000000E+00  0.00000000000E+00  0.58781098552E+03  0.58781098552E+03  0.00000000000E+00 0.  1.
         21   -1    0    0  502  503 -0.00000000000E+00 -0.00000000000E+00 -0.21030809639E+03  0.21030809639E+03  0.00000000000E+00 0.  1.
         -6    2    1    2    0  503  0.69324115732E+02 -0.94223552698E+01 -0.15023998844E+03  0.23868283426E+03  0.17176387117E+03 0.  0.
        -24    2    3    3    0    0  0.34858088861E+02 -0.61806143566E+02 -0.41650878230E+02  0.11320114977E+03  0.77747147282E+02 0.  0.
          6    2    1    2  501    0 -0.69324115732E+02  0.94223552698E+01  0.52774287757E+03  0.55943624766E+03  0.17193532669E+03 0.  0.
         24    2    5    5    0    0  0.16575890813E+02  0.21023945709E+01  0.17404978301E+03  0.19535756373E+03  0.87132488325E+02 0.  0.
          5    1    5    5  501    0 -0.85900006545E+02  0.73199606989E+01  0.35369309456E+03  0.36407868392E+03  0.47000000000E+01 0. -1.
        -13    1    6    6    0    0  0.55654044487E+01 -0.42454428256E+02  0.85075009475E+02  0.95242372096E+02  0.00000000000E+00 0.  1.
         14    1    6    6    0    0  0.11010486364E+02  0.44556822827E+02  0.88974773538E+02  0.10011519164E+03  0.00000000000E+00 0. -1.
         -5    1    3    3    0  503  0.34466026871E+02  0.52383788297E+02 -0.10858911021E+03  0.12548168449E+03  0.47000000000E+01 0.  1.
         11    1    4    4    0    0 -0.95470784327E+01 -0.15134333728E+02 -0.45270279880E+02  0.48678465510E+02  0.00000000000E+00 0. -1.
        -12    1    4    4    0    0  0.44405167294E+02 -0.46671809838E+02  0.36194016494E+01  0.64522684262E+02  0.00000000000E+00 0.  1.
</event>
<event>
12    1  0.8421768E-002  0.1878318E+03  0.7818608E-02  0.1160677E+00
         21   -1    0    0  501  502  0.00000000000E+00  0.00000000000E+00  0.81941549351E+02  0.81941549351E+02  0.00000000000E+00 0. -1.
         21   -1    0    0  502  503 -0.00000000000E+00 -0.00000000000E+00 -0.13656473392E+04  0.13656473392E+04  0.00000000000E+00 0. -1.
         -6    2    1    2    0  503  0.33656458184E+02 -0.63782986286E+02 -0.12409853677E+04  0.12549602084E+04  0.17227714698E+03 0.  0.
        -24    2    3    3    0    0  0.33836282287E+02 -0.11081453051E+03 -0.94101396401E+03  0.95128780020E+03  0.77565740952E+02 0.  0.
          6    2    1    2  501    0 -0.33656458184E+02  0.63782986286E+02 -0.42720422107E+02  0.19262868008E+03  0.17343513891E+03 0.  0.
         24    2    5    5    0    0  0.32529153768E+02  0.57670082195E+02  0.15278129049E+02  0.10428942062E+03  0.79113069724E+02 0.  0.
          5    1    5    5  501    0 -0.66185611952E+02  0.61129040907E+01 -0.57998551156E+02  0.88339259461E+02  0.47000000000E+01 0. -1.
        -11    1    6    6    0    0  0.14983318463E+02  0.74997071148E+02  0.20292398973E+02  0.79125482425E+02  0.00000000000E+00 0.  1.
         12    1    6    6    0    0  0.17545835305E+02 -0.17326988953E+02 -0.50142699232E+01  0.25163938197E+02  0.00000000000E+00 0. -1.
         -5    1    3    3    0  503 -0.17982410254E+00  0.47031544221E+02 -0.29997140371E+03  0.30367240825E+03  0.47000000000E+01 0.  1.
         11    1    4    4    0    0  0.20906565839E+02 -0.99278262413E+02 -0.91099120533E+03  0.91662327816E+03  0.00000000000E+00 0. -1.
        -12    1    4    4    0    0  0.12929716448E+02 -0.11536268094E+02 -0.30022758679E+02  0.34664522031E+02  0.00000000000E+00 0.  1.
</event>
<event>
12    1  0.8421768E-002  0.2336539E+03  0.7818608E-02  0.1124111E+00
         21   -1    0    0  501  502  0.00000000000E+00  0.00000000000E+00  0.21747919216E+03  0.21747919216E+03  0.00000000000E+00 0.  1.
         21   -1    0    0  502  503 -0.00000000000E+00 -0.00000000000E+00 -0.40004848231E+03  0.40004848231E+03  0.00000000000E+00 0. -1.
         -6    2    1    2    0  503 -0.14843348249E+03  0.54325366667E+02 -0.27978515849E+03  0.36445642346E+03  0.17194477457E+03 0.  0.
        -24    2    3    3    0    0 -0.33334362362E+02 -0.15903204805E+01 -0.45838829403E+02  0.97759317330E+02  0.79636530629E+02 0.  0.
          6    2    1    2  501    0  0.14843348249E+03 -0.54325366667E+02  0.97215868342E+02  0.25307125101E+03  0.17207669465E+03 0.  0.
         24    2    5    5    0    0  0.15732167871E+03 -0.78771919712E+02  0.50977196442E+02  0.19981020739E+03  0.79814274998E+02 0.  0.
          5    1    5    5  501    0 -0.88881962201E+01  0.24446553045E+02  0.46238671899E+02  0.53261043614E+02  0.47000000000E+01 0. -1.
        -11    1    6    6    0    0  0.74597607167E+02  0.56529450207E+01  0.24066060948E+02  0.78587111360E+02  0.00000000000E+00 0.  1.
         12    1    6    6    0    0  0.82724071547E+02 -0.84424864733E+02  0.26911135494E+02  0.12122309603E+03  0.00000000000E+00 0. -1.
         -5    1    3    3    0  503 -0.11509912013E+03  0.55915687147E+02 -0.23394632908E+03  0.26669710613E+03  0.47000000000E+01 0.  1.
         11    1    4    4    0    0 -0.19553548626E+02  0.12243172470E+02 -0.65865460397E+02  0.69788934719E+02  0.00000000000E+00 0. -1.
        -12    1    4    4    0    0 -0.13780813736E+02 -0.13833492951E+02  0.20026630994E+02  0.27970382611E+02  0.00000000000E+00 0.  1.
</event>
<event>
12    1  0.8421768E-002  0.2043093E+03  0.7818608E-02  0.1146247E+00
         21   -1    0    0  501  502  0.00000000000E+00  0.00000000000E+00  0.18362071548E+03  0.18362071548E+03  0.00000000000E+00 0. -1.
         21   -1    0    0  502  503 -0.00000000000E+00 -0.00000000000E+00 -0.27877573879E+03  0.27877573879E+03  0.00000000000E+00 0.  1.
         -6    2    1    2    0  503 -0.97265735960E+02 -0.55698222494E+02 -0.14734317534E+03  0.25152706125E+03  0.17027312132E+03 0.  0.
        -24    2    3    3    0    0 -0.85027591227E+02  0.27044180807E+02 -0.95925116240E+02  0.15323166822E+03  0.79481049530E+02 0.  0.
          6    2    1    2  501    0  0.97265735960E+02  0.55698222494E+02  0.52188152028E+02  0.21086939301E+03  0.17081973632E+03 0.  0.
         24    2    5    5    0    0  0.85838403909E+02  0.97417237805E+02  0.66860200855E+02  0.16495186724E+03  0.76684302438E+02 0.  0.
          5    1    5    5  501    0  0.11427332052E+02 -0.41719015311E+02 -0.14672048827E+02  0.45917525773E+02  0.47000000000E+01 0. -1.
        -11    1    6    6    0    0  0.78292629732E+01  0.49847386819E+02 -0.20654286675E+01  0.50500745806E+02  0.00000000000E+00 0.  1.
         12    1    6    6    0    0  0.78009140935E+02  0.47569850986E+02  0.68925629523E+02  0.11445112143E+03  0.00000000000E+00 0. -1.
         -5    1    3    3    0  503 -0.12238144733E+02 -0.82742403301E+02 -0.51418059095E+02  0.98295393034E+02  0.47000000000E+01 0.  1.
         13    1    4    4    0    0 -0.98570167354E+01 -0.25137462251E+02 -0.14024687907E+02  0.30426052295E+02  0.00000000000E+00 0. -1.
        -14    1    4    4    0    0 -0.75170574491E+02  0.52181643058E+02 -0.81900428333E+02  0.12280561593E+03  0.00000000000E+00 0.  1.
</event>
<event>
12    1  0.8421768E-002  0.1776208E+03  0.7818608E-02  0.1170957E+00
         21   -1    0    0  501  502  0.00000000000E+00  0.00000000000E+00  0.57548553996E+02  0.57548553996E+02  0.00000000000E+00 0. -1.
         21   -1    0    0  502  503 -0.00000000000E+00 -0.00000000000E+00 -0.73246133597E+03  0.73246133597E+03  0.00000000000E+00 0. -1.
         -6    2    1    2    0  503 -0.26221351769E+02 -0.15129837326E+02 -0.53864954080E+03  0.56614200676E+03  0.17163033748E+03 0.  0.
        -24    2    3    3    0    0  0.21824304357E+02 -0.82751680448E+00 -0.12954663133E+03  0.15395246057E+03  0.80262353461E+02 0.  0.
          6    2    1    2  501    0  0.26221351769E+02  0.15129837326E+02 -0.13626324117E+03  0.22386788321E+03  0.17502196140E+03 0.  0.
         24    2    5    5    0    0  0.59940186416E+02  0.52728807828E+02 -0.48369991587E+02  0.12238903952E+03  0.79159761160E+02 0.  0.
          5    1    5    5  501    0 -0.33718834647E+02 -0.37598970502E+02 -0.87893249582E+02  0.10147884368E+03  0.47000000000E+01 0. -1.
        -11    1    6    6    0    0  0.47948426995E+01 -0.98987541156E+01  0.14292548433E+02  0.18034766155E+02  0.00000000000E+00 0.  1.
         12    1    6    6    0    0  0.55145343717E+02  0.62627561944E+02 -0.62662540020E+02  0.10435427337E+03  0.00000000000E+00 0. -1.
         -5    1    3    3    0  503 -0.48045656126E+02 -0.14302320522E+02 -0.40910290948E+03  0.41218954619E+03  0.47000000000E+01 0.  1.
         11    1    4    4    0    0 -0.91610775139E+01 -0.31889891194E+02 -0.85812968908E+02  0.92004109334E+02  0.00000000000E+00 0. -1.
        -12    1    4    4    0    0  0.30985381871E+02  0.31062374390E+02 -0.43733662418E+02  0.61948351236E+02  0.00000000000E+00 0.  1.
</event>
<event>
12    1  0.8421768E-002  0.2184717E+03  0.7818608E-02  0.1135029E+00
         21   -1    0    0  503  502  0.00000000000E+00  0.00000000000E+00  0.14078418571E+04  0.14078418571E+04  0.00000000000E+00 0.  1.
         21   -1    0    0  501  503 -0.00000000000E+00 -0.00000000000E+00 -0.12725987376E+03  0.12725987376E+03  0.00000000000E+00 0. -1.
          6    2    1    2  501    0  0.13387020885E+03  0.63342864381E+01 -0.17125209872E+02  0.21913295308E+03  0.17252426586E+03 0.  0.
         24    2    3    3    0    0  0.15390716239E+03  0.36042500501E+02  0.35198122497E+01  0.17751127089E+03  0.80693157933E+02 0.  0.
         -6    2    1    2    0  502 -0.13387020885E+03 -0.63342864381E+01  0.12977071932E+04  0.13159687778E+04  0.17253552895E+03 0.  0.
        -24    2    5    5    0    0 -0.14357686987E+03 -0.43058197312E+02  0.88167124412E+03  0.89817592738E+03  0.83111298295E+02 0.  0.
          5    1    3    3  501    0 -0.20036953543E+02 -0.29708214063E+02 -0.20645022122E+02  0.41621682193E+02  0.47000000000E+01 0. -1.
        -13    1    4    4    0    0  0.13822652875E+02 -0.18046114140E+02  0.14473395517E+02  0.26948230848E+02  0.00000000000E+00 0.  1.
         14    1    4    4    0    0  0.14008450952E+03  0.54088614642E+02 -0.10953583267E+02  0.15056304004E+03  0.00000000000E+00 0. -1.
         -5    1    5    5    0  502  0.97066610196E+01  0.36723910874E+02  0.41603594912E+03  0.41779285041E+03  0.47000000000E+01 0.  1.
         13    1    6    6    0    0 -0.74252204833E+02  0.14499080046E+02  0.29109026993E+03  0.30076096570E+03  0.00000000000E+00 0. -1.
        -14    1    6    6    0    0 -0.69324665036E+02 -0.57557277358E+02  0.59058097420E+03  0.59741496168E+03  0.00000000000E+00 0.  1.
</event>
<event>
12    1  0.8421768E-002  0.4607767E+03  0.7818608E-02  0.1024729E+00
         21   -1    0    0  503  502  0.00000000000E+00  0.00000000000E+00  0.29691160959E+03  0.29691160959E+03  0.00000000000E+00 0.  1.
         21   -1    0    0  501  503 -0.00000000000E+00 -0.00000000000E+00 -0.78183121482E+03  0.78183121482E+03  0.00000000000E+00 0. -1.
          6    2    1    2  501    0  0.40523025315E+03  0.12786439032E+03 -0.40378974237E+03  0.61087826667E+03  0.17194545723E+03 0.  0.
         24    2    3    3    0    0  0.24925207057E+03  0.14197302499E+03 -0.30154409358E+03  0.42378334501E+03  0.79878336414E+02 0.  0.
         -6    2    1    2    0  502 -0.40523025315E+03 -0.12786439032E+03 -0.81129862862E+02  0.46786455774E+03  0.17819744489E+03 0.  0.
        -24    2    5    5    0    0 -0.30547614476E+03 -0.14006366745E+03 -0.11407372013E+02  0.34545940984E+03  0.79237426481E+02 0.  0.
          5    1    3    3  501    0  0.15597818258E+03 -0.14108634667E+02 -0.10224564879E+03  0.18709492166E+03  0.47000000000E+01 0. -1.
        -13    1    4    4    0    0  0.23647774234E+03  0.12763961596E+03 -0.24346804052E+03  0.36261588621E+03  0.00000000000E+00 0.  1.
         14    1    4    4    0    0  0.12774328233E+02  0.14333409035E+02 -0.58076053063E+02  0.61167458797E+02  0.00000000000E+00 0. -1.
         -5    1    5    5    0  502 -0.99754108392E+02  0.12199277125E+02 -0.69722490848E+02  0.12240514791E+03  0.47000000000E+01 0.  1.
         13    1    6    6    0    0 -0.75460104827E+02 -0.40020102754E+00  0.66725560012E+01  0.75755597713E+02  0.00000000000E+00 0. -1.
        -14    1    6    6    0    0 -0.23001603993E+03 -0.13966346642E+03 -0.18079928015E+02  0.26970381212E+03  0.00000000000E+00 0.  1.
</event>
<event>
12    1  0.8421768E-002  0.1849039E+03  0.7818608E-02  0.1163244E+00
         21   -1    0    0  501  502  0.00000000000E+00  0.00000000000E+00  0.94149158917E+03  0.94149158917E+03  0.00000000000E+00 0.  1.
         21   -1    0    0  502  503 -0.00000000000E+00 -0.00000000000E+00 -0.12726418632E+03  0.12726418632E+03  0.00000000000E+00 0.  1.
         -6    2    1    2    0  503 -0.18479132475E+02  0.64612510997E+02 -0.44990619698E+02  0.18986724189E+03  0.17178230050E+03 0.  0.
        -24    2    3    3    0    0 -0.70024484034E+02  0.97220011302E+01 -0.42556746395E+02  0.11438277276E+03  0.79211087414E+02 0.  0.
          6    2    1    2  501    0  0.18479132475E+02 -0.64612510997E+02  0.85921802255E+03  0.87888853361E+03  0.17225907617E+03 0.  0.
         24    2    5    5    0    0  0.64071829796E+02  0.69619667122E+00  0.55378227401E+03  0.56320355165E+03  0.80110857722E+02 0.  0.
          5    1    5    5  501    0 -0.45592697321E+02 -0.65308707668E+02  0.30543574854E+03  0.31568498195E+03  0.47000000000E+01 0. -1.
        -13    1    6    6    0    0 -0.22915014377E+01 -0.11673077365E+02  0.31053623746E+03  0.31076400449E+03  0.00000000000E+00 0.  1.
         14    1    6    6    0    0  0.66363331234E+02  0.12369274037E+02  0.24324603655E+03  0.25243954716E+03  0.00000000000E+00 0. -1.
         -5    1    3    3    0  503  0.51545351559E+02  0.54890509867E+02 -0.24338733031E+01  0.75484469131E+02  0.47000000000E+01 0.  1.
         11    1    4    4    0    0 -0.44810251214E+02  0.11069655519E+02  0.17398387479E+02  0.49327474840E+02  0.00000000000E+00 0. -1.
        -12    1    4    4    0    0 -0.25214232820E+02 -0.13476543892E+01 -0.59955133874E+02  0.65055297916E+02  0.00000000000E+00 0.  1.
</event>
<event>
12    1  0.8421768E-002  0.1836038E+03  0.7818608E-02  0.1164643E+00
         21   -1    0    0  503  502  0.00000000000E+00  0.00000000000E+00  0.23103570835E+02  0.23103570835E+02  0.00000000000E+00 0.  1.
         21   -1    0    0  501  503 -0.00000000000E+00 -0.00000000000E+00 -0.15769691853E+04  0.15769691853E+04  0.00000000000E+00 0. -1.
          6    2    1    2  501    0 -0.18843406609E+02 -0.58500514517E+02 -0.10066166256E+04  0.10232240110E+04  0.17301144924E+03 0.  0.
         24    2    3    3    0    0  0.58471948962E+01  0.39299323283E+01 -0.20705105759E+03  0.22083110596E+03  0.76463081649E+02 0.  0.
         -6    2    1    2    0  502  0.18843406609E+02  0.58500514517E+02 -0.54724898885E+03  0.57684874513E+03  0.17174293227E+03 0.  0.
        -24    2    5    5    0    0  0.60311793793E+02  0.40495314095E+02 -0.20815896389E+03  0.23472603409E+03  0.80552926074E+02 0.  0.
          5    1    3    3  501    0 -0.24690601506E+02 -0.62430446845E+02 -0.79956556800E+03  0.80239290502E+03  0.47000000000E+01 0. -1.
        -11    1    4    4    0    0 -0.84134278230E+01 -0.34408358135E+02 -0.84137482414E+02  0.91289850610E+02  0.00000000000E+00 0.  1.
         12    1    4    4    0    0  0.14260622719E+02  0.38338290464E+02 -0.12291357517E+03  0.12954125535E+03  0.00000000000E+00 0. -1.
         -5    1    5    5    0  502 -0.41468387184E+02  0.18005200422E+02 -0.33909002496E+03  0.34212271104E+03  0.47000000000E+01 0.  1.
         11    1    6    6    0    0  0.19847295478E+02 -0.23467489167E+02 -0.82426069314E+02  0.87969853291E+02  0.00000000000E+00 0. -1.
        -12    1    6    6    0    0  0.40464498315E+02  0.63962803262E+02 -0.12573289458E+03  0.14675618080E+03  0.00000000000E+00 0.  1.
</event>
<event>
12    1  0.8421768E-002  0.1884369E+03  0.7818608E-02  0.1159999E+00
         21   -1    0    0  501  502  0.00000000000E+00  0.00000000000E+00  0.37769131135E+03  0.37769131135E+03  0.00000000000E+00 0.  1.
         21   -1    0    0  502  503 -0.00000000000E+00 -0.00000000000E+00 -0.21314015461E+03  0.21314015461E+03  0.00000000000E+00 0. -1.
         -6    2    1    2    0  503  0.30261379083E+02  0.72725798898E+02 -0.13877022280E+03  0.23402058920E+03  0.17118314329E+03 0.  0.
        -24    2    3    3    0    0  0.53740016154E+02  0.65670928357E+02 -0.16221111696E+03  0.19977758821E+03  0.79987362244E+02 0.  0.
          6    2    1    2  501    0 -0.30261379083E+02 -0.72725798898E+02  0.30332137953E+03  0.35681087676E+03  0.17060290035E+03 0.  0.
         24    2    5    5    0    0 -0.17014511205E+02 -0.68317133682E+02  0.31832693247E+03  0.33578297966E+03  0.80383139688E+02 0.  0.
          5    1    5    5  501    0 -0.13246867878E+02 -0.44086652162E+01 -0.15005552942E+02  0.21027897105E+02  0.47000000000E+01 0. -1.
        -13    1    6    6    0    0 -0.25043252351E+01 -0.71504563548E+02  0.14371561481E+03  0.16054081161E+03  0.00000000000E+00 0.  1.
         14    1    6    6    0    0 -0.14510185970E+02  0.31874298664E+01  0.17461131766E+03  0.17524216805E+03  0.00000000000E+00 0. -1.
         -5    1    3    3    0  503 -0.23478637071E+02  0.70548705411E+01  0.23440894168E+02  0.34243000985E+02  0.47000000000E+01 0.  1.
         13    1    4    4    0    0  0.74393303830E+01  0.64764999938E+02 -0.64794715785E+02  0.91914112340E+02  0.00000000000E+00 0. -1.
        -14    1    4    4    0    0  0.46300685771E+02  0.90592841884E+00 -0.97416401179E+02  0.10786347587E+03  0.00000000000E+00 0.  1.
</event>
<event>
12    1  0.8421768E-002  0.3694384E+03  0.7818608E-02  0.1054917E+00
         21   -1    0    0  501  502  0.00000000000E+00  0.00000000000E+00  0.22097514998E+03  0.22097514998E+03  0.00000000000E+00 0. -1.
         21   -1    0    0  502  503 -0.00000000000E+00 -0.00000000000E+00 -0.70895788312E+03  0.70895788312E+03  0.00000000000E+00 0.  1.
         -6    2    1    2    0  503 -0.22922950750E+03 -0.23297176474E+03 -0.77008523995E+02  0.37737921459E+03  0.17222876812E+03 0.  0.
        -24    2    3    3    0    0 -0.20498327636E+03 -0.14147446064E+03 -0.10416882954E+02  0.26155100975E+03  0.79165981637E+02 0.  0.
          6    2    1    2  501    0  0.22922950750E+03  0.23297176474E+03 -0.41097420915E+03  0.55255381852E+03  0.17202881009E+03 0.  0.
         24    2    5    5    0    0  0.13431650290E+03  0.16948847572E+03 -0.36063793727E+03  0.42767613159E+03  0.77973619771E+02 0.  0.
          5    1    5    5  501    0  0.94913004594E+02  0.63483289011E+02 -0.50336271876E+02  0.12487768692E+03  0.47000000000E+01 0. -1.
        -13    1    6    6    0    0  0.13021055583E+03  0.14404325958E+03 -0.26436271779E+03  0.32801051209E+03  0.00000000000E+00 0.  1.
         14    1    6    6    0    0  0.41059470716E+01  0.25445216141E+02 -0.96275219478E+02  0.99665619505E+02  0.00000000000E+00 0. -1.
         -5    1    3    3    0  503 -0.24246231137E+02 -0.91497304091E+02 -0.66591641041E+02  0.11582820484E+03  0.47000000000E+01 0.  1.
         13    1    4    4    0    0 -0.17878879061E+03 -0.14790204751E+03  0.15578809743E+01  0.23204067381E+03  0.00000000000E+00 0. -1.
        -14    1    4    4    0    0 -0.26194485748E+02  0.64275868653E+01 -0.11974763928E+02  0.29510335946E+02  0.00000000000E+00 0.  1.
</event>
<event>
12    1  0.8421768E-002  0.2929423E+03  0.7818608E-02  0.1088850E+00
         21   -1    0    0  501  502  0.00000000000E+00  0.00000000000E+00  0.15583153562E+03  0.15583153562E+03  0.00000000000E+00 0.  1.
         21   -1    0    0  502  503 -0.00000000000E+00 -0.00000000000E+00 -0.77522162990E+03  0.77522162990E+03  0.00000000000E+00 0. -1.
         -6    2    1    2    0  503  0.79647318189E+02 -0.22302314590E+03 -0.56037332618E+03  0.63222512917E+03  0.17206780745E+03 0.  0.
        -24    2    3    3    0    0  0.94238046751E+02 -0.11272487441E+03 -0.43314340722E+03  0.46314485140E+03  0.72816450020E+02 0.  0.
          6    2    1    2  501    0 -0.79647318189E+02  0.22302314590E+03 -0.59016768104E+02  0.29882803634E+03  0.17243026847E+03 0.  0.
         24    2    5    5    0    0 -0.83860750075E+02  0.11450228451E+03  0.25379434751E+02  0.16120776377E+03  0.72113998859E+02 0.  0.
          5    1    5    5  501    0  0.42134318862E+01  0.10852086139E+03 -0.84396202855E+02  0.13762027257E+03  0.47000000000E+01 0. -1.
        -11    1    6    6    0    0 -0.42941593190E+01  0.59251118345E+02 -0.51830081676E+01  0.59632192674E+02  0.00000000000E+00 0.  1.
         12    1    6    6    0    0 -0.79566590756E+02  0.55251166164E+02  0.30562442918E+02  0.10157557110E+03  0.00000000000E+00 0. -1.
         -5    1    3    3    0  503 -0.14590728563E+02 -0.11029827149E+03 -0.12722991896E+03  0.16908027777E+03  0.47000000000E+01 0.  1.
         11    1    4    4    0    0  0.64112512234E+02 -0.11482023384E+03 -0.37874803664E+03  0.40092914035E+03  0.00000000000E+00 0. -1.
        -12    1    4    4    0    0  0.30125534517E+02  0.20953594202E+01 -0.54395370580E+02  0.62215711051E+02  0.00000000000E+00 0.  1.
</event>
<event>
12    1  0.8421768E-002  0.4912526E+03  0.7818608E-02  0.1016129E+00
         21   -1    0    0  501  502  0.00000000000E+00  0.00000000000E+00  0.54333215261E+03  0.54333215261E+03  0.00000000000E+00 0.  1.
         21   -1    0    0  502  503 -0.00000000000E+00 -0.00000000000E+00 -0.44369051010E+03  0.44369051010E+03  0.00000000000E+00 0. -1.
         -6    2    1    2    0  503  0.37990388607E+03  0.25898163446E+03  0.43268534477E+02  0.49315438946E+03  0.17300472865E+03 0.  0.
        -24    2    3    3    0    0  0.28455679284E+03  0.12000670956E+03  0.58997221010E+02  0.32381868880E+03  0.77483497874E+02 0.  0.
          6    2    1    2  501    0 -0.37990388607E+03 -0.25898163446E+03  0.56373108033E+02  0.49386827325E+03  0.17125856001E+03 0.  0.
         24    2    5    5    0    0 -0.10585610839E+03 -0.10985965991E+03  0.59478976301E+02  0.18182455170E+03  0.79042763228E+02 0.  0.
          5    1    5    5  501    0 -0.27404777768E+03 -0.14912197454E+03 -0.31058682680E+01  0.31204372155E+03  0.47000000000E+01 0. -1.
        -13    1    6    6    0    0 -0.10762111418E+03 -0.10734372658E+03  0.33482729476E+02  0.15564727119E+03  0.00000000000E+00 0.  1.
         14    1    6    6    0    0  0.17650057944E+01 -0.25159333319E+01  0.25996246825E+02  0.26177280512E+02  0.00000000000E+00 0. -1.
         -5    1    3    3    0  503  0.95347093230E+02  0.13897492490E+03 -0.15728686533E+02  0.16933570066E+03  0.47000000000E+01 0.  1.
         11    1    4    4    0    0  0.18849808024E+03  0.38566273284E+02  0.32576013648E+02  0.19514118057E+03  0.00000000000E+00 0. -1.
        -12    1    4    4    0    0  0.96058712596E+02  0.81440436278E+02  0.26421207362E+02  0.12867750823E+03  0.00000000000E+00 0.  1.
</event>
<event>
12    1  0.8421768E-002  0.1916519E+03  0.7818608E-02  0.1157589E+00
         21   -1    0    0  501  502  0.00000000000E+00  0.00000000000E+00  0.57957290239E+02  0.57957290239E+02  0.00000000000E+00 0. -1.
         21   -1    0    0  502  503 -0.00000000000E+00 -0.00000000000E+00 -0.63923255263E+03  0.63923255263E+03  0.00000000000E+00 0.  1.
         -6    2    1    2    0  503 -0.62029199301E+02 -0.28273008253E+02 -0.34096905653E+03  0.38981790444E+03  0.17621327008E+03 0.  0.
        -24    2    3    3    0    0  0.14353357030E+01 -0.64508160506E+02 -0.26595854660E+03  0.28498756503E+03  0.79502205950E+02 0.  0.
          6    2    1    2  501    0  0.62029199301E+02  0.28273008253E+02 -0.24030620587E+03  0.30737193843E+03  0.17911854006E+03 0.  0.
         24    2    5    5    0    0  0.79447499900E+02  0.28110886702E+02 -0.25535839105E+03  0.28387551832E+03  0.90968537572E+02 0.  0.
          5    1    5    5  501    0 -0.17418300600E+02  0.16212155067E+00  0.15052185186E+02  0.23496420111E+02  0.47000000000E+01 0. -1.
        -13    1    6    6    0    0  0.62169704097E+01 -0.18603447270E+02 -0.12935512957E+03  0.13083382023E+03  0.00000000000E+00 0.  1.
         14    1    6    6    0    0  0.73230529491E+02  0.46714333972E+02 -0.12600326149E+03  0.15304169809E+03  0.00000000000E+00 0. -1.
         -5    1    3    3    0  503 -0.63464535004E+02  0.36235152254E+02 -0.75010509932E+02  0.10483033942E+03  0.47000000000E+01 0.  1.
         13    1    4    4    0    0 -0.58183364847E+01 -0.42645672922E+02 -0.42992020353E+02  0.60834367527E+02  0.00000000000E+00 0. -1.
        -14    1    4    4    0    0  0.72536721876E+01 -0.21862487585E+02 -0.22296652624E+03  0.22415319750E+03  0.00000000000E+00 0.  1.
</event>
<event>
12    1  0.8421768E-002  0.2337992E+03  0.7818608E-02  0.1125755E+00
         21   -1    0    0  503  502  0.00000000000E+00  0.00000000000E+00  0.84252261077E+02  0.84252261077E+02  0.00000000000E+00 0.  1.
         21   -1    0    0  501  503 -0.00000000000E+00 -0.00000000000E+00 -0.91981200365E+03  0.91981200365E+03  0.00000000000E+00 0.  1.
          6    2    1    2  501    0 -0.15579027749E+03 -0.16303206409E+02 -0.70985508989E+03  0.74736624121E+03  0.17356740695E+03 0.  0.
         24    2    3    3    0    0 -0.89260531436E+02 -0.62103690245E+02 -0.56827071175E+03  0.58429534386E+03  0.81517704866E+02 0.  0.
         -6    2    1    2    0  502  0.15579027749E+03  0.16303206409E+02 -0.12570465268E+03  0.25669802352E+03  0.15986184809E+03 0.  0.
        -24    2    5    5    0    0  0.92177253347E+02  0.62441897008E+02 -0.11197240455E+03  0.17678519446E+03  0.79495591452E+02 0.  0.
          5    1    3    3  501    0 -0.66529746051E+02  0.45800483836E+02 -0.14158437813E+03  0.16307089734E+03  0.47000000000E+01 0. -1.
        -13    1    4    4    0    0 -0.54169304709E+02  0.65971067416E+01 -0.16741863981E+03  0.17608758146E+03  0.00000000000E+00 0.  1.
         14    1    4    4    0    0 -0.35091226728E+02 -0.68700796987E+02 -0.40085207195E+03  0.40820776240E+03  0.00000000000E+00 0. -1.
         -5    1    5    5    0  502  0.63613024139E+02 -0.46138690599E+02 -0.13732248129E+02  0.79912829064E+02  0.47000000000E+01 0.  1.
         11    1    6    6    0    0 -0.63521858155E+01  0.22049309297E+02 -0.46303343352E+02  0.51677092707E+02  0.00000000000E+00 0. -1.
        -12    1    6    6    0    0  0.98529439163E+02  0.40392587711E+02 -0.65669061202E+02  0.12510810175E+03  0.00000000000E+00 0.  1.
</event>
<event>
12    1  0.8421768E-002  0.1954380E+03  0.7818608E-02  0.1154147E+00
         21   -1    0    0  503  502  0.00000000000E+00  0.00000000000E+00  0.26387455185E+02  0.26387455185E+02  0.00000000000E+00 0.  1.
         21   -1    0    0  501  503 -0.00000000000E+00 -0.00000000000E+00 -0.14310178174E+04  0.14310178174E+04  0.00000000000E+00 0. -1.
          6    2    1    2  501    0  0.93483945312E+02  0.76381751842E+01 -0.69384894209E+03  0.72084835773E+03  0.17145964729E+03 0.  0.
         24    2    3    3    0    0  0.38271713838E+02  0.55730261926E+02 -0.53974501054E+03  0.55016926988E+03  0.82407299040E+02 0.  0.
         -6    2    1    2    0  502 -0.93483945312E+02 -0.76381751842E+01 -0.71078142014E+03  0.73655691487E+03  0.16884392758E+03 0.  0.
        -24    2    5    5    0    0 -0.17178857393E+02 -0.35389578245E+02 -0.53718046391E+03  0.54484883257E+03  0.82157556950E+02 0.  0.
          5    1    3    3  501    0  0.55212231474E+02 -0.48092086742E+02 -0.15410393155E+03  0.17067908785E+03  0.47000000000E+01 0. -1.
        -13    1    4    4    0    0  0.33480557335E+02  0.41316565808E+02 -0.13438106628E+03  0.14452085422E+03  0.00000000000E+00 0.  1.
         14    1    4    4    0    0  0.47911565029E+01  0.14413696118E+02 -0.40536394426E+03  0.40564841566E+03  0.00000000000E+00 0. -1.
         -5    1    5    5    0  502 -0.76305087919E+02  0.27751403060E+02 -0.17360095623E+03  0.19170808230E+03  0.47000000000E+01 0.  1.
         11    1    6    6    0    0  0.24720115582E+02  0.56474285635E+01 -0.80011408777E+02  0.83933325314E+02  0.00000000000E+00 0. -1.
        -12    1    6    6    0    0 -0.41898972975E+02 -0.41037006808E+02 -0.45716905513E+03  0.46091550726E+03  0.00000000000E+00 0.  1.
</event>
<event>
12    1  0.8421768E-002  0.1997448E+03  0.7818608E-02  0.1152835E+00
         21   -1    0    0  503  502  0.00000000000E+00  0.00000000000E+00  0.12994902041E+04  0.12994902041E+04  0.00000000000E+00 0. -1.
         21   -1    0    0  501  503 -0.00000000000E+00 -0.00000000000E+00 -0.46762903121E+02  0.46762903121E+02  0.00000000000E+00 0. -1.
          6    2    1    2  501    0  0.69590259011E+02  0.29911384330E+02  0.22142769112E+03  0.29820831598E+03  0.18482554549E+03 0.  0.
         24    2    3    3    0    0 -0.27938715754E+01  0.18270095944E+02  0.16634511095E+02  0.80636905778E+02  0.76707245355E+02 0.  0.
         -6    2    1    2    0  502 -0.69590259011E+02 -0.29911384330E+02  0.10312996099E+04  0.10480447912E+04  0.17053299995E+03 0.  0.
        -24    2    5    5    0    0 -0.78418960786E+02 -0.59138545379E+02  0.49900440785E+03  0.51485397642E+03  0.80139360004E+02 0.  0.
          5    1    3    3  501    0  0.72384130586E+02  0.11641288386E+02  0.20479318002E+03  0.21757141021E+03  0.47000000000E+01 0. -1.
        -11    1    4    4    0    0 -0.79308247660E+01 -0.93566939988E+01  0.41401277973E+02  0.43179989832E+02  0.00000000000E+00 0.  1.
         12    1    4    4    0    0  0.51369531907E+01  0.27626789943E+02 -0.24766766878E+02  0.37456915946E+02  0.00000000000E+00 0. -1.
         -5    1    5    5    0  502  0.88287017757E+01  0.29227161050E+02  0.53229520202E+03  0.53319081483E+03  0.47000000000E+01 0.  1.
         13    1    6    6    0    0  0.14535453824E+02 -0.20410020951E+02  0.75806206353E+02  0.79840023138E+02  0.00000000000E+00 0. -1.
        -14    1    6    6    0    0 -0.92954414610E+02 -0.38728524428E+02  0.42319820150E+03  0.43501395328E+03  0.00000000000E+00 0.  1.
</event>
<event>
12    1  0.8421768E-002  0.1934437E+03  0.7818608E-02  0.1156348E+00
         21   -1    0    0  501  502  0.00000000000E+00  0.00000000000E+00  0.52841575860E+03  0.52841575860E+03  0.00000000000E+00 0.  1.
         21   -1    0    0  502  503 -0.00000000000E+00 -0.00000000000E+00 -0.69340100057E+02  0.69340100057E+02  0.00000000000E+00 0.  1.
         -6    2    1    2    0  503 -0.76803894889E+02 -0.10393625316E+02  0.21646639136E+03  0.28746614987E+03  0.17254629237E+03 0.  0.
        -24    2    3    3    0    0  0.15821807855E+02 -0.22886261523E+02  0.25905427018E+02  0.75166460982E+02  0.64844391718E+02 0.  0.
          6    2    1    2  501    0  0.76803894889E+02  0.10393625316E+02  0.24260926718E+03  0.31028970879E+03  0.17723876873E+03 0.  0.
         24    2    5    5    0    0  0.79915631036E+02 -0.31893389788E+02  0.78722141968E+02  0.14094109097E+03  0.79142397558E+02 0.  0.
          5    1    5    5  501    0 -0.31117361471E+01  0.42287015104E+02  0.16388712521E+03  0.16934861782E+03  0.47000000000E+01 0. -1.
        -13    1    6    6    0    0  0.14306881315E+02  0.22135251901E+02  0.19822450285E+01  0.26430768529E+02  0.00000000000E+00 0.  1.
         14    1    6    6    0    0  0.65608749721E+02 -0.54028641689E+02  0.76739896939E+02  0.11451032244E+03  0.00000000000E+00 0. -1.
         -5    1    3    3    0  503 -0.92625702744E+02  0.12492636207E+02  0.19056096434E+03  0.21229968888E+03  0.47000000000E+01 0.  1.
         13    1    4    4    0    0  0.18416625163E+02  0.20211716140E+02  0.87922021417E+01  0.28722610784E+02  0.00000000000E+00 0. -1.
        -14    1    4    4    0    0 -0.25948173079E+01 -0.43097977664E+02  0.17113224876E+02  0.46443850198E+02  0.00000000000E+00 0.  1.
</event>
<event>
12    1  0.8421768E-002  0.2551603E+03  0.7818608E-02  0.1110542E+00
         21   -1    0    0  501  502  0.00000000000E+00  0.00000000000E+00  0.82822631471E+02  0.82822631471E+02  0.00000000000E+00 0.  1.
         21   -1    0    0  502  503 -0.00000000000E+00 -0.00000000000E+00 -0.88910063664E+03  0.88910063664E+03  0.00000000000E+00 0. -1.
         -6    2    1    2    0  503  0.12127221920E+03  0.13976735715E+03 -0.57360414722E+03  0.62660618407E+03  0.17138181621E+03 0.  0.
        -24    2    3    3    0    0  0.47431392532E+02  0.10990430129E+03 -0.49127132812E+03  0.51195430711E+03  0.80131156842E+02 0.  0.
          6    2    1    2  501    0 -0.12127221920E+03 -0.13976735715E+03 -0.23267385795E+03  0.34531708405E+03  0.17568408888E+03 0.  0.
         24    2    5    5    0    0 -0.12871698670E+03 -0.60915476907E+02 -0.20406524602E+03  0.26097500524E+03  0.78654756582E+02 0.  0.
          5    1    5    5  501    0  0.74447674973E+01 -0.78851880245E+02 -0.28608611932E+02  0.84342078810E+02  0.47000000000E+01 0. -1.
        -11    1    6    6    0    0 -0.17047238839E+02 -0.16166188632E+02  0.67869924850E+00  0.23503502709E+02  0.00000000000E+00 0.  1.
         12    1    6    6    0    0 -0.11166974786E+03 -0.44749288275E+02 -0.20474394527E+03  0.23747150253E+03  0.00000000000E+00 0. -1.
         -5    1    3    3    0  503  0.73840826671E+02  0.29863055859E+02 -0.82332819102E+02  0.11465187696E+03  0.47000000000E+01 0.  1.
         11    1    4    4    0    0  0.24878478791E+02  0.11907436661E+02 -0.23575000797E+03  0.23735794070E+03  0.00000000000E+00 0. -1.
        -12    1    4    4    0    0  0.22552913740E+02  0.97996864632E+02 -0.25552132015E+03  0.27459636641E+03  0.00000000000E+00 0.  1.
</event>
<event>
12    1  0.8421768E-002  0.1874112E+03  0.7818608E-02  0.1162295E+00
         21   -1    0    0  501  502  0.00000000000E+00  0.00000000000E+00  0.54070453939E+03  0.54070453939E+03  0.00000000000E+00 0. -1.
         21   -1    0    0  502  503 -0.00000000000E+00 -0.00000000000E+00 -0.71591102241E+02  0.71591102241E+02  0.00000000000E+00 0. -1.
         -6    2    1    2    0  503  0.94345239101E+00 -0.75164518229E+02  0.33838287653E+03  0.38379300282E+03  0.16475285424E+03 0.  0.
        -24    2    3    3    0    0 -0.59272642210E+02 -0.64218737272E+02  0.22164446247E+03  0.25190010882E+03  0.81793060520E+02 0.  0.
          6    2    1    2  501    0 -0.94345239101E+00  0.75164518229E+02  0.13073056062E+03  0.22850263881E+03  0.17167522116E+03 0.  0.
         24    2    5    5    0    0  0.49412399517E+02  0.93171558246E+02  0.11183256169E+03  0.17158875935E+03  0.76247334321E+02 0.  0.
          5    1    5    5  501    0 -0.50355851908E+02 -0.18007040017E+02  0.18897998936E+02  0.56913879461E+02  0.47000000000E+01 0. -1.
        -13    1    6    6    0    0 -0.43402997821E+01 -0.10383398631E+02  0.21578221900E+01  0.11459029886E+02  0.00000000000E+00 0.  1.
         14    1    6    6    0    0  0.53752699299E+02  0.10355495688E+03  0.10967473950E+03  0.16012972947E+03  0.00000000000E+00 0. -1.
         -5    1    3    3    0  503  0.60216094601E+02 -0.10945780958E+02  0.11673841406E+03  0.13189289400E+03  0.47000000000E+01 0.  1.
         11    1    4    4    0    0 -0.44416780333E+02 -0.79736514494E+02  0.13735113025E+03  0.16491238613E+03  0.00000000000E+00 0. -1.
        -12    1    4    4    0    0 -0.14855861876E+02  0.15517777222E+02  0.84293332214E+02  0.86987722684E+02  0.00000000000E+00 0.  1.
</event>
<event>
12    1  0.8421768E-002  0.2466976E+03  0.7818608E-02  0.1115426E+00
         21   -1    0    0  503  502  0.00000000000E+00  0.00000000000E+00  0.23276575110E+03  0.23276575110E+03  0.00000000000E+00 0.  1.
         21   -1    0    0  501  503 -0.00000000000E+00 -0.00000000000E+00 -0.87401753618E+03  0.87401753618E+03  0.00000000000E+00 0. -1.
          6    2    1    2  501    0 -0.15787010107E+03 -0.80564322905E+02 -0.78392749673E+03  0.82179896229E+03  0.17145738644E+03 0.  0.
         24    2    3    3    0    0 -0.89828015122E+02 -0.39325785297E+02 -0.67169849382E+03  0.68414802137E+03  0.85229448264E+02 0.  0.
         -6    2    1    2    0  502  0.15787010107E+03  0.80564322905E+02  0.14267571165E+03  0.28498432498E+03  0.17159874083E+03 0.  0.
        -24    2    5    5    0    0  0.18131438755E+03  0.66857813535E+02  0.92262048078E+02  0.22752886013E+03  0.76890976803E+02 0.  0.
          5    1    3    3  501    0 -0.68042085951E+02 -0.41238537608E+02 -0.11222900291E+03  0.13765094093E+03  0.47000000000E+01 0. -1.
        -11    1    4    4    0    0 -0.36870699640E+02 -0.60307426128E+02 -0.43406596482E+03  0.43978369223E+03  0.00000000000E+00 0.  1.
         12    1    4    4    0    0 -0.52957315482E+02  0.20981640831E+02 -0.23763252900E+03  0.24436432914E+03  0.00000000000E+00 0. -1.
         -5    1    5    5    0  502 -0.23444286476E+02  0.13706509370E+02  0.50413663567E+02  0.57455464855E+02  0.47000000000E+01 0.  1.
         13    1    6    6    0    0  0.53608522629E+02  0.12159357142E+02 -0.88824641706E+01  0.55683227585E+02  0.00000000000E+00 0. -1.
        -14    1    6    6    0    0  0.12770586492E+03  0.54698456393E+02  0.10114451225E+03  0.17184563254E+03  0.00000000000E+00 0.  1.
</event>
<event>
12    1  0.8421768E-002  0.2213873E+03  0.7818608E-02  0.1132865E+00
         21   -1    0    0  503  502  0.00000000000E+00  0.00000000000E+00  0.74018854225E+03  0.74018854225E+03  0.00000000000E+00 0.  1.
         21   -1    0    0  501  503 -0.00000000000E+00 -0.00000000000E+00 -0.74251175308E+02  0.74251175308E+02  0.00000000000E+00 0. -1.
          6    2    1    2  501    0  0.94079296963E+02 -0.10255948723E+03  0.46712747282E+03  0.51693366636E+03  0.17217135947E+03 0.  0.
         24    2    3    3    0    0  0.10688329073E+03 -0.86325493042E+02  0.46943375741E+03  0.49560542751E+03  0.79878398810E+02 0.  0.
         -6    2    1    2    0  502 -0.94079296963E+02  0.10255948723E+03  0.19880989412E+03  0.29750605120E+03  0.17209042379E+03 0.  0.
        -24    2    5    5    0    0 -0.21374124725E+02  0.10859196621E+01  0.34471817175E+02  0.91079259040E+02  0.81541969676E+02 0.  0.
          5    1    3    3  501    0 -0.12803993767E+02 -0.16233994185E+02 -0.23062845984E+01  0.21328238845E+02  0.47000000000E+01 0. -1.
        -13    1    4    4    0    0  0.11908028435E+03 -0.72590847261E+02  0.39353926340E+03  0.41751969662E+03  0.00000000000E+00 0.  1.
         14    1    4    4    0    0 -0.12196993619E+02 -0.13734645781E+02  0.75894494011E+02  0.78085730894E+02  0.00000000000E+00 0. -1.
         -5    1    5    5    0  502 -0.72705172238E+02  0.10147356756E+03  0.16433807695E+03  0.20642679216E+03  0.47000000000E+01 0.  1.
         11    1    6    6    0    0  0.53085832741E+01 -0.10237122615E+02 -0.23549062170E+02  0.26220947063E+02  0.00000000000E+00 0. -1.
        -12    1    6    6    0    0 -0.26682707999E+02  0.11323042277E+02  0.58020879345E+02  0.64858311977E+02  0.00000000000E+00 0.  1.
</event>
<event>
12    1  0.8421768E-002  0.2430280E+03  0.7818608E-02  0.1119576E+00
         21   -1    0    0  501  502  0.00000000000E+00  0.00000000000E+00  0.17044457778E+03  0.17044457778E+03  0.00000000000E+00 0.  1.
         21   -1    0    0  502  503 -0.00000000000E+00 -0.00000000000E+00 -0.34424560472E+03  0.34424560472E+03  0.00000000000E+00 0. -1.
         -6    2    1    2    0  503 -0.14440302612E+03  0.61750234164E+02 -0.13822721251E+03  0.27958786918E+03  0.18546506125E+03 0.  0.
        -24    2    3    3    0    0 -0.14435897784E+03 -0.10109958372E+02 -0.12312978508E+03  0.20600858184E+03  0.79604435018E+02 0.  0.
          6    2    1    2  501    0  0.14440302612E+03 -0.61750234164E+02 -0.35573814434E+02  0.23510231332E+03  0.17129587293E+03 0.  0.
         24    2    5    5    0    0  0.71192413026E+02  0.13043517672E+02  0.29644010932E+02  0.11169504478E+03  0.79740344986E+02 0.  0.
          5    1    5    5  501    0  0.73210613097E+02 -0.74793751837E+02 -0.65217825366E+02  0.12340726854E+03  0.47000000000E+01 0. -1.
        -13    1    6    6    0    0  0.72559920396E+02  0.11782714820E+02  0.51502988267E+02  0.89757073352E+02  0.00000000000E+00 0.  1.
         14    1    6    6    0    0 -0.13675073694E+01  0.12608028520E+01 -0.21858977335E+02  0.21937971427E+02  0.00000000000E+00 0. -1.
         -5    1    3    3    0  503 -0.44048279124E-01  0.71860192536E+02 -0.15097427430E+02  0.73579287348E+02  0.47000000000E+01 0.  1.
         11    1    4    4    0    0 -0.59766541141E+01 -0.18175746701E+02 -0.40089954320E+02  0.44421645624E+02  0.00000000000E+00 0. -1.
        -12    1    4    4    0    0 -0.13838232373E+03  0.80657883291E+01 -0.83039830756E+02  0.16158693621E+03  0.00000000000E+00 0.  1.
</event>
<event>
12    1  0.8421768E-002  0.2321936E+03  0.7818608E-02  0.1125375E+00
         21   -1    0    0  501  502  0.00000000000E+00  0.00000000000E+00  0.16496965873E+03  0.16496965873E+03  0.00000000000E+00 0. -1.
         21   -1    0    0  502  503 -0.00000000000E+00 -0.00000000000E+00 -0.38128228614E+03  0.38128228614E+03  0.00000000000E+00 0. -1.
         -6    2    1    2    0  503  0.73654873823E+02  0.13839400379E+03 -0.21312130422E+03  0.31403639835E+03  0.16917514135E+03 0.  0.
        -24    2    3    3    0    0  0.25432393223E+02  0.40391803738E+02 -0.16710431445E+03  0.19542150806E+03  0.89372308183E+02 0.  0.
          6    2    1    2  501    0 -0.73654873823E+02 -0.13839400379E+03 -0.31913231913E+01  0.23221554652E+03  0.17127736213E+03 0.  0.
         24    2    5    5    0    0 -0.26697809239E+02 -0.15424789103E+03  0.20315899774E+02  0.17716110813E+03  0.80424732168E+02 0.  0.
          5    1    5    5  501    0 -0.46957064583E+02  0.15853887239E+02 -0.23507222965E+02  0.55054438389E+02  0.47000000000E+01 0. -1.
        -11    1    6    6    0    0  0.13652227231E+02 -0.21542929221E+02 -0.20339660410E+02  0.32621816219E+02  0.00000000000E+00 0.  1.
         12    1    6    6    0    0 -0.40350036471E+02 -0.13270496181E+03  0.40655560184E+02  0.14453929191E+03  0.00000000000E+00 0. -1.
         -5    1    3    3    0  503  0.48222480600E+02  0.98002200053E+02 -0.46016989771E+02  0.11861489029E+03  0.47000000000E+01 0.  1.
         11    1    4    4    0    0 -0.16770720948E+02  0.35969982220E+02 -0.13892577988E+03  0.14448345586E+03  0.00000000000E+00 0. -1.
        -12    1    4    4    0    0  0.42203114171E+02  0.44218215182E+01 -0.28178534569E+02  0.50938052198E+02  0.00000000000E+00 0.  1.
</event>
<event>
12    1  0.8421768E-002  0.1860672E+03  0.7818608E-02  0.1162163E+00
         21   -1    0    0  503  502  0.00000000000E+00  0.00000000000E+00  0.43213497794E+02  0.43213497794E+02  0.00000000000E+00 0. -1.
         21   -1    0    0  501  503 -0.00000000000E+00 -0.00000000000E+00 -0.83251235539E+03  0.83251235539E+03  0.00000000000E+00 0. -1.
          6    2    1    2  501    0  0.65155013011E+02 -0.30147505132E+02 -0.48271828075E+03  0.51733735692E+03  0.17165941427E+03 0.  0.
         24    2    3    3    0    0  0.91561381067E+02 -0.67651163218E+02 -0.38899017449E+03  0.41288225390E+03  0.78728859689E+02 0.  0.
         -6    2    1    2    0  502 -0.65155013011E+02  0.30147505132E+02 -0.30658057685E+03  0.35838849627E+03  0.17116254371E+03 0.  0.
        -24    2    5    5    0    0 -0.10293488147E+03  0.36459783879E+02 -0.28044919959E+03  0.31178267902E+03  0.81435739863E+02 0.  0.
          5    1    3    3  501    0 -0.26406368056E+02  0.37503658086E+02 -0.93728106260E+02  0.10445510302E+03  0.47000000000E+01 0. -1.
        -13    1    4    4    0    0 -0.92978426978E+01 -0.27815976154E+02 -0.67522283953E+02  0.73616827142E+02  0.00000000000E+00 0.  1.
         14    1    4    4    0    0  0.10085922376E+03 -0.39835187064E+02 -0.32146789054E+03  0.33926542676E+03  0.00000000000E+00 0. -1.
         -5    1    5    5    0  502  0.37779868456E+02 -0.63122787467E+01 -0.26131377262E+02  0.46605817246E+02  0.47000000000E+01 0.  1.
         11    1    6    6    0    0 -0.75369531277E+02  0.39519342213E+02 -0.26835507060E+03  0.28152582221E+03  0.00000000000E+00 0. -1.
        -12    1    6    6    0    0 -0.27565350189E+02 -0.30595583341E+01 -0.12094128986E+02  0.30256856813E+02  0.00000000000E+00 0.  1.
</event>
<event>
12    1  0.8421768E-002  0.1998843E+03  0.7818608E-02  0.1150237E+00
         21   -1    0    0  501  502  0.00000000000E+00  0.00000000000E+00  0.22914581574E+03  0.22914581574E+03  0.00000000000E+00 0.  1.
         21   -1    0    0  502  503 -0.00000000000E+00 -0.00000000000E+00 -0.62496836485E+03  0.62496836485E+03  0.00000000000E+00 0.  1.
         -6    2    1    2    0  503  0.61213480371E+02 -0.77708771800E+02 -0.56093465529E+03  0.59485421428E+03  0.17151707014E+03 0.  0.
        -24    2    3    3    0    0  0.74428220928E+02 -0.80914524963E+02 -0.25189575741E+03  0.28548059449E+03  0.77207362392E+02 0.  0.
          6    2    1    2  501    0 -0.61213480371E+02  0.77708771800E+02  0.16511210618E+03  0.25925996631E+03  0.17368931784E+03 0.  0.
         24    2    5    5    0    0 -0.26797682842E+02 -0.15024334450E+02  0.12023079244E+03  0.15053877042E+03  0.85221074362E+02 0.  0.
          5    1    5    5  501    0 -0.34415797529E+02  0.92733106250E+02  0.44881313732E+02  0.10872119589E+03  0.47000000000E+01 0. -1.
        -11    1    6    6    0    0 -0.53572246841E+02  0.93432956498E+01  0.73003802486E+02  0.91032071176E+02  0.00000000000E+00 0.  1.
         12    1    6    6    0    0  0.26774563998E+02 -0.24367630100E+02  0.47226989958E+02  0.59506699241E+02  0.00000000000E+00 0. -1.
         -5    1    3    3    0  503 -0.13214740557E+02  0.32057531631E+01 -0.30903889788E+03  0.30937361979E+03  0.47000000000E+01 0.  1.
         13    1    4    4    0    0  0.50980771046E+02 -0.63543252677E+02 -0.24089038316E+03  0.25429306061E+03  0.00000000000E+00 0. -1.
        -14    1    4    4    0    0  0.23447449882E+02 -0.17371272286E+02 -0.11005374250E+02  0.31187533874E+02  0.00000000000E+00 0.  1.
</event>
<event>
12    1  0.8421768E-002  0.2262016E+03  0.7818608E-02  0.1129730E+00
         21   -1    0    0  501  502  0.00000000000E+00  0.00000000000E+00  0.80584903448E+03  0.80584903448E+03  0.00000000000E+00 0.  1.
         21   -1    0    0  502  503 -0.00000000000E+00 -0.00000000000E+00 -0.71836954059E+02  0.71836954059E+02  0.00000000000E+00 0.  1.
         -6    2    1    2    0  503 -0.24251585879E+02  0.14306985757E+03  0.21369903335E+03  0.31118234720E+03  0.17352248497E+03 0.  0.
        -24    2    3    3    0    0  0.53524632024E+02  0.92269878103E+02  0.12099040979E+03  0.17985543881E+03  0.79565589102E+02 0.  0.
          6    2    1    2  501    0  0.24251585879E+02 -0.14306985757E+03  0.52031304707E+03  0.56650364134E+03  0.17071492359E+03 0.  0.
         24    2    5    5    0    0  0.27403841342E+02 -0.12100422645E+03  0.52320403259E+03  0.54354113737E+03  0.79382082111E+02 0.  0.
          5    1    5    5  501    0 -0.31522554632E+01 -0.22065631119E+02 -0.28909855179E+01  0.22962503967E+02  0.47000000000E+01 0. -1.
        -13    1    6    6    0    0 -0.45761322060E+01 -0.11423971736E+03  0.42007332764E+03  0.43535417146E+03  0.00000000000E+00 0.  1.
         14    1    6    6    0    0  0.31979973548E+02 -0.67645090910E+01  0.10313070494E+03  0.10818696591E+03  0.00000000000E+00 0. -1.
         -5    1    3    3    0  503 -0.77776217903E+02  0.50799979466E+02  0.92708623556E+02  0.13132690839E+03  0.47000000000E+01 0.  1.
         13    1    4    4    0    0  0.37974058450E+02  0.12470581762E+02  0.78573390388E+02  0.88155103095E+02  0.00000000000E+00 0. -1.
        -14    1    4    4    0    0  0.15550573575E+02  0.79799296341E+02  0.42417019405E+02  0.91700335715E+02  0.00000000000E+00 0.  1.
</event>
<event>
12    1  0.8421768E-002  0.2104512E+03  0.7818608E-02  0.1141245E+00
         21   -1    0    0  503  502  0.00000000000E+00  0.00000000000E+00  0.28820780393E+03  0.28820780393E+03  0.00000000000E+00 0.  1.
         21   -1    0    0  501  503 -0.00000000000E+00 -0.00000000000E+00 -0.17037498145E+03  0.17037498145E+03  0.00000000000E+00 0. -1.
          6    2    1    2  501    0 -0.43585640631E+02 -0.11522318085E+03 -0.13136781032E+02  0.21086077829E+03  0.17062708850E+03 0.  0.
         24    2    3    3    0    0  0.16411307014E+02 -0.54540199923E+02 -0.57663909167E+02  0.11449266613E+03  0.80867049977E+02 0.  0.
         -6    2    1    2    0  502  0.43585640631E+02  0.11522318085E+03  0.13096960351E+03  0.24772200709E+03  0.17040265926E+03 0.  0.
        -24    2    5    5    0    0  0.83639344736E+01  0.10509568882E+03  0.26203493491E+02  0.13663122221E+03  0.82863795487E+02 0.  0.
          5    1    3    3  501    0 -0.59996947646E+02 -0.60682980923E+02  0.44527128135E+02  0.96368112156E+02  0.47000000000E+01 0. -1.
        -11    1    4    4    0    0 -0.63484642258E+01 -0.17480664752E+02 -0.67405910207E+02  0.69924483330E+02  0.00000000000E+00 0.  1.
         12    1    4    4    0    0  0.22759771240E+02 -0.37059535171E+02  0.97420010398E+01  0.44568182802E+02  0.00000000000E+00 0. -1.
         -5    1    5    5    0  502  0.35221706158E+02  0.10127492030E+02  0.10476611002E+03  0.11109078489E+03  0.47000000000E+01 0.  1.
         11    1    6    6    0    0  0.26995358808E+02  0.58765232563E+02 -0.20921999369E+02  0.67969346127E+02  0.00000000000E+00 0. -1.
        -12    1    6    6    0    0 -0.18631424334E+02  0.46330456254E+02  0.47125492860E+02  0.68661876079E+02  0.00000000000E+00 0.  1.
</event>
<event>
12    1  0.8421768E-002  0.1777670E+03  0.7818608E-02  0.1170022E+00
         21   -1    0    0  503  502  0.00000000000E+00  0.00000000000E+00  0.36333213354E+03  0.36333213354E+03  0.00000000000E+00 0.  1.
         21   -1    0    0  501  503 -0.00000000000E+00 -0.00000000000E+00 -0.87944165930E+02  0.87944165930E+02  0.00000000000E+00 0.  1.
          6    2    1    2  501    0  0.30560089031E+02 -0.36807333032E+02  0.11312268703E+03  0.21070798527E+03  0.17120868532E+03 0.  0.
         24    2    3    3    0    0  0.21378002647E+02  0.43734184596E+02  0.20153832514E+02  0.87271585931E+02  0.69573377426E+02 0.  0.
         -6    2    1    2    0  502 -0.30560089031E+02  0.36807333032E+02  0.16226528057E+03  0.24056831419E+03  0.17103915840E+03 0.  0.
        -24    2    5    5    0    0 -0.87502345681E+01 -0.17265251378E+01  0.17636282796E+03  0.19386329498E+03  0.79997390948E+02 0.  0.
          5    1    3    3  501    0  0.91820863843E+01 -0.80541517628E+02  0.92968854519E+02  0.12343639934E+03  0.47000000000E+01 0. -1.
        -11    1    4    4    0    0  0.31089592120E+02  0.11987915887E+02 -0.17032946986E+02  0.37421840529E+02  0.00000000000E+00 0.  1.
         12    1    4    4    0    0 -0.97115894734E+01  0.31746268709E+02  0.37186779501E+02  0.49849745402E+02  0.00000000000E+00 0. -1.
         -5    1    5    5    0  502 -0.21809854463E+02  0.38533858170E+02 -0.14097547392E+02  0.46705019212E+02  0.47000000000E+01 0.  1.
         13    1    6    6    0    0  0.29775773136E+02 -0.18875579334E+02  0.54485078517E+02  0.64896131950E+02  0.00000000000E+00 0. -1.
        -14    1    6    6    0    0 -0.38526007704E+02  0.17149054196E+02  0.12187774945E+03  0.12896716303E+03  0.00000000000E+00 0.  1.
</event>
<event>
12    1  0.8421768E-002  0.1855122E+03  0.7818608E-02  0.1164415E+00
         21   -1    0    0  501  502  0.00000000000E+00  0.00000000000E+00  0.46909189422E+03  0.46909189422E+03  0.00000000000E+00 0. -1.
         21   -1    0    0  502  503 -0.00000000000E+00 -0.00000000000E+00 -0.77653883898E+02  0.77653883898E+02  0.00000000000E+00 0.  1.
         -6    2    1    2    0  503  0.11156206236E+02  0.46870015606E+02  0.11558711692E+03  0.21857526652E+03  0.17914660542E+03 0.  0.
        -24    2    3    3    0    0 -0.56408521811E+02 -0.72206336665E+01  0.49890781584E+02  0.10981456915E+03  0.79599564239E+02 0.  0.
          6    2    1    2  501    0 -0.11156206236E+02 -0.46870015606E+02  0.27585089339E+03  0.32817051160E+03  0.17111665610E+03 0.  0.
         24    2    5    5    0    0 -0.50705406820E+02 -0.14276820120E+01  0.24246167051E+03  0.25913374491E+03  0.76089155145E+02 0.  0.
          5    1    5    5  501    0  0.39549200584E+02 -0.45442333594E+02  0.33389222885E+02  0.69036766684E+02  0.47000000000E+01 0. -1.
        -13    1    6    6    0    0  0.17454318976E+02  0.11901955579E+02  0.42635629668E+02  0.47582630389E+02  0.00000000000E+00 0.  1.
         14    1    6    6    0    0 -0.68159725796E+02 -0.13329637591E+02  0.19982604084E+03  0.21155111453E+03  0.00000000000E+00 0. -1.
         -5    1    3    3    0  503  0.67564728046E+02  0.54090649272E+02  0.65696335341E+02  0.10876069737E+03  0.47000000000E+01 0.  1.
         11    1    4    4    0    0 -0.50469845496E+02 -0.56912095437E+01 -0.81597656427E+01  0.51441004518E+02  0.00000000000E+00 0. -1.
        -12    1    4    4    0    0 -0.59386763149E+01 -0.15294241228E+01  0.58050547227E+02  0.58373564632E+02  0.00000000000E+00 0.  1.
</event>
<event>
12    1  0.8421768E-002  0.2233315E+03  0.7818608E-02  0.1132493E+00
         21   -1    0    0  503  502  0.00000000000E+00  0.00000000000E+00  0.17636307579E+03  0.17636307579E+03  0.00000000000E+00 0.  1.
         21   -1    0    0  501  503 -0.00000000000E+00 -0.00000000000E+00 -0.59359983477E+03  0.59359983477E+03  0.00000000000E+00 0.  1.
          6    2    1    2  501    0  0.94174666503E+02 -0.95345718468E+02 -0.49167489494E+03  0.54001959299E+03  0.17865409221E+03 0.  0.
         24    2    3    3    0    0  0.48467615398E+02 -0.23934070455E+02 -0.41750771720E+03  0.42727378045E+03  0.72994794787E+02 0.  0.
         -6    2    1    2    0  502 -0.94174666503E+02  0.95345718468E+02  0.74438135952E+02  0.22994331757E+03  0.17138617030E+03 0.  0.
        -24    2    5    5    0    0 -0.21446795617E+02 -0.73213774246E+01  0.62073237019E+02  0.10343301558E+03  0.79572195828E+02 0.  0.
          5    1    3    3  501    0  0.45707051105E+02 -0.71411648013E+02 -0.74167177737E+02  0.11274581254E+03  0.47000000000E+01 0. -1.
        -13    1    4    4    0    0  0.35882105319E+02 -0.32181056703E+02 -0.40456578950E+03  0.40742683260E+03  0.00000000000E+00 0.  1.
         14    1    4    4    0    0  0.12585510078E+02  0.82469862484E+01 -0.12941927701E+02  0.19846947844E+02  0.00000000000E+00 0. -1.
         -5    1    5    5    0  502 -0.72727870886E+02  0.10266709589E+03  0.12364898933E+02  0.12651030198E+03  0.47000000000E+01 0.  1.
         13    1    6    6    0    0 -0.35218783350E+02 -0.28177646732E+02  0.64077370752E+02  0.78359759561E+02  0.00000000000E+00 0. -1.
        -14    1    6    6    0    0  0.13771987733E+02  0.20856269307E+02 -0.20041337328E+01  0.25073256022E+02  0.00000000000E+00 0.  1.
</event>
<event>
12    1  0.8421768E-002  0.2313713E+03  0.7818608E-02  0.1125761E+00
         21   -1    0    0  503  502  0.00000000000E+00  0.00000000000E+00  0.10810338396E+03  0.10810338396E+03  0.00000000000E+00 0.  1.
         21   -1    0    0  501  503 -0.00000000000E+00 -0.00000000000E+00 -0.51978992558E+03  0.51978992558E+03  0.00000000000E+00 0.  1.
          6    2    1    2  501    0 -0.15141400337E+03 -0.26737938194E+02 -0.13596818800E+03  0.26795820797E+03  0.17225891941E+03 0.  0.
         24    2    3    3    0    0 -0.13859514230E+03  0.35380682342E+01 -0.37664454823E+02  0.16419562454E+03  0.79501324286E+02 0.  0.
         -6    2    1    2    0  502  0.15141400337E+03  0.26737938194E+02 -0.27571835363E+03  0.35993510157E+03  0.17289172640E+03 0.  0.
        -24    2    5    5    0    0  0.63438477903E+01  0.32037248944E+02 -0.12598896057E+03  0.15133401365E+03  0.77214867590E+02 0.  0.
          5    1    3    3  501    0 -0.12818861071E+02 -0.30276006428E+02 -0.98303733181E+02  0.10376258344E+03  0.47000000000E+01 0. -1.
        -11    1    4    4    0    0 -0.98163691584E+02 -0.18233752880E+02 -0.56317644563E+02  0.11463096082E+03  0.00000000000E+00 0.  1.
         12    1    4    4    0    0 -0.40431450719E+02  0.21771821114E+02  0.18653189741E+02  0.49564663717E+02  0.00000000000E+00 0. -1.
         -5    1    5    5    0  502  0.14507015558E+03 -0.52993107502E+01 -0.14972939306E+03  0.20860108792E+03  0.47000000000E+01 0.  1.
         13    1    6    6    0    0  0.41305212427E+00 -0.10956111869E+02 -0.10030654536E+03  0.10090396445E+03  0.00000000000E+00 0. -1.
        -14    1    6    6    0    0  0.59307956661E+01  0.42993360813E+02 -0.25682415207E+02  0.50430049198E+02  0.00000000000E+00 0.  1.
</event>
<event>
12    1  0.8421768E-002  0.1998884E+03  0.7818608E-02  0.1150029E+00
         21   -1    0    0  501  502  0.00000000000E+00  0.00000000000E+00  0.41053173502E+03  0.41053173502E+03  0.00000000000E+00 0. -1.
         21   -1    0    0  502  503 -0.00000000000E+00 -0.00000000000E+00 -0.26573551652E+03  0.26573551652E+03  0.00000000000E+00 0. -1.
         -6    2    1    2    0  503 -0.32999143066E+02 -0.94313411693E+02 -0.19708177334E+03  0.28070732225E+03  0.17312253555E+03 0.  0.
        -24    2    3    3    0    0 -0.14476180875E+00 -0.91997893166E+02 -0.54624988578E+02  0.13441720803E+03  0.81366228466E+02 0.  0.
          6    2    1    2  501    0  0.32999143066E+02  0.94313411693E+02  0.34187799184E+03  0.39555992928E+03  0.17205561102E+03 0.  0.
         24    2    5    5    0    0  0.13693291896E+02  0.12966384794E+03  0.30428847809E+03  0.34026589004E+03  0.78671330964E+02 0.  0.
          5    1    5    5  501    0  0.19305851169E+02 -0.35350436250E+02  0.37589513745E+02  0.55294039245E+02  0.47000000000E+01 0. -1.
        -13    1    6    6    0    0 -0.84717074128E+01  0.20298517958E+02  0.75757677222E+01  0.23263531854E+02  0.00000000000E+00 0.  1.
         14    1    6    6    0    0  0.22164999309E+02  0.10936532999E+03  0.29671271037E+03  0.31700235818E+03  0.00000000000E+00 0. -1.
         -5    1    3    3    0  503 -0.32854381257E+02 -0.23155185276E+01 -0.14245678476E+03  0.14629011422E+03  0.47000000000E+01 0.  1.
         11    1    4    4    0    0 -0.34595038022E+02 -0.75664867171E+02 -0.46932228967E+02  0.95522891997E+02  0.00000000000E+00 0. -1.
        -12    1    4    4    0    0  0.34450276213E+02 -0.16333025995E+02 -0.76927596112E+01  0.38894316034E+02  0.00000000000E+00 0.  1.
</event>
<event>
12    1  0.8421768E-002  0.2327464E+03  0.7818608E-02  0.1124779E+00
         21   -1    0    0  503  502  0.00000000000E+00  0.00000000000E+00  0.11230051094E+04  0.11230051094E+04  0.00000000000E+00 0.  1.
         21   -1    0    0  501  503 -0.00000000000E+00 -0.00000000000E+00 -0.66992662159E+02  0.66992662159E+02  0.00000000000E+00 0. -1.
          6    2    1    2  501    0 -0.12141095572E+03  0.99665141022E+02  0.21287836926E+03  0.31541734772E+03  0.17174732207E+03 0.  0.
         24    2    3    3    0    0 -0.89933044600E+02  0.12783948468E+03  0.11738966427E+03  0.21089541074E+03  0.79155888213E+02 0.  0.
         -6    2    1    2    0  502  0.12141095572E+03 -0.99665141022E+02  0.84313407802E+03  0.87458042388E+03  0.17129531171E+03 0.  0.
        -24    2    5    5    0    0  0.14401735144E+03 -0.88484812097E+02  0.81649303490E+03  0.83759550721E+03  0.79591445339E+02 0.  0.
          5    1    3    3  501    0 -0.31477911117E+02 -0.28174343658E+02  0.95488704992E+02  0.10452193698E+03  0.47000000000E+01 0. -1.
        -11    1    4    4    0    0 -0.50973430731E+01  0.69610815156E+02  0.65232328066E+02  0.95534837196E+02  0.00000000000E+00 0.  1.
         12    1    4    4    0    0 -0.84835701527E+02  0.58228669524E+02  0.52157336200E+02  0.11536057354E+03  0.00000000000E+00 0. -1.
         -5    1    5    5    0  502 -0.22606395724E+02 -0.11180328926E+02  0.26641043119E+02  0.36984916668E+02  0.47000000000E+01 0.  1.
         13    1    6    6    0    0  0.22875230440E+02 -0.10142638290E+02  0.30853069069E+03  0.30954375518E+03  0.00000000000E+00 0. -1.
        -14    1    6    6    0    0  0.12114212100E+03 -0.78342173807E+02  0.50796234422E+03  0.52805175203E+03  0.00000000000E+00 0.  1.
</event>
<event>
12    1  0.8421768E-002  0.2020246E+03  0.7818608E-02  0.1148277E+00
         21   -1    0    0  503  502  0.00000000000E+00  0.00000000000E+00  0.52611115351E+03  0.52611115351E+03  0.00000000000E+00 0.  1.
         21   -1    0    0  501  503 -0.00000000000E+00 -0.00000000000E+00 -0.11605481603E+03  0.11605481603E+03  0.00000000000E+00 0. -1.
          6    2    1    2  501    0  0.89255323466E+02 -0.57267211823E+02  0.19494058212E+02  0.20296299482E+03  0.17195322808E+03 0.  0.
         24    2    3    3    0    0  0.19752183878E+01 -0.39629384336E+02  0.57634985691E+02  0.10597985170E+03  0.79596154435E+02 0.  0.
         -6    2    1    2    0  502 -0.89255323466E+02  0.57267211823E+02  0.39056227927E+03  0.43920297472E+03  0.17062916718E+03 0.  0.
        -24    2    5    5    0    0 -0.12450903380E+03  0.47182216277E+02  0.25492435140E+03  0.29861752488E+03  0.80357577114E+02 0.  0.
          5    1    3    3  501    0  0.87280105078E+02 -0.17637827487E+02 -0.38140927479E+02  0.96983143122E+02  0.47000000000E+01 0. -1.
        -11    1    4    4    0    0  0.33003337771E+02 -0.15454476500E+02  0.55745429057E+02  0.66600405469E+02  0.00000000000E+00 0.  1.
         12    1    4    4    0    0 -0.31028119383E+02 -0.24174907836E+02  0.18895566337E+01  0.39379446233E+02  0.00000000000E+00 0. -1.
         -5    1    5    5    0  502  0.35253710332E+02  0.10084995545E+02  0.13563792788E+03  0.14058544984E+03  0.47000000000E+01 0.  1.
         13    1    6    6    0    0 -0.43073669571E+02  0.52596787775E+02  0.76069374598E+02  0.10202113921E+03  0.00000000000E+00 0. -1.
        -14    1    6    6    0    0 -0.81435364227E+02 -0.54145714979E+01  0.17885497680E+03  0.19659638567E+03  0.00000000000E+00 0.  1.
</event>
<event>
12    1  0.8421768E-002  0.1963762E+03  0.7818608E-02  0.1153435E+00
         21   -1    0    0  501  502  0.00000000000E+00  0.00000000000E+00  0.23632808228E+03  0.23632808228E+03  0.00000000000E+00 0. -1.
         21   -1    0    0  502  503 -0.00000000000E+00 -0.00000000000E+00 -0.17590146286E+03  0.17590146286E+03  0.00000000000E+00 0. -1.
         -6    2    1    2    0  503  0.81941135643E+02 -0.49843963890E+02 -0.29804132204E+02  0.19862502675E+03  0.17136173584E+03 0.  0.
        -24    2    3    3    0    0  0.70237245731E+02 -0.87056065331E+00 -0.75535780677E+02  0.13044255880E+03  0.79847219242E+02 0.  0.
          6    2    1    2  501    0 -0.81941135643E+02  0.49843963890E+02  0.90230751630E+02  0.21360451839E+03  0.16818600206E+03 0.  0.
         24    2    5    5    0    0 -0.32824196682E+02  0.79966166569E+02  0.50627399688E+02  0.14353072677E+03  0.10279066224E+03 0.  0.
          5    1    5    5  501    0 -0.49116938962E+02 -0.30122202678E+02  0.39603351942E+02  0.70073791621E+02  0.47000000000E+01 0. -1.
        -11    1    6    6    0    0 -0.67362125459E+01 -0.14661164427E+02  0.42002595412E+02  0.44994936640E+02  0.00000000000E+00 0.  1.
         12    1    6    6    0    0 -0.26087984136E+02  0.94627330996E+02  0.86248042756E+01  0.98535790129E+02  0.00000000000E+00 0. -1.
         -5    1    3    3    0  503  0.11703889912E+02 -0.48973403237E+02  0.45731648473E+02  0.68182467950E+02  0.47000000000E+01 0.  1.
         11    1    4    4    0    0  0.50175071076E+02  0.11844088317E+02 -0.30880695875E+00  0.51554975970E+02  0.00000000000E+00 0. -1.
        -12    1    4    4    0    0  0.20062174655E+02 -0.12714648970E+02 -0.75226973718E+02  0.78887582832E+02  0.00000000000E+00 0.  1.
</event>
<event>
12    1  0.8421768E-002  0.2663969E+03  0.7818608E-02  0.1103682E+00
         21   -1    0    0  503  502  0.00000000000E+00  0.00000000000E+00  0.10666553020E+03  0.10666553020E+03  0.00000000000E+00 0. -1.
         21   -1    0    0  501  503 -0.00000000000E+00 -0.00000000000E+00 -0.66065976300E+03  0.66065976300E+03  0.00000000000E+00 0. -1.
          6    2    1    2  501    0 -0.13235992823E+03  0.15100287916E+03 -0.26219293470E+03  0.37221099751E+03  0.17168247302E+03 0.  0.
         24    2    3    3    0    0 -0.10781893441E+01  0.67511668916E+02 -0.67531933651E+02  0.12297080716E+03  0.77474314583E+02 0.  0.
         -6    2    1    2    0  502  0.13235992823E+03 -0.15100287916E+03 -0.29180129809E+03  0.39511429569E+03  0.17506081508E+03 0.  0.
        -24    2    5    5    0    0  0.91809105262E+01 -0.70652041714E+02 -0.63397705606E+02  0.12341663553E+03  0.78335156424E+02 0.  0.
          5    1    3    3  501    0 -0.13128173888E+03  0.83491210246E+02 -0.19466100105E+03  0.24924019034E+03  0.47000000000E+01 0. -1.
        -11    1    4    4    0    0 -0.19616474036E+02  0.13949209676E+02  0.10718616597E+02  0.26349103324E+02  0.00000000000E+00 0.  1.
         12    1    4    4    0    0  0.18538284692E+02  0.53562459240E+02 -0.78250550248E+02  0.96621703841E+02  0.00000000000E+00 0. -1.
         -5    1    5    5    0  502  0.12317901770E+03 -0.80350837449E+02 -0.22840359249E+03  0.27169766017E+03  0.47000000000E+01 0.  1.
         11    1    6    6    0    0  0.37079910440E+02 -0.67777635384E+02 -0.40616821473E+02  0.87283754520E+02  0.00000000000E+00 0. -1.
        -12    1    6    6    0    0 -0.27898999914E+02 -0.28744063299E+01 -0.22780884133E+02  0.36132881006E+02  0.00000000000E+00 0.  1.
</event>
<event>
12    1  0.8421768E-002  0.2022099E+03  0.7818608E-02  0.1148008E+00
         21   -1    0    0  501  502  0.00000000000E+00  0.00000000000E+00  0.15567952097E+03  0.15567952097E+03  0.00000000000E+00 0.  1.
         21   -1    0    0  502  503 -0.00000000000E+00 -0.00000000000E+00 -0.26352076405E+03  0.26352076405E+03  0.00000000000E+00 0. -1.
         -6    2    1    2    0  503  0.54398324613E+02  0.90830061265E+02 -0.37560545202E+02  0.20566873835E+03  0.17227755985E+03 0.  0.
        -24    2    3    3    0    0  0.37194435386E+02  0.13119612707E+03 -0.29301073182E+02  0.16077216887E+03  0.79958036568E+02 0.  0.
          6    2    1    2  501    0 -0.54398324613E+02 -0.90830061265E+02 -0.70280697876E+02  0.21353154668E+03  0.17160147780E+03 0.  0.
         24    2    5    5    0    0 -0.58442721524E+02 -0.54287670136E+02 -0.11172207067E+03  0.15793315754E+03  0.78091986452E+02 0.  0.
          5    1    5    5  501    0  0.40443969106E+01 -0.36542391129E+02  0.41441372792E+02  0.55598389138E+02  0.47000000000E+01 0. -1.
        -13    1    6    6    0    0  0.85455406615E+01 -0.17987726471E+02  0.30771972106E+01  0.20150774463E+02  0.00000000000E+00 0.  1.
         14    1    6    6    0    0 -0.66988262185E+02 -0.36299943665E+02 -0.11479926788E+03  0.13778238308E+03  0.00000000000E+00 0. -1.
         -5    1    3    3    0  503  0.17203889227E+02 -0.40366065803E+02 -0.82594720203E+01  0.44896569479E+02  0.47000000000E+01 0.  1.
         13    1    4    4    0    0 -0.48404744904E+01  0.10490528569E+03 -0.39595484045E+01  0.10509151813E+03  0.00000000000E+00 0. -1.
        -14    1    4    4    0    0  0.42034909876E+02  0.26290841376E+02 -0.25341524778E+02  0.55680650738E+02  0.00000000000E+00 0.  1.
</event>
<event>
12    1  0.8421768E-002  0.1748539E+03  0.7818608E-02  0.1172973E+00
         21   -1    0    0  501  502  0.00000000000E+00  0.00000000000E+00  0.30563652832E+03  0.30563652832E+03  0.00000000000E+00 0.  1.
         21   -1    0    0  502  503 -0.00000000000E+00 -0.00000000000E+00 -0.10334087315E+03  0.10334087315E+03  0.00000000000E+00 0.  1.
         -6    2    1    2    0  503  0.22450179514E+02  0.19446661037E+02  0.63505187099E+02  0.18602898725E+03  0.17231277412E+03 0.  0.
        -24    2    3    3    0    0 -0.34091648227E+02 -0.19530963593E+02 -0.60001801952E+01  0.88206088152E+02  0.78743969972E+02 0.  0.
          6    2    1    2  501    0 -0.22450179514E+02 -0.19446661037E+02  0.13879046806E+03  0.22294841422E+03  0.17193317944E+03 0.  0.
         24    2    5    5    0    0  0.28845114476E+02 -0.39876724982E+01  0.14553834339E+03  0.16874683367E+03  0.80287871549E+02 0.  0.
          5    1    5    5  501    0 -0.51295293990E+02 -0.15458988539E+02 -0.67478753222E+01  0.54201580544E+02  0.47000000000E+01 0. -1.
        -13    1    6    6    0    0 -0.19423366598E+02 -0.40575260983E+01  0.54521885086E+01  0.20578072008E+02  0.00000000000E+00 0.  1.
         14    1    6    6    0    0  0.48268481074E+02  0.69853600059E-01  0.14008615488E+03  0.14816876166E+03  0.00000000000E+00 0. -1.
         -5    1    3    3    0  503  0.56541827741E+02  0.38977624631E+02  0.69505367295E+02  0.97822899103E+02  0.47000000000E+01 0.  1.
         11    1    4    4    0    0  0.21016491176E+02  0.66827458043E+01 -0.14786488788E+02  0.26551690031E+02  0.00000000000E+00 0. -1.
        -12    1    4    4    0    0 -0.55108139403E+02 -0.26213709398E+02  0.87863085930E+01  0.61654398120E+02  0.00000000000E+00 0.  1.
</event>
<event>
12    1  0.8421768E-002  0.2210720E+03  0.7818608E-02  0.1133133E+00
         21   -1    0    0  501  502  0.00000000000E+00  0.00000000000E+00  0.92503138122E+03  0.92503138122E+03  0.00000000000E+00 0. -1.
         21   -1    0    0  502  503 -0.00000000000E+00 -0.00000000000E+00 -0.53012770980E+02  0.53012770980E+02  0.00000000000E+00 0. -1.
         -6    2    1    2    0  503 -0.10207930477E+03 -0.77932242393E+02  0.40336709284E+03  0.45997589674E+03  0.17994219941E+03 0.  0.
        -24    2    3    3    0    0 -0.13504636123E+03 -0.27745294451E+02  0.25983084123E+03  0.30431504077E+03  0.78027283295E+02 0.  0.
          6    2    1    2  501    0  0.10207930477E+03  0.77932242393E+02  0.46865151740E+03  0.51806825546E+03  0.17962976837E+03 0.  0.
         24    2    5    5    0    0  0.73159927941E+02  0.26128236419E+02  0.11655046116E+03  0.16097270914E+03  0.79329334412E+02 0.  0.
          5    1    5    5  501    0  0.28919376834E+02  0.51804005973E+02  0.35210105624E+03  0.35709554632E+03  0.47000000000E+01 0. -1.
        -13    1    6    6    0    0 -0.17187997939E+02  0.33042105612E+01  0.23304066238E+02  0.29144889497E+02  0.00000000000E+00 0.  1.
         14    1    6    6    0    0  0.90347925880E+02  0.22824025858E+02  0.93246394920E+02  0.13182781965E+03  0.00000000000E+00 0. -1.
         -5    1    3    3    0  503  0.32967056460E+02 -0.50186947941E+02  0.14353625161E+03  0.15566085597E+03  0.47000000000E+01 0.  1.
         11    1    4    4    0    0 -0.10977675264E+03  0.11384317613E+02  0.16280653121E+03  0.19668885254E+03  0.00000000000E+00 0. -1.
        -12    1    4    4    0    0 -0.25269608592E+02 -0.39129612064E+02  0.97024310021E+02  0.10762618823E+03  0.00000000000E+00 0.  1.
</event>
<event>
12    1  0.8421768E-002  0.1977972E+03  0.7818608E-02  0.1151873E+00
         21   -1    0    0  501  502  0.00000000000E+00  0.00000000000E+00  0.43358289435E+02  0.43358289435E+02  0.00000000000E+00 0. -1.
         21   -1    0    0  502  503 -0.00000000000E+00 -0.00000000000E+00 -0.90812300369E+03  0.90812300369E+03  0.00000000000E+00 0. -1.
         -6    2    1    2    0  503  0.96571604069E+02 -0.97867459181E+01 -0.48690518804E+03  0.52554770591E+03  0.17234231615E+03 0.  0.
        -24    2    3    3    0    0  0.87247073949E+02 -0.50391160263E+02 -0.45609461914E+03  0.47351842105E+03  0.77756495070E+02 0.  0.
          6    2    1    2  501    0 -0.96571604069E+02  0.97867459181E+01 -0.37785952621E+03  0.42593358721E+03  0.17093783683E+03 0.  0.
         24    2    5    5    0    0 -0.17788276351E+02  0.40584240473E+02 -0.28866071200E+03  0.30291400807E+03  0.80426278536E+02 0.  0.
          5    1    5    5  501    0 -0.78783327718E+02 -0.30797494555E+02 -0.89198814207E+02  0.12301957915E+03  0.47000000000E+01 0. -1.
        -11    1    6    6    0    0  0.11743712570E+02  0.12037526643E+01 -0.18974701971E+01  0.11956763716E+02  0.00000000000E+00 0.  1.
         12    1    6    6    0    0 -0.29531988921E+02  0.39380487809E+02 -0.28676324181E+03  0.29095724435E+03  0.00000000000E+00 0. -1.
         -5    1    3    3    0  503  0.93245301197E+01  0.40604414345E+02 -0.30810568902E+02  0.52029284853E+02  0.47000000000E+01 0.  1.
         13    1    4    4    0    0  0.16509632851E+02 -0.29157781679E+02 -0.46479134360E+02  0.57297941849E+02  0.00000000000E+00 0. -1.
        -14    1    4    4    0    0  0.70737441098E+02 -0.21233378584E+02 -0.40961548478E+03  0.41622047920E+03  0.00000000000E+00 0.  1.
</event>
<event>
12    1  0.8421768E-002  0.1993849E+03  0.7818608E-02  0.1150590E+00
         21   -1    0    0  501  502  0.00000000000E+00  0.00000000000E+00  0.94431107423E+03  0.94431107423E+03  0.00000000000E+00 0.  1.
         21   -1    0    0  502  503 -0.00000000000E+00 -0.00000000000E+00 -0.41777156652E+02  0.41777156652E+02  0.00000000000E+00 0. -1.
         -6    2    1    2    0  503 -0.10808598248E+02 -0.10051570472E+03  0.45906776118E+03  0.50049729284E+03  0.17185487509E+03 0.  0.
        -24    2    3    3    0    0 -0.53767894645E+02 -0.90982206711E+01  0.19251310406E+03  0.21540760034E+03  0.79783299850E+02 0.  0.
          6    2    1    2  501    0  0.10808598248E+02  0.10051570472E+03  0.44346615640E+03  0.48559093804E+03  0.17004733032E+03 0.  0.
         24    2    5    5    0    0  0.16875730816E+02 -0.13563791735E+02  0.19555690927E+03  0.21258539521E+03  0.80506389532E+02 0.  0.
          5    1    5    5  501    0 -0.60671325677E+01  0.11407949645E+03  0.24790924713E+03  0.27300554284E+03  0.47000000000E+01 0. -1.
        -11    1    6    6    0    0  0.43343106629E+01 -0.27622683789E+02  0.19121920635E+03  0.19325264238E+03  0.00000000000E+00 0.  1.
         12    1    6    6    0    0  0.12541420153E+02  0.14058892054E+02  0.43377029152E+01  0.19332752826E+02  0.00000000000E+00 0. -1.
         -5    1    3    3    0  503  0.42959296397E+02 -0.91417484048E+02  0.26655465712E+03  0.28508969250E+03  0.47000000000E+01 0.  1.
         13    1    4    4    0    0 -0.31693627698E+02 -0.32009385940E+02  0.42065113641E+02  0.61632463933E+02  0.00000000000E+00 0. -1.
        -14    1    4    4    0    0 -0.22074266947E+02  0.22911165268E+02  0.15044799042E+03  0.15377513641E+03  0.00000000000E+00 0.  1.
</event>
<event>
12    1  0.8421768E-002  0.2279689E+03  0.7818608E-02  0.1128173E+00
         21   -1    0    0  501  502  0.00000000000E+00  0.00000000000E+00  0.47431486093E+03  0.47431486093E+03  0.00000000000E+00 0.  1.
         21   -1    0    0  502  503 -0.00000000000E+00 -0.00000000000E+00 -0.13431902011E+03  0.13431902011E+03  0.00000000000E+00 0.  1.
         -6    2    1    2    0  503  0.11953957616E+03  0.90011875223E+02  0.30114650437E+03  0.37737839442E+03  0.17126992592E+03 0.  0.
        -24    2    3    3    0    0 -0.73533690405E+01  0.49873959172E+02  0.14965456382E+03  0.17567373433E+03  0.76962904200E+02 0.  0.
          6    2    1    2  501    0 -0.11953957616E+03 -0.90011875223E+02  0.38849336446E+02  0.23125548663E+03  0.17198250261E+03 0.  0.
         24    2    5    5    0    0 -0.16290609504E+02 -0.29900643422E+02  0.62225856631E+02  0.10942666820E+03  0.83322902279E+02 0.  0.
          5    1    5    5  501    0 -0.10324896666E+03 -0.60111231801E+02 -0.23376520185E+02  0.12182881843E+03  0.47000000000E+01 0. -1.
        -11    1    6    6    0    0 -0.37773657383E+02 -0.43563203855E+02  0.21781824555E+02  0.61636432434E+02  0.00000000000E+00 0.  1.
         12    1    6    6    0    0  0.21483047879E+02  0.13662560433E+02  0.40444032076E+02  0.47790235763E+02  0.00000000000E+00 0. -1.
         -5    1    3    3    0  503  0.12689294520E+03  0.40137916051E+02  0.15149194056E+03  0.20170466009E+03  0.47000000000E+01 0.  1.
         11    1    4    4    0    0 -0.30880888432E+02  0.27001717162E+02  0.27986114763E+02  0.49658278460E+02  0.00000000000E+00 0. -1.
        -12    1    4    4    0    0  0.23527519392E+02  0.22872242010E+02  0.12166844905E+03  0.12601545587E+03  0.00000000000E+00 0.  1.
</event>
<event>
12    1  0.8421768E-002  0.2076205E+03  0.7818608E-02  0.1144110E+00
         21   -1    0    0  501  502  0.00000000000E+00  0.00000000000E+00  0.80989204376E+03  0.80989204376E+03  0.00000000000E+00 0.  1.
         21   -1    0    0  502  503 -0.00000000000E+00 -0.00000000000E+00 -0.52411483352E+02  0.52411483352E+02  0.00000000000E+00 0.  1.
         -6    2    1    2    0  503 -0.99035561876E+02 -0.50494453538E+02  0.37741518601E+03  0.42922619266E+03  0.17156680764E+03 0.  0.
        -24    2    3    3    0    0 -0.13697533050E+03 -0.45922133541E+02  0.31895626497E+03  0.35922713837E+03  0.80249326866E+02 0.  0.
          6    2    1    2  501    0  0.99035561876E+02  0.50494453538E+02  0.38006537440E+03  0.43307733445E+03  0.17535266306E+03 0.  0.
         24    2    5    5    0    0  0.12423489830E+03  0.10064584674E+02  0.33703672380E+03  0.36871014074E+03  0.82570024102E+02 0.  0.
          5    1    5    5  501    0 -0.25199336425E+02  0.40429868864E+02  0.43028650601E+02  0.64367193703E+02  0.47000000000E+01 0. -1.
        -13    1    6    6    0    0  0.26522046983E+02  0.28974323530E+02  0.42780744105E+02  0.58078588708E+02  0.00000000000E+00 0.  1.
         14    1    6    6    0    0  0.97712851318E+02 -0.18909738857E+02  0.29425597969E+03  0.31063155204E+03  0.00000000000E+00 0. -1.
         -5    1    3    3    0  503  0.37939768620E+02 -0.45723199965E+01  0.58458921035E+02  0.69999054291E+02  0.47000000000E+01 0.  1.
         11    1    4    4    0    0 -0.66093387253E+02  0.10545784415E+02  0.84029818191E+02  0.10742699732E+03  0.00000000000E+00 0. -1.
        -12    1    4    4    0    0 -0.70881943243E+02 -0.56467917956E+02  0.23492644678E+03  0.25180014105E+03  0.00000000000E+00 0.  1.
</event>
<event>
12    1  0.8421768E-002  0.2011926E+03  0.7818608E-02  0.1149173E+00
         21   -1    0    0  503  502  0.00000000000E+00  0.00000000000E+00  0.29197267127E+03  0.29197267127E+03  0.00000000000E+00 0.  1.
         21   -1    0    0  501  503 -0.00000000000E+00 -0.00000000000E+00 -0.21446209678E+03  0.21446209678E+03  0.00000000000E+00 0.  1.
          6    2    1    2  501    0  0.62306095787E+02  0.83318080841E+02 -0.11334585384E+03  0.22911790427E+03  0.16977567349E+03 0.  0.
         24    2    3    3    0    0  0.10087528244E+03  0.69242057709E+02 -0.53961845781E+02  0.15676967002E+03  0.81820312113E+02 0.  0.
         -6    2    1    2    0  502 -0.62306095787E+02 -0.83318080841E+02  0.19085642832E+03  0.27731686378E+03  0.17220486211E+03 0.  0.
        -24    2    5    5    0    0 -0.71464085315E+02 -0.10498319764E+01  0.15012133635E+03  0.18494061541E+03  0.80983936464E+02 0.  0.
          5    1    3    3  501    0 -0.38569186657E+02  0.14076023132E+02 -0.59384008057E+02  0.72348234253E+02  0.47000000000E+01 0. -1.
        -11    1    4    4    0    0  0.37967783022E+01  0.45417141609E+02 -0.62321371856E+01  0.45999693600E+02  0.00000000000E+00 0.  1.
         12    1    4    4    0    0  0.97078504141E+02  0.23824916100E+02 -0.47729708595E+02  0.11076997642E+03  0.00000000000E+00 0. -1.
         -5    1    5    5    0  502  0.91579895286E+01 -0.82268248865E+02  0.40735091975E+02  0.92376248363E+02  0.47000000000E+01 0.  1.
         13    1    6    6    0    0 -0.28606856407E+02  0.32873437060E+02  0.10629673701E+03  0.11488259832E+03  0.00000000000E+00 0. -1.
        -14    1    6    6    0    0 -0.42857228908E+02 -0.33923269036E+02  0.43824599334E+02  0.70058017090E+02  0.00000000000E+00 0.  1.
</event>
<event>
12    1  0.8421768E-002  0.2059242E+03  0.7818608E-02  0.1144867E+00
         21   -1    0    0  503  502  0.00000000000E+00  0.00000000000E+00  0.16664820005E+03  0.16664820005E+03  0.00000000000E+00 0. -1.
         21   -1    0    0  501  503 -0.00000000000E+00 -0.00000000000E+00 -0.25630973061E+03  0.25630973061E+03  0.00000000000E+00 0.  1.
          6    2    1    2  501    0 -0.54103366809E+02  0.99080976707E+02 -0.63715305327E+02  0.21540558275E+03  0.17203403937E+03 0.  0.
         24    2    3    3    0    0 -0.76860086496E+01  0.27648318397E+02  0.30066201577E+02  0.88621290157E+02  0.78270379792E+02 0.  0.
         -6    2    1    2    0  502  0.54103366809E+02 -0.99080976707E+02 -0.25946225229E+02  0.20755234791E+03  0.17222240351E+03 0.  0.
        -24    2    5    5    0    0  0.10050050019E+03 -0.94108053842E+02 -0.19657166692E+02  0.16023357568E+03  0.79572094579E+02 0.  0.
          5    1    3    3  501    0 -0.46417358159E+02  0.71432658310E+02 -0.93781506904E+02  0.12678429259E+03  0.47000000000E+01 0. -1.
        -13    1    4    4    0    0 -0.18157898992E+02 -0.22872588736E+02  0.61025887462E+00  0.29210221279E+02  0.00000000000E+00 0.  1.
         14    1    4    4    0    0  0.10471890342E+02  0.50520907132E+02  0.29455942702E+02  0.59411068879E+02  0.00000000000E+00 0. -1.
         -5    1    5    5    0  502 -0.46397133382E+02 -0.49729228643E+01 -0.62890585368E+01  0.47318772228E+02  0.47000000000E+01 0.  1.
         13    1    6    6    0    0  0.23848789264E+02  0.11027409304E+02  0.74874846414E+01  0.27320888192E+02  0.00000000000E+00 0. -1.
        -14    1    6    6    0    0  0.76651710926E+02 -0.10513546315E+03 -0.27144651333E+02  0.13291268749E+03  0.00000000000E+00 0.  1.
</event>
<event>
12    1  0.8421768E-002  0.2403168E+03  0.7818608E-02  0.1119639E+00
         21   -1    0    0  501  502  0.00000000000E+00  0.00000000000E+00  0.18360822170E+03  0.18360822170E+03  0.00000000000E+00 0.  1.
         21   -1    0    0  502  503 -0.00000000000E+00 -0.00000000000E+00 -0.44103037969E+03  0.44103037969E+03  0.00000000000E+00 0.  1.
         -6    2    1    2    0  503  0.41154047824E+02 -0.16227158412E+03 -0.29633315235E+03  0.38153047846E+03  0.17241359037E+03 0.  0.
        -24    2    3    3    0    0 -0.18669687104E+02 -0.53475954947E+02 -0.20313028407E+03  0.22621070237E+03  0.81860458022E+02 0.  0.
          6    2    1    2  501    0 -0.41154047824E+02  0.16227158412E+03  0.38910994370E+02  0.24310812293E+03  0.17193536950E+03 0.  0.
         24    2    5    5    0    0 -0.37538986205E+02  0.17792887361E+03 -0.35340595502E+01  0.19748036836E+03  0.76929492148E+02 0.  0.
          5    1    5    5  501    0 -0.36150616189E+01 -0.15657289487E+02  0.42445053920E+02  0.45627754567E+02  0.47000000000E+01 0. -1.
        -13    1    6    6    0    0 -0.84918839345E+01  0.10401590712E+03  0.33837908623E+02  0.10971064254E+03  0.00000000000E+00 0.  1.
         14    1    6    6    0    0 -0.29047102270E+02  0.73912966494E+02 -0.37371968173E+02  0.87769725825E+02  0.00000000000E+00 0. -1.
         -5    1    3    3    0  503  0.59823734928E+02 -0.10879562918E+03 -0.93202868287E+02  0.15531977609E+03  0.47000000000E+01 0.  1.
         13    1    4    4    0    0  0.64587973438E+01  0.12987946106E+01 -0.13536518556E+03  0.13552540866E+03  0.00000000000E+00 0. -1.
        -14    1    4    4    0    0 -0.25128484448E+02 -0.54774749558E+02 -0.67765098506E+02  0.90685293710E+02  0.00000000000E+00 0.  1.
</event>
<event>
12    1  0.8421768E-002  0.2336620E+03  0.7818608E-02  0.1124337E+00
         21   -1    0    0  503  502  0.00000000000E+00  0.00000000000E+00  0.34092770149E+03  0.34092770149E+03  0.00000000000E+00 0.  1.
         21   -1    0    0  501  503 -0.00000000000E+00 -0.00000000000E+00 -0.15925168145E+03  0.15925168145E+03  0.00000000000E+00 0. -1.
          6    2    1    2  501    0 -0.10497146830E+03 -0.11627782599E+03  0.84604635471E+02  0.24715606702E+03  0.17143113821E+03 0.  0.
         24    2    3    3    0    0  0.13177022533E+01 -0.25492389748E+02  0.71432302727E+02  0.10667481005E+03  0.75002286314E+02 0.  0.
         -6    2    1    2    0  502  0.10497146830E+03  0.11627782599E+03  0.97071384570E+02  0.25302331591E+03  0.17337359291E+03 0.  0.
        -24    2    5    5    0    0  0.97870651624E+02  0.32439561856E+02  0.71947466664E+01  0.12981951657E+03  0.78551593755E+02 0.  0.
          5    1    3    3  501    0 -0.10628917055E+03 -0.90785436244E+02  0.13172332744E+02  0.14048125697E+03  0.47000000000E+01 0. -1.
        -11    1    4    4    0    0  0.33588016257E+02  0.53531576862E+01  0.24607228324E+02  0.41980076454E+02  0.00000000000E+00 0.  1.
         12    1    4    4    0    0 -0.32270314003E+02 -0.30845547434E+02  0.46825074403E+02  0.64694733597E+02  0.00000000000E+00 0. -1.
         -5    1    5    5    0  502  0.71008166753E+01  0.83838264136E+02  0.89876637903E+02  0.12320379934E+03  0.47000000000E+01 0.  1.
         11    1    6    6    0    0 -0.16324445550E+00 -0.52008190602E+01 -0.20554903410E+02  0.21203283279E+02  0.00000000000E+00 0. -1.
        -12    1    6    6    0    0  0.98033896079E+02  0.37640380916E+02  0.27749650076E+02  0.10861623330E+03  0.00000000000E+00 0.  1.
</event>
<event>
12    1  0.8421768E-002  0.1807795E+03  0.7818608E-02  0.1169349E+00
         21   -1    0    0  501  502  0.00000000000E+00  0.00000000000E+00  0.10354251964E+04  0.10354251964E+04  0.00000000000E+00 0. -1.
         21   -1    0    0  502  503 -0.00000000000E+00 -0.00000000000E+00 -0.45715857831E+02  0.45715857831E+02  0.00000000000E+00 0. -1.
         -6    2    1    2    0  503  0.67255502922E+01 -0.72109000831E+01  0.16905170613E+03  0.24080769150E+03  0.17120933045E+03 0.  0.
        -24    2    3    3    0    0  0.65382448026E+02 -0.20557724636E+02  0.74797669041E+02  0.12889396185E+03  0.79507720096E+02 0.  0.
          6    2    1    2  501    0 -0.67255502922E+01  0.72109000831E+01  0.82065763245E+03  0.84033336274E+03  0.18051033413E+03 0.  0.
         24    2    5    5    0    0  0.59530886403E+02 -0.16231323158E+01  0.60872859976E+03  0.61806334581E+03  0.88911361848E+02 0.  0.
          5    1    5    5  501    0 -0.66256436695E+02  0.88340323989E+01  0.21192903269E+03  0.22227001693E+03  0.47000000000E+01 0. -1.
        -11    1    6    6    0    0  0.36081469008E+02  0.43276589966E+02  0.31556805877E+03  0.32055878612E+03  0.00000000000E+00 0.  1.
         12    1    6    6    0    0  0.23449417395E+02 -0.44899722282E+02  0.29316054099E+03  0.29750455968E+03  0.00000000000E+00 0. -1.
         -5    1    3    3    0  503 -0.58656897734E+02  0.13346824552E+02  0.94254037092E+02  0.11191372966E+03  0.47000000000E+01 0.  1.
         13    1    4    4    0    0  0.21308178167E+02  0.20947195882E+02 -0.33187959711E+01  0.30063896601E+02  0.00000000000E+00 0. -1.
        -14    1    4    4    0    0  0.44074269860E+02 -0.41504920518E+02  0.78116465012E+02  0.98830065247E+02  0.00000000000E+00 0.  1.
</event>
<event>
12    1  0.8421768E-002  0.2313936E+03  0.7818608E-02  0.1125828E+00
         21   -1    0    0  503  502  0.00000000000E+00  0.00000000000E+00  0.62629339722E+02  0.62629339722E+02  0.00000000000E+00 0.  1.
         21   -1    0    0  501  503 -0.00000000000E+00 -0.00000000000E+00 -0.85673158669E+03  0.85673158669E+03  0.00000000000E+00 0. -1.
          6    2    1    2  501    0 -0.93183272749E+02 -0.12337290335E+03 -0.36009712888E+03  0.42752413297E+03  0.17088869606E+03 0.  0.
         24    2    3    3    0    0 -0.98427715101E+02 -0.15291251567E+03 -0.32794225493E+03  0.38329610124E+03  0.79369554047E+02 0.  0.
         -6    2    1    2    0  502  0.93183272749E+02  0.12337290335E+03 -0.43400511809E+03  0.49183679345E+03  0.17215978991E+03 0.  0.
        -24    2    5    5    0    0 -0.11378022384E+02  0.52283956035E+02 -0.16303593972E+03  0.19278313857E+03  0.87872347326E+02 0.  0.
          5    1    3    3  501    0  0.52444423524E+01  0.29539612319E+02 -0.32154873945E+02  0.44228031722E+02  0.47000000000E+01 0. -1.
        -11    1    4    4    0    0 -0.74828673725E+02 -0.76986130076E+02 -0.12185578037E+03  0.16240389726E+03  0.00000000000E+00 0.  1.
         12    1    4    4    0    0 -0.23599041377E+02 -0.75926385591E+02 -0.20608647456E+03  0.22089220398E+03  0.00000000000E+00 0. -1.
         -5    1    5    5    0  502  0.10456129513E+03  0.71088947312E+02 -0.27096917837E+03  0.29905365488E+03  0.47000000000E+01 0.  1.
         11    1    6    6    0    0  0.34422544767E+02  0.40368300506E+01 -0.73273065145E+02  0.81056459711E+02  0.00000000000E+00 0. -1.
        -12    1    6    6    0    0 -0.45800567151E+02  0.48247125984E+02 -0.89762874579E+02  0.11172667886E+03  0.00000000000E+00 0.  1.
</event>
<event>
12    1  0.8421768E-002  0.1971284E+03  0.7818608E-02  0.1155079E+00
         21   -1    0    0  501  502  0.00000000000E+00  0.00000000000E+00  0.38569934616E+03  0.38569934616E+03  0.00000000000E+00 0.  1.
         21   -1    0    0  502  503 -0.00000000000E+00 -0.00000000000E+00 -0.12250760769E+03  0.12250760769E+03  0.00000000000E+00 0. -1.
         -6    2    1    2    0  503  0.42742437453E+02  0.53159876471E+02  0.61067337047E+01  0.18424352714E+03  0.17104238268E+03 0.  0.
        -24    2    3    3    0    0 -0.33793583728E+02  0.62285639214E+02 -0.13056327234E+01  0.10666727266E+03  0.79716342277E+02 0.  0.
          6    2    1    2  501    0 -0.42742437453E+02 -0.53159876471E+02  0.25708500476E+03  0.32396342670E+03  0.18495057108E+03 0.  0.
         24    2    5    5    0    0  0.49610669713E+02 -0.47987114768E+02  0.13135226732E+03  0.16780112289E+03  0.78356984257E+02 0.  0.
          5    1    5    5  501    0 -0.92353107165E+02 -0.51727617029E+01  0.12573273744E+03  0.15616230381E+03  0.47000000000E+01 0. -1.
        -13    1    6    6    0    0  0.20449390882E+02 -0.56613876905E+01  0.11019296368E+03  0.11221728094E+03  0.00000000000E+00 0.  1.
         14    1    6    6    0    0  0.29161278831E+02 -0.42325727078E+02  0.21159303643E+02  0.55583841954E+02  0.00000000000E+00 0. -1.
         -5    1    3    3    0  503  0.76536021180E+02 -0.91257627435E+01  0.74123664280E+01  0.77576254484E+02  0.47000000000E+01 0.  1.
         11    1    4    4    0    0  0.25739209861E+02  0.27582186122E+02  0.61104639195E+00  0.37731383400E+02  0.00000000000E+00 0. -1.
        -12    1    4    4    0    0 -0.59532793589E+02  0.34703453092E+02 -0.19166791153E+01  0.68935889259E+02  0.00000000000E+00 0.  1.
</event>
<event>
12    1  0.8421768E-002  0.2008788E+03  0.7818608E-02  0.1149383E+00
         21   -1    0    0  503  502  0.00000000000E+00  0.00000000000E+00  0.20400841713E+03  0.20400841713E+03  0.00000000000E+00 0. -1.
         21   -1    0    0  501  503 -0.00000000000E+00 -0.00000000000E+00 -0.28920215598E+03  0.28920215598E+03  0.00000000000E+00 0.  1.
          6    2    1    2  501    0 -0.98067239358E+02 -0.37061564554E+02 -0.18271659804E+03  0.27154674003E+03  0.17135207562E+03 0.  0.
         24    2    3    3    0    0 -0.18475969365E+02 -0.68401019594E+02 -0.60521197637E+02  0.12231290479E+03  0.79231120078E+02 0.  0.
         -6    2    1    2    0  502  0.98067239358E+02  0.37061564554E+02  0.97522859196E+02  0.22166383308E+03  0.16921407692E+03 0.  0.
        -24    2    5    5    0    0  0.18576336338E+02  0.49757099660E+02  0.77060875451E-02  0.95128164751E+02  0.78920963192E+02 0.  0.
          5    1    3    3  501    0 -0.79591269993E+02  0.31339455040E+02 -0.12219540040E+03  0.14923383524E+03  0.47000000000E+01 0. -1.
        -13    1    4    4    0    0  0.42900347996E+01 -0.74686359055E+02 -0.63987533497E+02  0.98442171199E+02  0.00000000000E+00 0.  1.
         14    1    4    4    0    0 -0.22766004165E+02  0.62853394609E+01  0.34663358602E+01  0.23870733589E+02  0.00000000000E+00 0. -1.
         -5    1    5    5    0  502  0.79490903020E+02 -0.12695535107E+02  0.97515153108E+02  0.12653566833E+03  0.47000000000E+01 0.  1.
         13    1    6    6    0    0 -0.38957923515E+01  0.41123918053E+02  0.33981955327E+02  0.53489504783E+02  0.00000000000E+00 0. -1.
        -14    1    6    6    0    0  0.22472128690E+02  0.86331816070E+01 -0.33974249239E+02  0.41638659968E+02  0.00000000000E+00 0.  1.
</event>
<event>
12    1  0.8421768E-002  0.2076724E+03  0.7818608E-02  0.1143463E+00
         21   -1    0    0  503  502  0.00000000000E+00  0.00000000000E+00  0.14197608674E+03  0.14197608674E+03  0.00000000000E+00 0.  1.
         21   -1    0    0  501  503 -0.00000000000E+00 -0.00000000000E+00 -0.30643687398E+03  0.30643687398E+03  0.00000000000E+00 0.  1.
          6    2    1    2  501    0  0.11171674271E+03 -0.30502638167E+02 -0.10432578262E+03  0.23240419442E+03  0.17238561172E+03 0.  0.
         24    2    3    3    0    0  0.95525682853E+02 -0.79321585101E+02 -0.46935120875E+02  0.15519526971E+03  0.80408931230E+02 0.  0.
         -6    2    1    2    0  502 -0.11171674271E+03  0.30502638167E+02 -0.60135004624E+02  0.21600876631E+03  0.17214100849E+03 0.  0.
        -24    2    5    5    0    0 -0.86952966745E+02  0.80291673671E+02 -0.70157553808E+02  0.15931014068E+03  0.80312310882E+02 0.  0.
          5    1    3    3  501    0  0.16191059852E+02  0.48818946933E+02 -0.57390661745E+02  0.77208924707E+02  0.47000000000E+01 0. -1.
        -13    1    4    4    0    0  0.51655986862E+02  0.59849701501E+01 -0.16294607639E+02  0.54494725291E+02  0.00000000000E+00 0.  1.
         14    1    4    4    0    0  0.43869695991E+02 -0.85306555251E+02 -0.30640513235E+02  0.10070054442E+03  0.00000000000E+00 0. -1.
         -5    1    5    5    0  502 -0.24763775960E+02 -0.49789035503E+02  0.10022549184E+02  0.56698625630E+02  0.47000000000E+01 0.  1.
         11    1    6    6    0    0  0.61956592909E+00 -0.73681512442E+01 -0.27168305559E+02  0.28156532841E+02  0.00000000000E+00 0. -1.
        -12    1    6    6    0    0 -0.87572532674E+02  0.87659824915E+02 -0.42989248249E+02  0.13115360783E+03  0.00000000000E+00 0.  1.
</event>
<event>
12    1  0.8421768E-002  0.2119026E+03  0.7818608E-02  0.1140247E+00
         21   -1    0    0  501  502  0.00000000000E+00  0.00000000000E+00  0.54085378031E+02  0.54085378031E+02  0.00000000000E+00 0. -1.
         21   -1    0    0  502  503 -0.00000000000E+00 -0.00000000000E+00 -0.88670887317E+03  0.88670887317E+03  0.00000000000E+00 0.  1.
         -6    2    1    2    0  503  0.10808786370E+03  0.58829467761E+02 -0.53789524942E+03  0.57779636211E+03  0.17138682610E+03 0.  0.
        -24    2    3    3    0    0  0.49373398702E+01  0.82528454387E+01 -0.12356937936E+03  0.14781259277E+03  0.80539954578E+02 0.  0.
          6    2    1    2  501    0 -0.10808786370E+03 -0.58829467761E+02 -0.29472824572E+03  0.36299788909E+03  0.17250749580E+03 0.  0.
         24    2    5    5    0    0 -0.68044076515E+02  0.24259272423E+02 -0.10128126250E+03  0.14863588464E+03  0.81340171021E+02 0.  0.
          5    1    5    5  501    0 -0.40043787182E+02 -0.83088740185E+02 -0.19344698321E+03  0.21436200445E+03  0.47000000000E+01 0. -1.
        -13    1    6    6    0    0 -0.54838480315E+02  0.19503896711E+02 -0.11507481840E+03  0.12895687162E+03  0.00000000000E+00 0.  1.
         14    1    6    6    0    0 -0.13205596199E+02  0.47553757124E+01  0.13793555893E+02  0.19679013017E+02  0.00000000000E+00 0. -1.
         -5    1    3    3    0  503  0.10315052383E+03  0.50576622323E+02 -0.41432587006E+03  0.42998376934E+03  0.47000000000E+01 0.  1.
         11    1    4    4    0    0  0.26189411515E+02 -0.27775203754E+02 -0.46878857645E+02  0.60456385214E+02  0.00000000000E+00 0. -1.
        -12    1    4    4    0    0 -0.21252071645E+02  0.36028049192E+02 -0.76690521719E+02  0.87356207560E+02  0.00000000000E+00 0.  1.
</event>
<event>
12    1  0.8421768E-002  0.1764102E+03  0.7818608E-02  0.1171770E+00
         21   -1    0    0  503  502  0.00000000000E+00  0.00000000000E+00  0.24854599724E+03  0.24854599724E+03  0.00000000000E+00 0. -1.
         21   -1    0    0  501  503 -0.00000000000E+00 -0.00000000000E+00 -0.38726450660E+03  0.38726450660E+03  0.00000000000E+00 0. -1.
          6    2    1    2  501    0  0.10709857224E+02 -0.39999668269E+02 -0.33138694636E+03  0.37457942439E+03  0.16964009684E+03 0.  0.
         24    2    3    3    0    0  0.10268157126E+02  0.40272594380E+02 -0.21179653334E+03  0.23046909119E+03  0.80814067773E+02 0.  0.
         -6    2    1    2    0  502 -0.10709857224E+02  0.39999668269E+02  0.19266843700E+03  0.26123107945E+03  0.17148141517E+03 0.  0.
        -24    2    5    5    0    0  0.25091557911E+02 -0.78975190536E+00  0.29415129343E+02  0.89128637324E+02  0.80302267530E+02 0.  0.
          5    1    3    3  501    0  0.44170009816E+00 -0.80272262649E+02 -0.11959041302E+03  0.14411033321E+03  0.47000000000E+01 0. -1.
        -11    1    4    4    0    0 -0.17164313312E+02 -0.15438230254E+02 -0.27032743519E+02  0.35548865341E+02  0.00000000000E+00 0.  1.
         12    1    4    4    0    0  0.27432470439E+02  0.55710824634E+02 -0.18476378982E+03  0.19492022585E+03  0.00000000000E+00 0. -1.
         -5    1    5    5    0  502 -0.35801415135E+02  0.40789420174E+02  0.16325330766E+03  0.17210244213E+03  0.47000000000E+01 0.  1.
         13    1    6    6    0    0 -0.17084026564E+02 -0.14104343785E+02  0.38084763619E+02  0.44059569870E+02  0.00000000000E+00 0. -1.
        -14    1    6    6    0    0  0.42175584475E+02  0.13314591880E+02 -0.86696342751E+01  0.45069067454E+02  0.00000000000E+00 0.  1.
</event>
<event>
12    1  0.8421768E-002  0.2178037E+03  0.7818608E-02  0.1135545E+00
         21   -1    0    0  503  502  0.00000000000E+00  0.00000000000E+00  0.35313773528E+03  0.35313773528E+03  0.00000000000E+00 0.  1.
         21   -1    0    0  501  503 -0.00000000000E+00 -0.00000000000E+00 -0.14936816860E+03  0.14936816860E+03  0.00000000000E+00 0. -1.
          6    2    1    2  501    0  0.28368374652E+02  0.13094898004E+03  0.22034489882E+02  0.21884046942E+03  0.17161944021E+03 0.  0.
         24    2    3    3    0    0  0.24332886228E+02  0.14633347795E+03  0.59348676276E+02  0.17800658093E+03  0.78476119672E+02 0.  0.
         -6    2    1    2    0  502 -0.28368374652E+02 -0.13094898004E+03  0.18173507680E+03  0.28366543446E+03  0.17171499793E+03 0.  0.
        -24    2    5    5    0    0  0.27448051187E+02 -0.66684875475E+02  0.24074163929E+02  0.10443261945E+03  0.71598453234E+02 0.  0.
          5    1    3    3  501    0  0.40354884240E+01 -0.15384497907E+02 -0.37314186394E+02  0.40833888486E+02  0.47000000000E+01 0. -1.
        -11    1    4    4    0    0  0.35821548030E+02  0.22938225343E+02  0.25274157524E+02  0.49478566306E+02  0.00000000000E+00 0.  1.
         12    1    4    4    0    0 -0.11488661803E+02  0.12339525260E+03  0.34074518752E+02  0.12852801463E+03  0.00000000000E+00 0. -1.
         -5    1    5    5    0  502 -0.55816425838E+02 -0.64264104566E+02  0.15766091287E+03  0.17923281501E+03  0.47000000000E+01 0.  1.
         13    1    6    6    0    0 -0.21327597107E+02 -0.63282981408E+01 -0.25469880271E+01  0.22391983024E+02  0.00000000000E+00 0. -1.
        -14    1    6    6    0    0  0.48775648294E+02 -0.60356577335E+02  0.26621151956E+02  0.82040636428E+02  0.00000000000E+00 0.  1.
</event>
<event>
12    1  0.8421768E-002  0.1752657E+03  0.7818608E-02  0.1175867E+00
         21   -1    0    0  503  502  0.00000000000E+00  0.00000000000E+00  0.90316980949E+03  0.90316980949E+03  0.00000000000E+00 0.  1.
         21   -1    0    0  501  503 -0.00000000000E+00 -0.00000000000E+00 -0.32797632188E+02  0.32797632188E+02  0.00000000000E+00 0.  1.
          6    2    1    2  501    0  0.16101994372E+02  0.95575190332E+01  0.54328487678E+03  0.57085596574E+03  0.17426260611E+03 0.  0.
         24    2    3    3    0    0  0.63006752060E+02  0.51159602307E+02  0.30692639062E+03  0.32627834287E+03  0.75276769688E+02 0.  0.
         -6    2    1    2    0  502 -0.16101994372E+02 -0.95575190332E+01  0.32708730052E+03  0.36511147594E+03  0.16115106983E+03 0.  0.
        -24    2    5    5    0    0 -0.17556628534E+02 -0.24701977533E+02  0.77314797570E+02  0.11483190463E+03  0.79311824456E+02 0.  0.
          5    1    3    3  501    0 -0.46904757688E+02 -0.41602083274E+02  0.23635848616E+03  0.24457762287E+03  0.47000000000E+01 0. -1.
        -13    1    4    4    0    0  0.43083895030E+02 -0.11565599133E+02  0.11287628807E+03  0.12137150202E+03  0.00000000000E+00 0.  1.
         14    1    4    4    0    0  0.19922857030E+02  0.62725201440E+02  0.19405010255E+03  0.20490684085E+03  0.00000000000E+00 0. -1.
         -5    1    5    5    0  502  0.14546341617E+01  0.15144458500E+02  0.24977250295E+03  0.25027957131E+03  0.47000000000E+01 0.  1.
         13    1    6    6    0    0 -0.18661374867E+02  0.27105429244E+02  0.33679299725E+02  0.47087646324E+02  0.00000000000E+00 0. -1.
        -14    1    6    6    0    0  0.11047463328E+01 -0.51807406777E+02  0.43635497845E+02  0.67744258307E+02  0.00000000000E+00 0.  1.
</event>
<event>
12    1  0.8421768E-002  0.1864399E+03  0.7818608E-02  0.1163198E+00
         21   -1    0    0  503  502  0.00000000000E+00  0.00000000000E+00  0.59163510049E+03  0.59163510049E+03  0.00000000000E+00 0. -1.
         21   -1    0    0  501  503 -0.00000000000E+00 -0.00000000000E+00 -0.88958290247E+02  0.88958290247E+02  0.00000000000E+00 0. -1.
          6    2    1    2  501    0  0.50222947673E+02 -0.15773719705E+02  0.43926294168E+02  0.18540465095E+03  0.17226204041E+03 0.  0.
         24    2    3    3    0    0 -0.12630980411E+01  0.46871077932E+02 -0.42718093521E+00  0.92860043713E+02  0.80151805168E+02 0.  0.
         -6    2    1    2    0  502 -0.50222947673E+02  0.15773719705E+02  0.45875051607E+03  0.49518873979E+03  0.17885384343E+03 0.  0.
        -24    2    5    5    0    0 -0.73032066279E+02 -0.45196596697E+02  0.34081174004E+03  0.36039526715E+03  0.79722590136E+02 0.  0.
          5    1    3    3  501    0  0.51486045714E+02 -0.62644797637E+02  0.44353475103E+02  0.92544607233E+02  0.47000000000E+01 0. -1.
        -13    1    4    4    0    0  0.37503177989E+02  0.29132404802E+02 -0.11401347942E+02  0.48838264749E+02  0.00000000000E+00 0.  1.
         14    1    4    4    0    0 -0.38766276030E+02  0.17738673130E+02  0.10974167006E+02  0.44021778964E+02  0.00000000000E+00 0. -1.
         -5    1    5    5    0  502  0.22809118606E+02  0.60970316402E+02  0.11793877604E+03  0.13479347264E+03  0.47000000000E+01 0.  1.
         13    1    6    6    0    0 -0.71448128034E+02 -0.33404179942E+02  0.15232201380E+03  0.17153037668E+03  0.00000000000E+00 0. -1.
        -14    1    6    6    0    0 -0.15839382453E+01 -0.11792416755E+02  0.18848972624E+03  0.18886489047E+03  0.00000000000E+00 0.  1.
</event>
<event>
12    1  0.8421768E-002  0.2825230E+03  0.7818608E-02  0.1094359E+00
         21   -1    0    0  503  502  0.00000000000E+00  0.00000000000E+00  0.34860481526E+03  0.34860481526E+03  0.00000000000E+00 0. -1.
         21   -1    0    0  501  503 -0.00000000000E+00 -0.00000000000E+00 -0.23001504684E+03  0.23001504684E+03  0.00000000000E+00 0. -1.
          6    2    1    2  501    0 -0.21755982053E+02 -0.22294927430E+03  0.80995505825E+02  0.29390395816E+03  0.17216144456E+03 0.  0.
         24    2    3    3    0    0 -0.17550270635E+02 -0.34245599047E+02  0.51217681860E+02  0.10276114804E+03  0.80348177064E+02 0.  0.
         -6    2    1    2    0  502  0.21755982053E+02  0.22294927430E+03  0.37594262593E+02  0.28471590394E+03  0.17166862180E+03 0.  0.
        -24    2    5    5    0    0  0.64368818668E+01  0.24077233833E+03  0.49363075431E+02  0.25801512871E+03  0.78245390108E+02 0.  0.
          5    1    3    3  501    0 -0.42057114180E+01 -0.18870367525E+03  0.29777823966E+02  0.19114281012E+03  0.47000000000E+01 0. -1.
        -13    1    4    4    0    0  0.25665763635E+02 -0.36984433099E+02  0.19369649857E+02  0.49007785608E+02  0.00000000000E+00 0.  1.
         14    1    4    4    0    0 -0.43216034270E+02  0.27388340524E+01  0.31848032002E+02  0.53753362429E+02  0.00000000000E+00 0. -1.
         -5    1    5    5    0  502  0.15319100186E+02 -0.17823064035E+02 -0.11768812837E+02  0.26700775227E+02  0.47000000000E+01 0.  1.
         13    1    6    6    0    0  0.12946925811E+02  0.21083366463E+02 -0.15082581681E+02  0.28976119470E+02  0.00000000000E+00 0. -1.
        -14    1    6    6    0    0 -0.65100439441E+01  0.21968897187E+03  0.64445657112E+02  0.22903900924E+03  0.00000000000E+00 0.  1.
</event>
<event>
12    1  0.8421768E-002  0.1885232E+03  0.7818608E-02  0.1159897E+00
         21   -1    0    0  503  502  0.00000000000E+00  0.00000000000E+00  0.27844554807E+02  0.27844554807E+02  0.00000000000E+00 0.  1.
         21   -1    0    0  501  503 -0.00000000000E+00 -0.00000000000E+00 -0.14059737691E+04  0.14059737691E+04  0.00000000000E+00 0.  1.
          6    2    1    2  501    0 -0.58602173429E+02  0.47074028410E+02 -0.90978670264E+03  0.92911400556E+03  0.17288959523E+03 0.  0.
         24    2    3    3    0    0 -0.13219772479E+02  0.70375334722E+02 -0.80905814757E+03  0.81610584214E+03  0.79537471082E+02 0.  0.
         -6    2    1    2    0  502  0.58602173429E+02 -0.47074028410E+02 -0.46834251162E+03  0.50470431831E+03  0.17242842531E+03 0.  0.
        -24    2    5    5    0    0 -0.15869048058E+02  0.21927543567E+02 -0.25195049865E+03  0.26563367386E+03  0.79684070327E+02 0.  0.
          5    1    3    3  501    0 -0.45382400950E+02 -0.23301306313E+02 -0.10072855507E+03  0.11300816342E+03  0.47000000000E+01 0. -1.
        -11    1    4    4    0    0 -0.40936020876E+02  0.33189814212E+02 -0.58065128927E+03  0.58303794156E+03  0.00000000000E+00 0.  1.
         12    1    4    4    0    0  0.27716248398E+02  0.37185520511E+02 -0.22840685830E+03  0.23306790057E+03  0.00000000000E+00 0. -1.
         -5    1    5    5    0  502  0.74471221487E+02 -0.69001571976E+02 -0.21639201297E+03  0.23907064446E+03  0.47000000000E+01 0.  1.
         13    1    6    6    0    0  0.42369056606E+01  0.74815119075E+01  0.32821518365E+01  0.92030924518E+01  0.00000000000E+00 0. -1.
        -14    1    6    6    0    0 -0.20105953719E+02  0.14446031659E+02 -0.25523265049E+03  0.25643058140E+03  0.00000000000E+00 0.  1.
</event>
<event>
12    1  0.8421768E-002  0.1936269E+03  0.7818608E-02  0.1155379E+00
         21   -1    0    0  501  502  0.00000000000E+00  0.00000000000E+00  0.22901109568E+03  0.22901109568E+03  0.00000000000E+00 0. -1.
         21   -1    0    0  502  503 -0.00000000000E+00 -0.00000000000E+00 -0.31720462505E+03  0.31720462505E+03  0.00000000000E+00 0. -1.
         -6    2    1    2    0  503 -0.44878829022E+02 -0.78324189258E+02 -0.23446994646E+03  0.30408476718E+03  0.17129682403E+03 0.  0.
        -24    2    3    3    0    0 -0.53718238378E+02 -0.91234240916E+02 -0.24811823377E+03  0.28279696931E+03  0.84865376183E+02 0.  0.
          6    2    1    2  501    0  0.44878829022E+02  0.78324189258E+02  0.14627641709E+03  0.24213095354E+03  0.17053392786E+03 0.  0.
         24    2    5    5    0    0  0.54719254718E+02 -0.11011626493E+02  0.47739850805E+02  0.10867958844E+03  0.80104349650E+02 0.  0.
          5    1    5    5  501    0 -0.98404256955E+01  0.89335815751E+02  0.98536566282E+02  0.13345136511E+03  0.47000000000E+01 0. -1.
        -11    1    6    6    0    0 -0.16275834670E+02 -0.10883371301E+02  0.29452964965E+02  0.35367042714E+02  0.00000000000E+00 0.  1.
         12    1    6    6    0    0  0.70995089388E+02 -0.12825519167E+00  0.18286885840E+02  0.73312545723E+02  0.00000000000E+00 0. -1.
         -5    1    3    3    0  503  0.88394093558E+01  0.12910051658E+02  0.13648287312E+02  0.21287797869E+02  0.47000000000E+01 0.  1.
         11    1    4    4    0    0 -0.74435062185E+02 -0.57081174728E+02 -0.15071903852E+03  0.17752483647E+03  0.00000000000E+00 0. -1.
        -12    1    4    4    0    0  0.20716823807E+02 -0.34153066188E+02 -0.97399195248E+02  0.10527213285E+03  0.00000000000E+00 0.  1.
</event>
<event>
12    1  0.8421768E-002  0.1857617E+03  0.7818608E-02  0.1162391E+00
         21   -1    0    0  501  502  0.00000000000E+00  0.00000000000E+00  0.38951646848E+02  0.38951646848E+02  0.00000000000E+00 0. -1.
         21   -1    0    0  502  503 -0.00000000000E+00 -0.00000000000E+00 -0.89019391897E+03  0.89019391897E+03  0.00000000000E+00 0. -1.
         -6    2    1    2    0  503  0.66490356662E+02  0.30957793670E+02 -0.38991127759E+03  0.43190070832E+03  0.17066946106E+03 0.  0.
        -24    2    3    3    0    0  0.60781683919E+02  0.65752710207E+02 -0.37653626856E+03  0.39389733968E+03  0.73196452547E+02 0.  0.
          6    2    1    2  501    0 -0.66490356662E+02 -0.30957793670E+02 -0.46133099454E+03  0.49724485750E+03  0.17043124500E+03 0.  0.
         24    2    5    5    0    0 -0.26391330121E+02 -0.60729473695E+02 -0.41887468247E+03  0.43152641796E+03  0.79840331325E+02 0.  0.
          5    1    5    5  501    0 -0.40099026540E+02  0.29771680024E+02 -0.42456312070E+02  0.65718439539E+02  0.47000000000E+01 0. -1.
        -13    1    6    6    0    0 -0.76008496602E+01 -0.77862659909E+02 -0.32252203926E+03  0.33187472415E+03  0.00000000000E+00 0.  1.
         14    1    6    6    0    0 -0.18790480461E+02  0.17133186214E+02 -0.96352643210E+02  0.99651693811E+02  0.00000000000E+00 0. -1.
         -5    1    3    3    0  503  0.57086727428E+01 -0.34794916537E+02 -0.13375009022E+02  0.38003368635E+02  0.47000000000E+01 0.  1.
         11    1    4    4    0    0  0.40670778009E+02  0.11939900590E+02 -0.68529713385E+02  0.80579122771E+02  0.00000000000E+00 0. -1.
        -12    1    4    4    0    0  0.20110905910E+02  0.53812809617E+02 -0.30800655518E+03  0.31331821691E+03  0.00000000000E+00 0.  1.
</event>
<event>
12    1  0.8421768E-002  0.2420869E+03  0.7818608E-02  0.1118587E+00
         21   -1    0    0  501  502  0.00000000000E+00  0.00000000000E+00  0.14498693850E+03  0.14498693850E+03  0.00000000000E+00 0.  1.
         21   -1    0    0  502  503 -0.00000000000E+00 -0.00000000000E+00 -0.41023442112E+03  0.41023442112E+03  0.00000000000E+00 0. -1.
         -6    2    1    2    0  503 -0.16345830936E+03 -0.46638050928E+02 -0.17063256829E+03  0.29530203461E+03  0.17086278586E+03 0.  0.
        -24    2    3    3    0    0 -0.88007322498E+02 -0.66249243881E+02 -0.37705628198E+02  0.14112969043E+03  0.79759789340E+02 0.  0.
          6    2    1    2  501    0  0.16345830936E+03  0.46638050928E+02 -0.94614914332E+02  0.25991932501E+03  0.17237269739E+03 0.  0.
         24    2    5    5    0    0  0.10899179266E+03  0.97185878087E+02 -0.58468614623E+02  0.17715260915E+03  0.81487190802E+02 0.  0.
          5    1    5    5  501    0  0.54466516694E+02 -0.50547827159E+02 -0.36146299709E+02  0.82766715858E+02  0.47000000000E+01 0. -1.
        -11    1    6    6    0    0  0.86523439637E+02  0.22739182354E+02 -0.31564016519E+02  0.94866554483E+02  0.00000000000E+00 0.  1.
         12    1    6    6    0    0  0.22468353025E+02  0.74446695733E+02 -0.26904598104E+02  0.82286054665E+02  0.00000000000E+00 0. -1.
         -5    1    3    3    0  503 -0.75450986858E+02  0.19611192953E+02 -0.13292694009E+03  0.15417234418E+03  0.47000000000E+01 0.  1.
         11    1    4    4    0    0 -0.87714607140E+02 -0.63687369517E+02 -0.56445643445E+02  0.12221310898E+03  0.00000000000E+00 0. -1.
        -12    1    4    4    0    0 -0.29271535751E+00 -0.25618743637E+01  0.18740015246E+02  0.18916581456E+02  0.00000000000E+00 0.  1.
</event>
<event>
12    1  0.8421768E-002  0.2026044E+03  0.7818608E-02  0.1147829E+00
         21   -1    0    0  501  502  0.00000000000E+00  0.00000000000E+00  0.25008941333E+03  0.25008941333E+03  0.00000000000E+00 0. -1.
         21   -1    0    0  502  503 -0.00000000000E+00 -0.00000000000E+00 -0.22322250741E+03  0.22322250741E+03  0.00000000000E+00 0. -1.
         -6    2    1    2    0  503 -0.50920759373E+02  0.92658131109E+02 -0.10942826664E+03  0.22912977093E+03  0.17131098444E+03 0.  0.
        -24    2    3    3    0    0 -0.22561477958E+01 -0.14689911123E+02 -0.44472026491E+02  0.94470015525E+02  0.82011822328E+02 0.  0.
          6    2    1    2  501    0  0.50920759373E+02 -0.92658131109E+02  0.13629517256E+03  0.24418214981E+03  0.17282967114E+03 0.  0.
         24    2    5    5    0    0 -0.75089009021E+01 -0.95358490832E+02  0.43062883599E+02  0.13402014707E+03  0.83410805715E+02 0.  0.
          5    1    5    5  501    0  0.58429660276E+02  0.27003597228E+01  0.93232288965E+02  0.11016200274E+03  0.47000000000E+01 0. -1.
        -11    1    6    6    0    0 -0.32301686168E+02 -0.78687090153E+02  0.44190936050E+01  0.85173854406E+02  0.00000000000E+00 0.  1.
         12    1    6    6    0    0  0.24792785266E+02 -0.16671400679E+02  0.38643789994E+02  0.48846292663E+02  0.00000000000E+00 0. -1.
         -5    1    3    3    0  503 -0.48664611578E+02  0.10734804223E+03 -0.64956240154E+02  0.13465975541E+03  0.47000000000E+01 0.  1.
         11    1    4    4    0    0 -0.37390797964E+02 -0.60235155739E+01 -0.44299266829E+02  0.58281897308E+02  0.00000000000E+00 0. -1.
        -12    1    4    4    0    0  0.35134650168E+02 -0.86663955487E+01 -0.17275966223E+00  0.36188118218E+02  0.00000000000E+00 0.  1.
</event>
<event>
12    1  0.8421768E-002  0.2463704E+03  0.7818608E-02  0.1115624E+00
         21   -1    0    0  501  502  0.00000000000E+00  0.00000000000E+00  0.72569581499E+02  0.72569581499E+02  0.00000000000E+00 0.  1.
         21   -1    0    0  502  503 -0.00000000000E+00 -0.00000000000E+00 -0.85294120070E+03  0.85294120070E+03  0.00000000000E+00 0.  1.
         -6    2    1    2    0  503 -0.10069288359E+03  0.14487880613E+03 -0.32559673922E+03  0.40828879451E+03  0.17192317430E+03 0.  0.
        -24    2    3    3    0    0 -0.71590920782E+02  0.14163796025E+03 -0.15760403403E+03  0.23769844802E+03  0.80467067327E+02 0.  0.
          6    2    1    2  501    0  0.10069288359E+03 -0.14487880613E+03 -0.45477487998E+03  0.51722198769E+03  0.17195775009E+03 0.  0.
         24    2    5    5    0    0  0.10836078409E+02 -0.19618285689E+02 -0.93893207415E+02  0.12476547416E+03  0.79045502177E+02 0.  0.
          5    1    5    5  501    0  0.89856805179E+02 -0.12526052044E+03 -0.36088167257E+03  0.39245651353E+03  0.47000000000E+01 0. -1.
        -13    1    6    6    0    0  0.36654338612E+02 -0.32917013670E+02 -0.76261205777E+02  0.90790097668E+02  0.00000000000E+00 0.  1.
         14    1    6    6    0    0 -0.25818260203E+02  0.13298727981E+02 -0.17632001638E+02  0.33975376489E+02  0.00000000000E+00 0. -1.
         -5    1    3    3    0  503 -0.29101962806E+02  0.32408458808E+01 -0.16799270519E+03  0.17059034650E+03  0.47000000000E+01 0.  1.
         11    1    4    4    0    0  0.10881710389E+02  0.80521535208E+01  0.21604811348E+01  0.13708263057E+02  0.00000000000E+00 0. -1.
        -12    1    4    4    0    0 -0.82472631171E+02  0.13358580673E+03 -0.15976451517E+03  0.22399018496E+03  0.00000000000E+00 0.  1.
</event>
<event>
12    1  0.8421768E-002  0.1734066E+03  0.7818608E-02  0.1175332E+00
         21   -1    0    0  501  502  0.00000000000E+00  0.00000000000E+00  0.23371739197E+03  0.23371739197E+03  0.00000000000E+00 0. -1.
         21   -1    0    0  502  503 -0.00000000000E+00 -0.00000000000E+00 -0.15003722249E+03  0.15003722249E+03  0.00000000000E+00 0. -1.
         -6    2    1    2    0  503  0.12295507387E+02  0.18079621379E+02 -0.34855100493E+02  0.17687485166E+03  0.17202262324E+03 0.  0.
        -24    2    3    3    0    0 -0.21031618673E+02 -0.88520034032E+01  0.38266505240E+02  0.91993352085E+02  0.80484560360E+02 0.  0.
          6    2    1    2  501    0 -0.12295507387E+02 -0.18079621379E+02  0.11853526998E+03  0.20687976280E+03  0.16813855542E+03 0.  0.
         24    2    5    5    0    0  0.48821692243E+02 -0.23734445501E-01  0.10597911481E+03  0.14175623267E+03  0.80496574642E+02 0.  0.
          5    1    5    5  501    0 -0.61117199630E+02 -0.18055886933E+02  0.12556155165E+02  0.65123530126E+02  0.47000000000E+01 0. -1.
        -11    1    6    6    0    0 -0.20458143724E+02  0.84408423600E+01  0.39985969462E+02  0.45701873246E+02  0.00000000000E+00 0.  1.
         12    1    6    6    0    0  0.69279835967E+02 -0.84645768055E+01  0.65993145349E+02  0.96054359428E+02  0.00000000000E+00 0. -1.
         -5    1    3    3    0  503  0.33327126060E+02  0.26931624782E+02 -0.73121605732E+02  0.84881499573E+02  0.47000000000E+01 0.  1.
         11    1    4    4    0    0 -0.36339940511E+02 -0.15325810570E+02 -0.10215866775E+02  0.40741080986E+02  0.00000000000E+00 0. -1.
        -12    1    4    4    0    0  0.15308321837E+02  0.64738071672E+01  0.48482372014E+02  0.51252271099E+02  0.00000000000E+00 0.  1.
</event>
<event>
12    1  0.8421768E-002  0.1827236E+03  0.7818608E-02  0.1165233E+00
         21   -1    0    0  503  502  0.00000000000E+00  0.00000000000E+00  0.47416498927E+03  0.47416498927E+03  0.00000000000E+00 0.  1.
         21   -1    0    0  501  503 -0.00000000000E+00 -0.00000000000E+00 -0.74468765699E+02  0.74468765699E+02  0.00000000000E+00 0.  1.
          6    2    1    2  501    0 -0.47462827532E+02  0.36804078903E+02  0.13541502729E+03  0.22743162407E+03  0.17257072113E+03 0.  0.
         24    2    3    3    0    0  0.96225506121E+01 -0.37460290963E+02  0.77371610819E+02  0.11713626957E+03  0.78985268304E+02 0.  0.
         -6    2    1    2    0  502  0.47462827532E+02 -0.36804078903E+02  0.26428119629E+03  0.32120213090E+03  0.17239198926E+03 0.  0.
        -24    2    5    5    0    0  0.68805768447E+02 -0.10933150505E+02  0.26789375853E+03  0.28714384748E+03  0.76359385377E+02 0.  0.
          5    1    3    3  501    0 -0.57085378144E+02  0.74264369866E+02  0.58043416468E+02  0.11029535450E+03  0.47000000000E+01 0. -1.
        -13    1    4    4    0    0  0.28170623300E+02  0.15234506039E+02  0.30221974976E+02  0.44034554191E+02  0.00000000000E+00 0.  1.
         14    1    4    4    0    0 -0.18548072688E+02 -0.52694797002E+02  0.47149635843E+02  0.73101715381E+02  0.00000000000E+00 0. -1.
         -5    1    5    5    0  502 -0.21342940914E+02 -0.25870928398E+02 -0.36125622469E+01  0.34058283413E+02  0.47000000000E+01 0.  1.
         11    1    6    6    0    0  0.11852756557E+02  0.29272769356E+02  0.58950485805E+02  0.66877071111E+02  0.00000000000E+00 0. -1.
        -12    1    6    6    0    0  0.56953011889E+02 -0.40205919861E+02  0.20894327273E+03  0.22026677637E+03  0.00000000000E+00 0.  1.
</event>
<event>
12    1  0.8421768E-002  0.1916875E+03  0.7818608E-02  0.1157004E+00
         21   -1    0    0  501  502  0.00000000000E+00  0.00000000000E+00  0.10449016111E+04  0.10449016111E+04  0.00000000000E+00 0.  1.
         21   -1    0    0  502  503 -0.00000000000E+00 -0.00000000000E+00 -0.31180800510E+03  0.31180800510E+03  0.00000000000E+00 0. -1.
         -6    2    1    2    0  503 -0.11879391988E+02 -0.83648266285E+02 -0.27249221934E+03  0.33301682492E+03  0.17178487615E+03 0.  0.
        -24    2    3    3    0    0 -0.40666369565E+02  0.92913753369E+01 -0.11083081409E+03  0.14427634964E+03  0.82414273300E+02 0.  0.
          6    2    1    2  501    0  0.11879391988E+02  0.83648266285E+02  0.10055858254E+04  0.10236927913E+04  0.17206372767E+03 0.  0.
         24    2    5    5    0    0 -0.91605967767E+01  0.62517598319E+01  0.78119156549E+03  0.78534897618E+03  0.79935920396E+02 0.  0.
          5    1    5    5  501    0  0.21039988765E+02  0.77396506454E+02  0.22439425988E+03  0.23834381512E+03  0.47000000000E+01 0. -1.
        -11    1    6    6    0    0 -0.20348870267E+02 -0.31679597918E+02  0.49622023201E+03  0.49764665386E+03  0.00000000000E+00 0.  1.
         12    1    6    6    0    0  0.11188273490E+02  0.37931357750E+02  0.28497133348E+03  0.28770232232E+03  0.00000000000E+00 0. -1.
         -5    1    3    3    0  503  0.28786977577E+02 -0.92939641622E+02 -0.16166140524E+03  0.18874047528E+03  0.47000000000E+01 0.  1.
         13    1    4    4    0    0 -0.33992632063E+02  0.66104763828E+01 -0.12428569181E+03  0.12901988459E+03  0.00000000000E+00 0. -1.
        -14    1    4    4    0    0 -0.66737375026E+01  0.26808989542E+01  0.13454877713E+02  0.15256465047E+02  0.00000000000E+00 0.  1.
</event>
<event>
12    1  0.8421768E-002  0.2098764E+03  0.7818608E-02  0.1142063E+00
         21   -1    0    0  501  502  0.00000000000E+00  0.00000000000E+00  0.46633979542E+02  0.46633979542E+02  0.00000000000E+00 0. -1.
         21   -1    0    0  502  503 -0.00000000000E+00 -0.00000000000E+00 -0.10164460323E+04  0.10164460323E+04  0.00000000000E+00 0. -1.
         -6    2    1    2    0  503 -0.40241369706E+02 -0.10817709628E+03 -0.63700793155E+03  0.67069160366E+03  0.17528967558E+03 0.  0.
        -24    2    3    3    0    0 -0.86922712584E+02 -0.44922523477E+02 -0.44680403200E+03  0.46482780850E+03  0.82809766726E+02 0.  0.
          6    2    1    2  501    0  0.40241369706E+02  0.10817709628E+03 -0.33280412120E+03  0.39238840817E+03  0.17288269950E+03 0.  0.
         24    2    5    5    0    0  0.60378750155E+02  0.46067910717E+02 -0.94240788551E+02  0.14500688359E+03  0.79861280935E+02 0.  0.
          5    1    5    5  501    0 -0.20137380449E+02  0.62109185566E+02 -0.23856333265E+03  0.24738152459E+03  0.47000000000E+01 0. -1.
        -11    1    6    6    0    0  0.48128606919E+02 -0.11842767353E+02 -0.54739665202E+02  0.73844735012E+02  0.00000000000E+00 0.  1.
         12    1    6    6    0    0  0.12250143236E+02  0.57910678070E+02 -0.39501123348E+02  0.71162148574E+02  0.00000000000E+00 0. -1.
         -5    1    3    3    0  503  0.46681342877E+02 -0.63254572806E+02 -0.19020389955E+03  0.20586379516E+03  0.47000000000E+01 0.  1.
         13    1    4    4    0    0  0.10783189721E+02 -0.87295450013E+01 -0.14262606228E+03  0.14329925254E+03  0.00000000000E+00 0. -1.
        -14    1    4    4    0    0 -0.97705902305E+02 -0.36192978476E+02 -0.30417796972E+03  0.32152855596E+03  0.00000000000E+00 0.  1.
</event>
<event>
12    1  0.8421768E-002  0.4230163E+03  0.7818608E-02  0.1036115E+00
         21   -1    0    0  501  502  0.00000000000E+00  0.00000000000E+00  0.23305708132E+04  0.23305708132E+04  0.00000000000E+00 0. -1.
         21   -1    0    0  502  503 -0.00000000000E+00 -0.00000000000E+00 -0.96930963180E+02  0.96930963180E+02  0.00000000000E+00 0.  1.
         -6    2    1    2    0  503  0.38038145996E+03  0.68806144728E+02  0.16706841163E+04  0.17233270999E+04  0.17101618758E+03 0.  0.
        -24    2    3    3    0    0  0.25362248956E+03  0.10823262990E+03  0.12292776703E+04  0.12623672049E+04  0.80054355813E+02 0.  0.
          6    2    1    2  501    0 -0.38038145996E+03 -0.68806144728E+02  0.56295573379E+03  0.70417467647E+03  0.17180941811E+03 0.  0.
         24    2    5    5    0    0 -0.38963124264E+03 -0.58186516748E+02  0.55942034427E+03  0.68891283002E+03  0.80321789085E+02 0.  0.
          5    1    5    5  501    0  0.92497826852E+01 -0.10619627980E+02  0.35353895116E+01  0.15261846453E+02  0.47000000000E+01 0. -1.
        -13    1    6    6    0    0 -0.31573892310E+03 -0.31508049737E+02  0.49169000347E+03  0.58518619624E+03  0.00000000000E+00 0.  1.
         14    1    6    6    0    0 -0.73892319545E+02 -0.26678467011E+02  0.67730340808E+02  0.10372663378E+03  0.00000000000E+00 0. -1.
         -5    1    3    3    0  503  0.12675897040E+03 -0.39426485170E+02  0.44140644591E+03  0.46095989500E+03  0.47000000000E+01 0.  1.
         11    1    4    4    0    0  0.62662951895E+02 -0.14063237365E+01  0.37305202041E+03  0.37828089196E+03  0.00000000000E+00 0. -1.
        -12    1    4    4    0    0  0.19095953766E+03  0.10963895363E+03  0.85622564994E+03  0.88408631297E+03  0.00000000000E+00 0.  1.
</event>
<event>
12    1  0.8421768E-002  0.2318753E+03  0.7818608E-02  0.1125429E+00
         21   -1    0    0  503  502  0.00000000000E+00  0.00000000000E+00  0.15861464026E+04  0.15861464026E+04  0.00000000000E+00 0.  1.
         21   -1    0    0  501  503 -0.00000000000E+00 -0.00000000000E+00 -0.43079983013E+02  0.43079983013E+02  0.00000000000E+00 0.  1.
          6    2    1    2  501    0  0.30176929724E+02  0.15204186005E+03  0.39445853852E+03  0.45756279169E+03  0.17244939963E+03 0.  0.
         24    2    3    3    0    0 -0.31045783985E+02  0.13055864845E+03  0.33375880440E+03  0.36858921821E+03  0.80334742668E+02 0.  0.
         -6    2    1    2    0  502 -0.30176929724E+02 -0.15204186005E+03  0.11486078811E+04  0.11716635939E+04  0.17166286314E+03 0.  0.
        -24    2    5    5    0    0 -0.60212905721E+02 -0.29415124469E+02  0.55487144370E+03  0.56463433335E+03  0.80241932947E+02 0.  0.
          5    1    3    3  501    0  0.61222713710E+02  0.21483211602E+02  0.60699734113E+02  0.88973573471E+02  0.47000000000E+01 0. -1.
        -11    1    4    4    0    0 -0.86292286946E+00  0.11729689322E+03  0.21026933520E+03  0.24077478922E+03  0.00000000000E+00 0.  1.
         12    1    4    4    0    0 -0.30182861116E+02  0.13261755227E+02  0.12348946920E+03  0.12781442900E+03  0.00000000000E+00 0. -1.
         -5    1    5    5    0  502  0.30035975997E+02 -0.12262673558E+03  0.59373643737E+03  0.60702926058E+03  0.47000000000E+01 0.  1.
         11    1    6    6    0    0 -0.23968332673E+02 -0.13696667788E+02  0.42102737372E+02  0.50346004547E+02  0.00000000000E+00 0. -1.
        -12    1    6    6    0    0 -0.36244573048E+02 -0.15718456680E+02  0.51276870633E+03  0.51428832880E+03  0.00000000000E+00 0.  1.
</event>
<event>
12    1  0.8421768E-002  0.2849538E+03  0.7818608E-02  0.1093400E+00
         21   -1    0    0  503  502  0.00000000000E+00  0.00000000000E+00  0.23864537650E+03  0.23864537650E+03  0.00000000000E+00 0.  1.
         21   -1    0    0  501  503 -0.00000000000E+00 -0.00000000000E+00 -0.33777563170E+03  0.33777563170E+03  0.00000000000E+00 0. -1.
          6    2    1    2  501    0  0.32305033768E+02 -0.22291699814E+03 -0.65144191893E+02  0.29230540504E+03  0.17453676063E+03 0.  0.
         24    2    3    3    0    0 -0.35226643068E+02 -0.19188759378E+03 -0.43320655511E+02  0.21470573976E+03  0.78486371206E+02 0.  0.
         -6    2    1    2    0  502 -0.32305033768E+02  0.22291699814E+03 -0.33986063304E+02  0.28411560315E+03  0.16979699699E+03 0.  0.
        -24    2    5    5    0    0 -0.80990411517E+02  0.18592153955E+03 -0.12875749852E+02  0.21925679267E+03  0.82349806136E+02 0.  0.
          5    1    3    3  501    0  0.67531676837E+02 -0.31029404368E+02 -0.21823536383E+02  0.77599665283E+02  0.47000000000E+01 0. -1.
        -11    1    4    4    0    0 -0.28481697862E+02 -0.19801588008E+03 -0.45865096809E+02  0.20524400840E+03  0.00000000000E+00 0.  1.
         12    1    4    4    0    0 -0.67449452064E+01  0.61282863052E+01  0.25444412983E+01  0.94617313636E+01  0.00000000000E+00 0. -1.
         -5    1    5    5    0  502  0.48685377749E+02  0.36995458598E+02 -0.21110313452E+02  0.64858810485E+02  0.47000000000E+01 0.  1.
         13    1    6    6    0    0 -0.33055936401E+02  0.11230412095E+03  0.30941034627E+02  0.12108781168E+03  0.00000000000E+00 0. -1.
        -14    1    6    6    0    0 -0.47934475117E+02  0.73617418593E+02 -0.43816784479E+02  0.98168980982E+02  0.00000000000E+00 0.  1.
</event>
<event>
12    1  0.8421768E-002  0.2697661E+03  0.7818608E-02  0.1101496E+00
         21   -1    0    0  501  502  0.00000000000E+00  0.00000000000E+00  0.27073003582E+03  0.27073003582E+03  0.00000000000E+00 0.  1.
         21   -1    0    0  502  503 -0.00000000000E+00 -0.00000000000E+00 -0.67897881860E+03  0.67897881860E+03  0.00000000000E+00 0. -1.
         -6    2    1    2    0  503  0.20663936767E+03 -0.13726913112E+02 -0.57354385685E+03  0.63381883765E+03  0.17287425144E+03 0.  0.
        -24    2    3    3    0    0  0.13622370247E+03 -0.57409711077E+02 -0.47895345451E+03  0.50797771973E+03  0.82414683838E+02 0.  0.
          6    2    1    2  501    0 -0.20663936767E+03  0.13726913112E+02  0.16529507407E+03  0.31589001677E+03  0.17197611685E+03 0.  0.
         24    2    5    5    0    0 -0.19430361219E+03 -0.12267817486E+02  0.18542962309E+03  0.28045857669E+03  0.79802725914E+02 0.  0.
          5    1    5    5  501    0 -0.12335755479E+02  0.25994730598E+02 -0.20134549016E+02  0.35431440080E+02  0.47000000000E+01 0. -1.
        -13    1    6    6    0    0 -0.71532360276E+02 -0.22033982314E+02  0.11884910263E+03  0.14045456254E+03  0.00000000000E+00 0.  1.
         14    1    6    6    0    0 -0.12277125192E+03  0.97661648280E+01  0.66580520457E+02  0.14000401415E+03  0.00000000000E+00 0. -1.
         -5    1    3    3    0  503  0.70415665206E+02  0.43682797965E+02 -0.94590402334E+02  0.12584111791E+03  0.47000000000E+01 0.  1.
         11    1    4    4    0    0  0.37582873829E+02 -0.31173795233E+02 -0.28149062970E+03  0.28569433407E+03  0.00000000000E+00 0. -1.
        -12    1    4    4    0    0  0.98640828637E+02 -0.26235915843E+02 -0.19746282482E+03  0.22228338566E+03  0.00000000000E+00 0.  1.
</event>
<event>
12    1  0.8421768E-002  0.1808117E+03  0.7818608E-02  0.1168162E+00
         21   -1    0    0  501  502  0.00000000000E+00  0.00000000000E+00  0.16308574404E+03  0.16308574404E+03  0.00000000000E+00 0. -1.
         21   -1    0    0  502  503 -0.00000000000E+00 -0.00000000000E+00 -0.49276853266E+03  0.49276853266E+03  0.00000000000E+00 0. -1.
         -6    2    1    2    0  503 -0.24674448307E+02 -0.35873982522E+02 -0.42047262568E+03  0.45770089143E+03  0.17549104264E+03 0.  0.
        -24    2    3    3    0    0  0.48222660897E+02 -0.33223692370E+02 -0.16534624898E+03  0.19230953766E+03  0.78831069157E+02 0.  0.
          6    2    1    2  501    0  0.24674448307E+02  0.35873982522E+02  0.90789837061E+02  0.19815338526E+03  0.17066399315E+03 0.  0.
         24    2    5    5    0    0 -0.43598061489E+02  0.17042790703E+01  0.81351153118E+02  0.12108274895E+03  0.78353854060E+02 0.  0.
          5    1    5    5  501    0  0.68272509796E+02  0.34169703452E+02  0.94386839432E+01  0.77070636318E+02  0.47000000000E+01 0. -1.
        -13    1    6    6    0    0 -0.46581757412E+02 -0.31197256036E+02  0.57710966037E+02  0.80459210217E+02  0.00000000000E+00 0.  1.
         14    1    6    6    0    0  0.29836959225E+01  0.32901535106E+02  0.23640187081E+02  0.40623538730E+02  0.00000000000E+00 0. -1.
         -5    1    3    3    0  503 -0.72897109203E+02 -0.26502901516E+01 -0.25512637670E+03  0.26539135377E+03  0.47000000000E+01 0.  1.
         11    1    4    4    0    0  0.49215684136E+02  0.85050081872E+01 -0.12344389418E+03  0.13316498691E+03  0.00000000000E+00 0. -1.
        -12    1    4    4    0    0 -0.99302323932E+00 -0.41728700557E+02 -0.41902354806E+02  0.59144550752E+02  0.00000000000E+00 0.  1.
</event>
<event>
12    1  0.8421768E-002  0.2220971E+03  0.7818608E-02  0.1132340E+00
         21   -1    0    0  503  502  0.00000000000E+00  0.00000000000E+00  0.47436344851E+03  0.47436344851E+03  0.00000000000E+00 0. -1.
         21   -1    0    0  501  503 -0.00000000000E+00 -0.00000000000E+00 -0.23281466645E+03  0.23281466645E+03  0.00000000000E+00 0. -1.
          6    2    1    2  501    0 -0.46939978653E+02  0.13254047194E+03 -0.14228832990E+03  0.26371668317E+03  0.17184348071E+03 0.  0.
         24    2    3    3    0    0  0.40495470089E+02  0.54004877724E+02 -0.72188753784E+02  0.12679028752E+03  0.79423868710E+02 0.  0.
         -6    2    1    2    0  502  0.46939978653E+02 -0.13254047194E+03  0.38383711195E+03  0.44346143178E+03  0.17192083838E+03 0.  0.
        -24    2    5    5    0    0 -0.35078901196E+02 -0.74541383433E+02  0.26155799732E+03  0.28514130421E+03  0.78141091954E+02 0.  0.
          5    1    3    3  501    0 -0.87435448741E+02  0.78535594212E+02 -0.70099576113E+02  0.13692639565E+03  0.47000000000E+01 0. -1.
        -13    1    4    4    0    0  0.29769787041E+02 -0.11359381470E+02 -0.46672583141E+01  0.32203401498E+02  0.00000000000E+00 0.  1.
         14    1    4    4    0    0  0.10725683047E+02  0.65364259194E+02 -0.67521495470E+02  0.94586886022E+02  0.00000000000E+00 0. -1.
         -5    1    5    5    0  502  0.82018879848E+02 -0.57999088503E+02  0.12227911464E+03  0.15832012758E+03  0.47000000000E+01 0.  1.
         11    1    6    6    0    0  0.22419999588E+02 -0.23819885661E+02  0.46736361950E+02  0.57046742788E+02  0.00000000000E+00 0. -1.
        -12    1    6    6    0    0 -0.57498900783E+02 -0.50721497772E+02  0.21482163537E+03  0.22809456142E+03  0.00000000000E+00 0.  1.
</event>
<event>
12    1  0.8421768E-002  0.3024473E+03  0.7818608E-02  0.1084052E+00
         21   -1    0    0  501  502  0.00000000000E+00  0.00000000000E+00  0.58299602851E+03  0.58299602851E+03  0.00000000000E+00 0.  1.
         21   -1    0    0  502  503 -0.00000000000E+00 -0.00000000000E+00 -0.17010531254E+03  0.17010531254E+03  0.00000000000E+00 0.  1.
         -6    2    1    2    0  503 -0.22053188662E+03  0.11484943738E+03  0.10115068867E+03  0.31891349997E+03  0.17219074412E+03 0.  0.
        -24    2    3    3    0    0 -0.32298785211E+02  0.70109935670E+02  0.14782832685E+02  0.10698233184E+03  0.72581489218E+02 0.  0.
          6    2    1    2  501    0  0.22053188662E+03 -0.11484943738E+03  0.31174002730E+03  0.43418784108E+03  0.17179211401E+03 0.  0.
         24    2    5    5    0    0  0.20994537231E+03 -0.88102862929E+02  0.18524686265E+03  0.30438004380E+03  0.80570696504E+02 0.  0.
          5    1    5    5  501    0  0.10586514313E+02 -0.26746574453E+02  0.12649316465E+03  0.12980779728E+03  0.47000000000E+01 0. -1.
        -11    1    6    6    0    0  0.14574755745E+03 -0.19066563243E+02  0.10598972603E+03  0.18121729046E+03  0.00000000000E+00 0.  1.
         12    1    6    6    0    0  0.64197814854E+02 -0.69036299686E+02  0.79257136619E+02  0.12316275334E+03  0.00000000000E+00 0. -1.
         -5    1    3    3    0  503 -0.18823310141E+03  0.44739501713E+02  0.86367855988E+02  0.21193116813E+03  0.47000000000E+01 0.  1.
         13    1    4    4    0    0 -0.19832308711E+02 -0.72251658493E+01  0.19187489491E+02  0.28525133537E+02  0.00000000000E+00 0. -1.
        -14    1    4    4    0    0 -0.12466476501E+02  0.77335101519E+02 -0.44046568062E+01  0.78457198299E+02  0.00000000000E+00 0.  1.
</event>
<event>
12    1  0.8421768E-002  0.2348339E+03  0.7818608E-02  0.1123560E+00
         21   -1    0    0  501  502  0.00000000000E+00  0.00000000000E+00  0.10293530399E+04  0.10293530399E+04  0.00000000000E+00 0. -1.
         21   -1    0    0  502  503 -0.00000000000E+00 -0.00000000000E+00 -0.56517027430E+02  0.56517027430E+02  0.00000000000E+00 0.  1.
         -6    2    1    2    0  503 -0.10601425415E+03 -0.11889406574E+03  0.35661743423E+03  0.42699293600E+03  0.17254608673E+03 0.  0.
        -24    2    3    3    0    0 -0.14550274019E+01 -0.85430178100E+02  0.23482113934E+03  0.26295363850E+03  0.81873170744E+02 0.  0.
          6    2    1    2  501    0  0.10601425415E+03  0.11889406574E+03  0.61621857821E+03  0.65887713130E+03  0.17034939704E+03 0.  0.
         24    2    5    5    0    0  0.91072161648E+02  0.47987926884E+02  0.21549942198E+03  0.25163165395E+03  0.79255969118E+02 0.  0.
          5    1    5    5  501    0  0.14942092497E+02  0.70906138859E+02  0.40071915622E+03  0.40724547735E+03  0.47000000000E+01 0. -1.
        -13    1    6    6    0    0  0.44770135293E+02 -0.12732492437E+02  0.12404341978E+03  0.13248868393E+03  0.00000000000E+00 0.  1.
         14    1    6    6    0    0  0.46302026355E+02  0.60720419321E+02  0.91456002203E+02  0.11914297002E+03  0.00000000000E+00 0. -1.
         -5    1    3    3    0  503 -0.10455922674E+03 -0.33463887644E+02  0.12179629490E+03  0.16403929750E+03  0.47000000000E+01 0.  1.
         11    1    4    4    0    0 -0.99295405505E+00  0.85000508893E+00  0.11653814703E+03  0.11654547687E+03  0.00000000000E+00 0. -1.
        -12    1    4    4    0    0 -0.46207334688E+00 -0.86280183189E+02  0.11828299231E+03  0.14640816163E+03  0.00000000000E+00 0.  1.
</event>
<event>
12    1  0.8421768E-002  0.2219153E+03  0.7818608E-02  0.1132657E+00
         21   -1    0    0  501  502  0.00000000000E+00  0.00000000000E+00  0.37015874938E+03  0.37015874938E+03  0.00000000000E+00 0. -1.
         21   -1    0    0  502  503 -0.00000000000E+00 -0.00000000000E+00 -0.15614110616E+03  0.15614110616E+03  0.00000000000E+00 0. -1.
         -6    2    1    2    0  503 -0.12369413874E+03 -0.62636400633E+02  0.46405717734E+01  0.22196381110E+03  0.17327100129E+03 0.  0.
        -24    2    3    3    0    0 -0.13147196570E+03 -0.99385506822E+00 -0.22541969745E+02  0.15398382449E+03  0.76922118344E+02 0.  0.
          6    2    1    2  501    0  0.12369413874E+03  0.62636400633E+02  0.20937707144E+03  0.30433604444E+03  0.17192472556E+03 0.  0.
         24    2    5    5    0    0  0.15081634099E+03  0.43504121226E+02  0.14482223682E+03  0.23159627097E+03  0.89583342079E+02 0.  0.
          5    1    5    5  501    0 -0.27122202255E+02  0.19132279407E+02  0.64554834623E+02  0.72739773465E+02  0.47000000000E+01 0. -1.
        -13    1    6    6    0    0  0.20902231551E+02 -0.25687890468E+02  0.20682834829E+02  0.39045494708E+02  0.00000000000E+00 0.  1.
         14    1    6    6    0    0  0.12991410944E+03  0.69192011694E+02  0.12413940199E+03  0.19255077627E+03  0.00000000000E+00 0. -1.
         -5    1    3    3    0  503  0.77778269668E+01 -0.61642545565E+02  0.27182541518E+02  0.67979986610E+02  0.47000000000E+01 0.  1.
         11    1    4    4    0    0 -0.57624964521E+01 -0.23734056148E+02 -0.61565363559E+01  0.25187590724E+02  0.00000000000E+00 0. -1.
        -12    1    4    4    0    0 -0.12570946925E+03  0.22740201080E+02 -0.16385433389E+02  0.12879623377E+03  0.00000000000E+00 0.  1.
</event>
<event>
12    1  0.8421768E-002  0.2995727E+03  0.7818608E-02  0.1085866E+00
         21   -1    0    0  503  502  0.00000000000E+00  0.00000000000E+00  0.45080707913E+03  0.45080707913E+03  0.00000000000E+00 0.  1.
         21   -1    0    0  501  503 -0.00000000000E+00 -0.00000000000E+00 -0.55583109517E+03  0.55583109517E+03  0.00000000000E+00 0. -1.
          6    2    1    2  501    0  0.22050993333E+03  0.98067505913E+02 -0.45686394941E+03  0.54453954098E+03  0.17192084519E+03 0.  0.
         24    2    3    3    0    0  0.12828817201E+03  0.70232769622E+02 -0.15606799123E+03  0.22865993692E+03  0.80855747223E+02 0.  0.
         -6    2    1    2    0  502 -0.22050993333E+03 -0.98067505913E+02  0.35183993337E+03  0.46209863332E+03  0.17748786378E+03 0.  0.
        -24    2    5    5    0    0 -0.67560448168E+02 -0.72922269227E+02  0.83651449053E+02  0.15230357032E+03  0.79477928370E+02 0.  0.
          5    1    3    3  501    0  0.92221761317E+02  0.27834736290E+02 -0.30079595818E+03  0.31587960406E+03  0.47000000000E+01 0. -1.
        -11    1    4    4    0    0 -0.42108295733E+01  0.27491822801E+02 -0.28718666441E+02  0.39978659417E+02  0.00000000000E+00 0.  1.
         12    1    4    4    0    0  0.13249900158E+03  0.42740946821E+02 -0.12734932479E+03  0.18868127750E+03  0.00000000000E+00 0. -1.
         -5    1    5    5    0  502 -0.15294948516E+03 -0.25145236686E+02  0.26818848431E+03  0.30979506300E+03  0.47000000000E+01 0.  1.
         13    1    6    6    0    0  0.12627930075E+02 -0.75277805104E+01 -0.55250806889E+01  0.15705368955E+02  0.00000000000E+00 0. -1.
        -14    1    6    6    0    0 -0.80188378242E+02 -0.65394488717E+02  0.89176529742E+02  0.13659820137E+03  0.00000000000E+00 0.  1.
</event>
<event>
12    1  0.8421768E-002  0.1881087E+03  0.7818608E-02  0.1162826E+00
         21   -1    0    0  501  502  0.00000000000E+00  0.00000000000E+00  0.97668702736E+03  0.97668702736E+03  0.00000000000E+00 0. -1.
         21   -1    0    0  502  503 -0.00000000000E+00 -0.00000000000E+00 -0.63634068793E+02  0.63634068793E+02  0.00000000000E+00 0. -1.
         -6    2    1    2    0  503  0.28248649412E+02 -0.71674657565E+02  0.10977557990E+03  0.21779707561E+03  0.17160899006E+03 0.  0.
        -24    2    3    3    0    0  0.75049870063E+02 -0.22833425569E+02  0.96918893730E+02  0.14878110226E+03  0.81170783594E+02 0.  0.
          6    2    1    2  501    0 -0.28248649412E+02  0.71674657565E+02  0.80327737867E+03  0.82252402055E+03  0.15923559452E+03 0.  0.
         24    2    5    5    0    0 -0.23199473774E+02  0.11093511480E+03  0.66635365227E+03  0.67991590532E+03  0.73577395541E+02 0.  0.
          5    1    5    5  501    0 -0.50491756380E+01 -0.39260457237E+02  0.13692372640E+03  0.14260811522E+03  0.47000000000E+01 0. -1.
        -13    1    6    6    0    0  0.26644438200E+02  0.35139694275E+02  0.19692999196E+03  0.20180719990E+03  0.00000000000E+00 0.  1.
         14    1    6    6    0    0 -0.49843911974E+02  0.75795420527E+02  0.46942366032E+03  0.47810870542E+03  0.00000000000E+00 0. -1.
         -5    1    3    3    0  503 -0.46801220652E+02 -0.48841231995E+02  0.12856686167E+02  0.69015973343E+02  0.47000000000E+01 0.  1.
         13    1    4    4    0    0  0.72241991872E+02 -0.16532939068E+02  0.27541836114E+02  0.79061976957E+02  0.00000000000E+00 0. -1.
        -14    1    4    4    0    0  0.28078781917E+01 -0.63004865013E+01  0.69377057616E+02  0.69719125307E+02  0.00000000000E+00 0.  1.
</event>
<event>
12    1  0.8421768E-002  0.1815392E+03  0.7818608E-02  0.1166346E+00
         21   -1    0    0  503  502  0.00000000000E+00  0.00000000000E+00  0.15564163459E+04  0.15564163459E+04  0.00000000000E+00 0.  1.
         21   -1    0    0  501  503 -0.00000000000E+00 -0.00000000000E+00 -0.45000541453E+03  0.45000541453E+03  0.00000000000E+00 0.  1.
          6    2    1    2  501    0  0.32390283885E+02  0.44004473765E+02 -0.42613889856E+03  0.46315721841E+03  0.17301654227E+03 0.  0.
         24    2    3    3    0    0  0.67026744295E+02  0.37149789233E+02 -0.41343975395E+03  0.42534148936E+03  0.64111318309E+02 0.  0.
         -6    2    1    2    0  502 -0.32390283885E+02 -0.44004473765E+02  0.15325498300E+04  0.15432645420E+04  0.17312117494E+03 0.  0.
        -24    2    5    5    0    0 -0.76601034005E+02 -0.68802531014E+02  0.10527442190E+04  0.10607657872E+04  0.79700427058E+02 0.  0.
          5    1    3    3  501    0 -0.34636460411E+02  0.68546845323E+01 -0.12699144612E+02  0.37815729051E+02  0.47000000000E+01 0. -1.
        -13    1    4    4    0    0  0.53949045857E+02  0.41276090850E+01 -0.14885643288E+03  0.15838489295E+03  0.00000000000E+00 0.  1.
         14    1    4    4    0    0  0.13077698438E+02  0.33022180148E+02 -0.26458332107E+03  0.26695659641E+03  0.00000000000E+00 0. -1.
         -5    1    5    5    0  502  0.44210750120E+02  0.24798057249E+02  0.47980561097E+03  0.48249875480E+03  0.47000000000E+01 0.  1.
         11    1    6    6    0    0 -0.56011246300E+02 -0.27770437210E+02  0.29101825770E+03  0.29765766110E+03  0.00000000000E+00 0. -1.
        -12    1    6    6    0    0 -0.20589787705E+02 -0.41032093804E+02  0.76172596128E+03  0.76310812613E+03  0.00000000000E+00 0.  1.
</event>
<event>
12    1  0.8421768E-002  0.3012105E+03  0.7818608E-02  0.1084951E+00
         21   -1    0    0  503  502  0.00000000000E+00  0.00000000000E+00  0.17662174543E+04  0.17662174543E+04  0.00000000000E+00 0.  1.
         21   -1    0    0  501  503 -0.00000000000E+00 -0.00000000000E+00 -0.91620841978E+02  0.91620841978E+02  0.00000000000E+00 0.  1.
          6    2    1    2  501    0  0.24092235299E+03 -0.44999692529E+02  0.22027806321E+03  0.37316244599E+03  0.17509778260E+03 0.  0.
         24    2    3    3    0    0  0.14484483118E+03 -0.90384151614E+02  0.10313092656E+03  0.21493419014E+03  0.80071206423E+02 0.  0.
         -6    2    1    2    0  502 -0.24092235299E+03  0.44999692529E+02  0.14543185491E+04  0.14846758503E+04  0.17073776861E+03 0.  0.
        -24    2    5    5    0    0 -0.46289565409E+02 -0.36756399319E+01  0.34496715529E+03  0.35731884607E+03  0.80735279331E+02 0.  0.
          5    1    3    3  501    0  0.96077521809E+02  0.45384459085E+02  0.11714713665E+03  0.15822825585E+03  0.47000000000E+01 0. -1.
        -11    1    4    4    0    0  0.12333669365E+03 -0.33586047854E+02  0.68705189207E+02  0.14512189923E+03  0.00000000000E+00 0.  1.
         12    1    4    4    0    0  0.21508137524E+02 -0.56798103761E+02  0.34425737353E+02  0.69812290916E+02  0.00000000000E+00 0. -1.
         -5    1    5    5    0  502 -0.19463278758E+03  0.48675332461E+02  0.11093513938E+04  0.11273570042E+04  0.47000000000E+01 0.  1.
         13    1    6    6    0    0  0.10063890018E+02  0.24550003405E+01  0.21830570877E+03  0.21855134727E+03  0.00000000000E+00 0. -1.
        -14    1    6    6    0    0 -0.56353455427E+02 -0.61306402724E+01  0.12666144652E+03  0.13876749880E+03  0.00000000000E+00 0.  1.
</event>
<event>
12    1  0.8421768E-002  0.2459522E+03  0.7818608E-02  0.1116244E+00
         21   -1    0    0  501  502  0.00000000000E+00  0.00000000000E+00  0.99469784905E+03  0.99469784905E+03  0.00000000000E+00 0. -1.
         21   -1    0    0  502  503 -0.00000000000E+00 -0.00000000000E+00 -0.69375723847E+02  0.69375723847E+02  0.00000000000E+00 0.  1.
         -6    2    1    2    0  503 -0.14503379115E+03 -0.95353621337E+02  0.65355301787E+03  0.69753442403E+03  0.17115960934E+03 0.  0.
        -24    2    3    3    0    0 -0.13621375010E+03 -0.47137429384E+02  0.60928619719E+03  0.63132086271E+03  0.80995300087E+02 0.  0.
          6    2    1    2  501    0  0.14503379115E+03  0.95353621337E+02  0.27176910733E+03  0.36653914886E+03  0.17425666780E+03 0.  0.
         24    2    5    5    0    0  0.10613818714E+03  0.12527889027E+01  0.99718067134E+02  0.16656043722E+03  0.80819564992E+02 0.  0.
          5    1    5    5  501    0  0.38895604009E+02  0.94100832435E+02  0.17205104020E+03  0.19997871164E+03  0.47000000000E+01 0. -1.
        -11    1    6    6    0    0  0.13423073919E+02  0.29753656628E+02  0.92606541148E+01  0.33929614068E+02  0.00000000000E+00 0.  1.
         12    1    6    6    0    0  0.92715113218E+02 -0.28500867725E+02  0.90457413019E+02  0.13263082315E+03  0.00000000000E+00 0. -1.
         -5    1    3    3    0  503 -0.88200410507E+01 -0.48216191954E+02  0.44266820677E+02  0.66213561326E+02  0.47000000000E+01 0.  1.
         11    1    4    4    0    0 -0.37089795662E+02  0.12270442278E+02  0.73754160584E+02  0.83461924849E+02  0.00000000000E+00 0. -1.
        -12    1    4    4    0    0 -0.99123954434E+02 -0.59407871662E+02  0.53553203661E+03  0.54785893786E+03  0.00000000000E+00 0.  1.
</event>
<event>
12    1  0.8421768E-002  0.2402840E+03  0.7818608E-02  0.1119865E+00
         21   -1    0    0  503  502  0.00000000000E+00  0.00000000000E+00  0.61721853518E+02  0.61721853518E+02  0.00000000000E+00 0. -1.
         21   -1    0    0  501  503 -0.00000000000E+00 -0.00000000000E+00 -0.98851834911E+03  0.98851834911E+03  0.00000000000E+00 0. -1.
          6    2    1    2  501    0 -0.12724488652E+03 -0.10798860060E+03 -0.59331309775E+03  0.64012250959E+03  0.17286872567E+03 0.  0.
         24    2    3    3    0    0 -0.11004068657E+03 -0.77001631466E+02 -0.58086624282E+03  0.60226500109E+03  0.85319022115E+02 0.  0.
         -6    2    1    2    0  502  0.12724488652E+03  0.10798860060E+03 -0.33348339785E+03  0.41011769304E+03  0.17068258991E+03 0.  0.
        -24    2    5    5    0    0  0.78616729172E+02  0.10244974832E+03 -0.32729125138E+03  0.36056157082E+03  0.78794302366E+02 0.  0.
          5    1    3    3  501    0 -0.17204199955E+02 -0.30986969137E+02 -0.12446854926E+02  0.37857508501E+02  0.47000000000E+01 0. -1.
        -11    1    4    4    0    0 -0.57799633956E+02 -0.84884229675E+02 -0.43978083957E+03  0.45161190970E+03  0.00000000000E+00 0.  1.
         12    1    4    4    0    0 -0.52241052612E+02  0.78825982086E+01 -0.14108540325E+03  0.15065309138E+03  0.00000000000E+00 0. -1.
         -5    1    5    5    0  502  0.48628157351E+02  0.55388522808E+01 -0.61921464691E+01  0.49556122224E+02  0.47000000000E+01 0.  1.
         11    1    6    6    0    0  0.35211284640E+02  0.71241876851E+01 -0.35355403519E+02  0.50404297180E+02  0.00000000000E+00 0. -1.
        -12    1    6    6    0    0  0.43405444532E+02  0.95325560637E+02 -0.29193584786E+03  0.31015727364E+03  0.00000000000E+00 0.  1.
</event>
<event>
12    1  0.8421768E-002  0.1761201E+03  0.7818608E-02  0.1172643E+00
         21   -1    0    0  501  502  0.00000000000E+00  0.00000000000E+00  0.88409320445E+02  0.88409320445E+02  0.00000000000E+00 0. -1.
         21   -1    0    0  502  503 -0.00000000000E+00 -0.00000000000E+00 -0.46604823716E+03  0.46604823716E+03  0.00000000000E+00 0. -1.
         -6    2    1    2    0  503 -0.13254681339E+02  0.17898798365E+02 -0.33304213862E+03  0.37674307260E+03  0.17470610492E+03 0.  0.
        -24    2    3    3    0    0  0.17420187349E+02  0.46533759129E+02 -0.31888921008E+03  0.33220877196E+03  0.78762213022E+02 0.  0.
          6    2    1    2  501    0  0.13254681339E+02 -0.17898798365E+02 -0.44596778089E+02  0.17771448500E+03  0.17057992849E+03 0.  0.
         24    2    5    5    0    0  0.42197502700E+02  0.28916397717E+02 -0.69747124826E+02  0.11701869080E+03  0.78815767994E+02 0.  0.
          5    1    5    5  501    0 -0.28942821361E+02 -0.46815196082E+02  0.25150346737E+02  0.60695794199E+02  0.47000000000E+01 0. -1.
        -13    1    6    6    0    0  0.63855301443E+01  0.27945143285E+02 -0.75478005635E+02  0.80738066382E+02  0.00000000000E+00 0.  1.
         14    1    6    6    0    0  0.35811972555E+02  0.97125443155E+00  0.57308808085E+01  0.36280624420E+02  0.00000000000E+00 0. -1.
         -5    1    3    3    0  503 -0.30674868688E+02 -0.28634960764E+02 -0.14152928548E+02  0.44534300640E+02  0.47000000000E+01 0.  1.
         13    1    4    4    0    0  0.34021820832E+02  0.16279154110E+02 -0.58910440635E+02  0.69949518705E+02  0.00000000000E+00 0. -1.
        -14    1    4    4    0    0 -0.16601633482E+02  0.30254605018E+02 -0.25997876944E+03  0.26225925326E+03  0.00000000000E+00 0.  1.
</event>
<event>
12    1  0.8421768E-002  0.1827377E+03  0.7818608E-02  0.1166203E+00
         21   -1    0    0  501  502  0.00000000000E+00  0.00000000000E+00  0.28949426390E+02  0.28949426390E+02  0.00000000000E+00 0. -1.
         21   -1    0    0  502  503 -0.00000000000E+00 -0.00000000000E+00 -0.16586154870E+04  0.16586154870E+04  0.00000000000E+00 0. -1.
         -6    2    1    2    0  503 -0.33919305827E+02  0.53841589070E+02 -0.12860895181E+04  0.12984146775E+04  0.16674828420E+03 0.  0.
        -24    2    3    3    0    0  0.35495772006E+02  0.47432423653E+02 -0.86970318204E+03  0.87620714411E+03  0.88575108798E+02 0.  0.
          6    2    1    2  501    0  0.33919305827E+02 -0.53841589070E+02 -0.34357654257E+03  0.38915023590E+03  0.17129982334E+03 0.  0.
         24    2    5    5    0    0  0.14235905056E+00  0.35407795164E+02 -0.17612462876E+03  0.19635872115E+03  0.79266198934E+02 0.  0.
          5    1    5    5  501    0  0.33776946776E+02 -0.89249384233E+02 -0.16745191381E+03  0.19279151475E+03  0.47000000000E+01 0. -1.
        -13    1    6    6    0    0 -0.90447863816E+01  0.92345080055E+00 -0.15421473750E+03  0.15448251093E+03  0.00000000000E+00 0.  1.
         14    1    6    6    0    0  0.91871454321E+01  0.34484344363E+02 -0.21909891255E+02  0.41876210217E+02  0.00000000000E+00 0. -1.
         -5    1    3    3    0  503 -0.69415077833E+02  0.64091654168E+01 -0.41638633605E+03  0.42220753343E+03  0.47000000000E+01 0.  1.
         13    1    4    4    0    0 -0.22067623550E+00  0.65399849476E+02 -0.60057305030E+03  0.60412347890E+03  0.00000000000E+00 0. -1.
        -14    1    4    4    0    0  0.35716448242E+02 -0.17967425823E+02 -0.26913013173E+03  0.27208366521E+03  0.00000000000E+00 0.  1.
</event>
<event>
12    1  0.8421768E-002  0.1831145E+03  0.7818608E-02  0.1165611E+00
         21   -1    0    0  501  502  0.00000000000E+00  0.00000000000E+00  0.20560312081E+03  0.20560312081E+03  0.00000000000E+00 0. -1.
         21   -1    0    0  502  503 -0.00000000000E+00 -0.00000000000E+00 -0.27400272454E+03  0.27400272454E+03  0.00000000000E+00 0. -1.
         -6    2    1    2    0  503 -0.36849784419E+02 -0.50021873292E+02 -0.18895077001E+03  0.26312226861E+03  0.17225225784E+03 0.  0.
        -24    2    3    3    0    0 -0.46144186542E+02 -0.97818538373E+02 -0.13784472949E+03  0.19237748448E+03  0.79436607966E+02 0.  0.
          6    2    1    2  501    0  0.36849784419E+02  0.50021873292E+02  0.12055116627E+03  0.21648357674E+03  0.16873784665E+03 0.  0.
         24    2    5    5    0    0  0.52816701121E+02  0.91596739349E+02  0.72674848734E+02  0.15092716060E+03  0.79484637458E+02 0.  0.
          5    1    5    5  501    0 -0.15966916703E+02 -0.41574866057E+02  0.47876317537E+02  0.65556416143E+02  0.47000000000E+01 0. -1.
        -13    1    6    6    0    0  0.33007507533E+02  0.64870347287E+02  0.19980694035E+01  0.72812428829E+02  0.00000000000E+00 0.  1.
         14    1    6    6    0    0  0.19809193588E+02  0.26726392062E+02  0.70676779330E+02  0.78114731771E+02  0.00000000000E+00 0. -1.
         -5    1    3    3    0  503  0.92944021232E+01  0.47796665081E+02 -0.51106040520E+02  0.70744784128E+02  0.47000000000E+01 0.  1.
         13    1    4    4    0    0  0.43607778221E+01 -0.20710658689E+02 -0.81815698270E+02  0.84508912252E+02  0.00000000000E+00 0. -1.
        -14    1    4    4    0    0 -0.50504964364E+02 -0.77107879685E+02 -0.56029031219E+02  0.10786857223E+03  0.00000000000E+00 0.  1.
</event>
<event>
12    1  0.8421768E-002  0.2474898E+03  0.7818608E-02  0.1115097E+00
         21   -1    0    0  501  502  0.00000000000E+00  0.00000000000E+00  0.31331696468E+03  0.31331696468E+03  0.00000000000E+00 0.  1.
         21   -1    0    0  502  503 -0.00000000000E+00 -0.00000000000E+00 -0.26873724701E+03  0.26873724701E+03  0.00000000000E+00 0. -1.
         -6    2    1    2    0  503  0.74212463708E+02  0.16055675219E+03 -0.13067983679E+03  0.27879341463E+03  0.17135515123E+03 0.  0.
        -24    2    3    3    0    0  0.15777536401E+01  0.12570342475E+03 -0.34149184782E+02  0.15297285861E+03  0.80191572802E+02 0.  0.
          6    2    1    2  501    0 -0.74212463708E+02 -0.16055675219E+03  0.17525955447E+03  0.30326079706E+03  0.17310470577E+03 0.  0.
         24    2    5    5    0    0 -0.77063030992E+02 -0.18816540803E+03  0.15327216815E+03  0.26754107187E+03  0.82103203850E+02 0.  0.
          5    1    5    5  501    0  0.28505672840E+01  0.27608655839E+02  0.21987386316E+02  0.35719725196E+02  0.47000000000E+01 0. -1.
        -13    1    6    6    0    0 -0.19978171210E+02 -0.13088029708E+03  0.12439837204E+03  0.18166929970E+03  0.00000000000E+00 0.  1.
         14    1    6    6    0    0 -0.57084859783E+02 -0.57285110950E+02  0.28873796110E+02  0.85871772165E+02  0.00000000000E+00 0. -1.
         -5    1    3    3    0  503  0.72634710068E+02  0.34853327438E+02 -0.96530652013E+02  0.12582055602E+03  0.47000000000E+01 0.  1.
         13    1    4    4    0    0  0.27686191855E+02  0.44460811932E+02 -0.42196632882E+02  0.67259533478E+02  0.00000000000E+00 0. -1.
        -14    1    4    4    0    0 -0.26108438215E+02  0.81242612821E+02  0.80474481005E+01  0.85713325130E+02  0.00000000000E+00 0.  1.
</event>
<event>
12    1  0.8421768E-002  0.2122523E+03  0.7818608E-02  0.1139887E+00
         21   -1    0    0  503  502  0.00000000000E+00  0.00000000000E+00  0.55107583366E+03  0.55107583366E+03  0.00000000000E+00 0.  1.
         21   -1    0    0  501  503 -0.00000000000E+00 -0.00000000000E+00 -0.13312183400E+03  0.13312183400E+03  0.00000000000E+00 0. -1.
          6    2    1    2  501    0  0.10536563600E+03  0.63532135207E+02 -0.40542374470E+01  0.21181860388E+03  0.17237295221E+03 0.  0.
         24    2    3    3    0    0 -0.14327597735E+02  0.37877080151E+02  0.12874340230E+02  0.88152445232E+02  0.77234394581E+02 0.  0.
         -6    2    1    2    0  502 -0.10536563600E+03 -0.63532135207E+02  0.42200823710E+03  0.47237906378E+03  0.17295311001E+03 0.  0.
        -24    2    5    5    0    0 -0.10488966542E+03 -0.99109404094E+02  0.39307116655E+03  0.42627686577E+03  0.79890602849E+02 0.  0.
          5    1    3    3  501    0  0.11969323374E+03  0.25655055056E+02 -0.16928577677E+02  0.12366615865E+03  0.47000000000E+01 0. -1.
        -11    1    4    4    0    0 -0.29073330616E+02  0.10174218267E+02  0.37307356651E+02  0.48379873199E+02  0.00000000000E+00 0.  1.
         12    1    4    4    0    0  0.14745732880E+02  0.27702861884E+02 -0.24433016421E+02  0.39772572033E+02  0.00000000000E+00 0. -1.
         -5    1    5    5    0  502 -0.47597057968E+00  0.35577268887E+02  0.28937070553E+02  0.46102198014E+02  0.47000000000E+01 0.  1.
         13    1    6    6    0    0 -0.68025581315E+02 -0.11111915557E+02  0.14700706294E+03  0.16236388433E+03  0.00000000000E+00 0. -1.
        -14    1    6    6    0    0 -0.36864084106E+02 -0.87997488537E+02  0.24606410360E+03  0.26391298143E+03  0.00000000000E+00 0.  1.
</event>
<event>
12    1  0.8421768E-002  0.2351453E+03  0.7818608E-02  0.1123256E+00
         21   -1    0    0  501  502  0.00000000000E+00  0.00000000000E+00  0.13297743857E+03  0.13297743857E+03  0.00000000000E+00 0. -1.
         21   -1    0    0  502  503 -0.00000000000E+00 -0.00000000000E+00 -0.74005010749E+03  0.74005010749E+03  0.00000000000E+00 0.  1.
         -6    2    1    2    0  503  0.12518057129E+02 -0.15992277802E+03 -0.59293152639E+03  0.63745744823E+03  0.17044707870E+03 0.  0.
        -24    2    3    3    0    0  0.10813743608E+02 -0.10509132551E+03 -0.55520962994E+03  0.57071597431E+03  0.79359097831E+02 0.  0.
          6    2    1    2  501    0 -0.12518057129E+02  0.15992277802E+03 -0.14141142537E+02  0.23557009783E+03  0.17193400592E+03 0.  0.
         24    2    5    5    0    0  0.56487806489E+02  0.10640037539E+03 -0.40207732818E+01  0.14753051201E+03  0.85071576866E+02 0.  0.
          5    1    5    5  501    0 -0.69005863618E+02  0.53522402636E+02 -0.10120369255E+02  0.88039585820E+02  0.47000000000E+01 0. -1.
        -11    1    6    6    0    0  0.80418064327E+01  0.13883749791E+02  0.33028950239E+02  0.36719759161E+02  0.00000000000E+00 0.  1.
         12    1    6    6    0    0  0.48446000056E+02  0.92516625596E+02 -0.37049723520E+02  0.11081075285E+03  0.00000000000E+00 0. -1.
         -5    1    3    3    0  503  0.17043135210E+01 -0.54831452518E+02 -0.37721896453E+02  0.66741473927E+02  0.47000000000E+01 0.  1.
         13    1    4    4    0    0  0.29634154475E+02 -0.64100154027E+02 -0.18941760568E+03  0.20215351147E+03  0.00000000000E+00 0. -1.
        -14    1    4    4    0    0 -0.18820410867E+02 -0.40991171479E+02 -0.36579202425E+03  0.36856246283E+03  0.00000000000E+00 0.  1.
</event>
<event>
12    1  0.8421768E-002  0.1747046E+03  0.7818608E-02  0.1173271E+00
         21   -1    0    0  501  502  0.00000000000E+00  0.00000000000E+00  0.16585905333E+03  0.16585905333E+03  0.00000000000E+00 0. -1.
         21   -1    0    0  502  503 -0.00000000000E+00 -0.00000000000E+00 -0.20529048087E+03  0.20529048087E+03  0.00000000000E+00 0. -1.
         -6    2    1    2    0  503 -0.27569011898E+01 -0.21669319138E+02 -0.80896898750E+02  0.19252530990E+03  0.17333357098E+03 0.  0.
        -24    2    3    3    0    0  0.21289641281E+02  0.25160929812E+02 -0.10342569747E+03  0.13507145717E+03  0.80380983003E+02 0.  0.
          6    2    1    2  501    0  0.27569011898E+01  0.21669319138E+02  0.41465471209E+02  0.17862422431E+03  0.17236608805E+03 0.  0.
         24    2    5    5    0    0  0.22032037208E+02 -0.47930678178E+02  0.45187231956E+02  0.10615607959E+03  0.80277435987E+02 0.  0.
          5    1    5    5  501    0 -0.19275136018E+02  0.69599997316E+02 -0.37217607470E+01  0.72468144712E+02  0.47000000000E+01 0. -1.
        -11    1    6    6    0    0  0.13015963758E+02 -0.11429624338E+02 -0.22699077310E+02  0.28553454009E+02  0.00000000000E+00 0.  1.
         12    1    6    6    0    0  0.90160734490E+01 -0.36501053840E+02  0.67886309266E+02  0.77602625585E+02  0.00000000000E+00 0. -1.
         -5    1    3    3    0  503 -0.24046542471E+02 -0.46830248950E+02  0.22528798723E+02  0.57453852730E+02  0.47000000000E+01 0.  1.
         13    1    4    4    0    0 -0.46810990687E+01  0.20211979439E+02 -0.10645733765E+03  0.10846013803E+03  0.00000000000E+00 0. -1.
        -14    1    4    4    0    0  0.25970740350E+02  0.49489503730E+01  0.30316401783E+01  0.26611319139E+02  0.00000000000E+00 0.  1.
</event>
<event>
12    1  0.8421768E-002  0.3538692E+03  0.7818608E-02  0.1061126E+00
         21   -1    0    0  501  502  0.00000000000E+00  0.00000000000E+00  0.12062149559E+04  0.12062149559E+04  0.00000000000E+00 0. -1.
         21   -1    0    0  502  503 -0.00000000000E+00 -0.00000000000E+00 -0.10762562683E+03  0.10762562683E+03  0.00000000000E+00 0. -1.
         -6    2    1    2    0  503  0.34130893744E+02  0.30684590753E+03  0.42096162591E+03  0.54937822023E+03  0.17113856812E+03 0.  0.
        -24    2    3    3    0    0  0.16674406337E+02  0.31896471977E+03  0.40074475483E+03  0.51967289345E+03  0.86296172435E+02 0.  0.
          6    2    1    2  501    0 -0.34130893744E+02 -0.30684590753E+03  0.67762770315E+03  0.76446236249E+03  0.17292793502E+03 0.  0.
         24    2    5    5    0    0 -0.36606625378E+01 -0.17065992334E+03  0.23834987619E+03  0.30352618845E+03  0.78608356485E+02 0.  0.
          5    1    5    5  501    0 -0.30470231206E+02 -0.13618598419E+03  0.43927782696E+03  0.46093617404E+03  0.47000000000E+01 0. -1.
        -11    1    6    6    0    0  0.26981766663E+02 -0.21016133450E+02  0.56399033596E+02  0.65958658173E+02  0.00000000000E+00 0.  1.
         12    1    6    6    0    0 -0.30642429201E+02 -0.14964378989E+03  0.18195084260E+03  0.23756753028E+03  0.00000000000E+00 0. -1.
         -5    1    3    3    0  503  0.17456487407E+02 -0.12118812244E+02  0.20216871081E+02  0.29705326780E+02  0.47000000000E+01 0.  1.
         13    1    4    4    0    0  0.37755724917E+02  0.11227765919E+03  0.18878984041E+03  0.22287523720E+03  0.00000000000E+00 0. -1.
        -14    1    4    4    0    0 -0.21081318581E+02  0.20668706059E+03  0.21195491442E+03  0.29679765624E+03  0.00000000000E+00 0.  1.
</event>
<event>
12    1  0.8421768E-002  0.2176308E+03  0.7818608E-02  0.1136074E+00
         21   -1    0    0  503  502  0.00000000000E+00  0.00000000000E+00  0.39162611514E+03  0.39162611514E+03  0.00000000000E+00 0. -1.
         21   -1    0    0  501  503 -0.00000000000E+00 -0.00000000000E+00 -0.17627274315E+03  0.17627274315E+03  0.00000000000E+00 0. -1.
          6    2    1    2  501    0 -0.12807457673E+03  0.30025139204E+02 -0.53495706416E+02  0.22200434758E+03  0.17064446534E+03 0.  0.
         24    2    3    3    0    0 -0.13426236305E+03  0.46404148157E+01 -0.87226442744E+02  0.17907969842E+03  0.80082273273E+02 0.  0.
         -6    2    1    2    0  502  0.12807457673E+03 -0.30025139204E+02  0.26884907841E+03  0.34589451071E+03  0.17337410243E+03 0.  0.
        -24    2    5    5    0    0  0.93800516434E+02 -0.26952439207E+02  0.71047615603E+02  0.14506706891E+03  0.80447000788E+02 0.  0.
          5    1    3    3  501    0  0.61877863204E+01  0.25384724389E+02  0.33730736328E+02  0.42924649155E+02  0.47000000000E+01 0. -1.
        -13    1    4    4    0    0 -0.13160115867E+01 -0.12007499823E+02  0.81882045110E+01  0.14593102192E+02  0.00000000000E+00 0.  1.
         14    1    4    4    0    0 -0.13294635146E+03  0.16647914638E+02 -0.95414647255E+02  0.16448659623E+03  0.00000000000E+00 0. -1.
         -5    1    5    5    0  502  0.34274060293E+02 -0.30726999978E+01  0.19780146281E+03  0.20082744181E+03  0.47000000000E+01 0.  1.
         13    1    6    6    0    0  0.63376355713E+02  0.10664721434E+02  0.67793425765E+01  0.64623975679E+02  0.00000000000E+00 0. -1.
        -14    1    6    6    0    0  0.30424160720E+02 -0.37617160641E+02  0.64268273027E+02  0.80443093228E+02  0.00000000000E+00 0.  1.
</event>
<event>
12    1  0.8421768E-002  0.1779057E+03  0.7818608E-02  0.1170561E+00
         21   -1    0    0  503  502  0.00000000000E+00  0.00000000000E+00  0.64568698828E+03  0.64568698828E+03  0.00000000000E+00 0.  1.
         21   -1    0    0  501  503 -0.00000000000E+00 -0.00000000000E+00 -0.84943224878E+02  0.84943224878E+02  0.00000000000E+00 0.  1.
          6    2    1    2  501    0 -0.12746110231E+02  0.30090497812E+02  0.41498472400E+02  0.18268162574E+03  0.17487867734E+03 0.  0.
         24    2    3    3    0    0  0.36720238441E+02 -0.15383799610E+02 -0.18655931807E+02  0.92373964258E+02  0.81239573359E+02 0.  0.
         -6    2    1    2    0  502  0.12746110231E+02 -0.30090497812E+02  0.51924529100E+03  0.54794858741E+03  0.17194208571E+03 0.  0.
        -24    2    5    5    0    0 -0.45300921779E+02 -0.88372070754E+01  0.10985244757E+03  0.13388850658E+03  0.61059824868E+02 0.  0.
          5    1    3    3  501    0 -0.49466348673E+02  0.45474297422E+02  0.60154404207E+02  0.90307661483E+02  0.47000000000E+01 0. -1.
        -11    1    4    4    0    0 -0.18600107447E+02 -0.26964881556E+02  0.30364471163E+00  0.32759136657E+02  0.00000000000E+00 0.  1.
         12    1    4    4    0    0  0.55320345888E+02  0.11581081947E+02 -0.18959576519E+02  0.59614827602E+02  0.00000000000E+00 0. -1.
         -5    1    5    5    0  502  0.58047032010E+02 -0.21253290737E+02  0.40939284343E+03  0.41406008084E+03  0.47000000000E+01 0.  1.
         13    1    6    6    0    0  0.11187792438E+02 -0.16068884906E+02  0.29130459166E+02  0.35099279380E+02  0.00000000000E+00 0. -1.
        -14    1    6    6    0    0 -0.56488714217E+02  0.72316778301E+01  0.80721988405E+02  0.98789227197E+02  0.00000000000E+00 0.  1.
</event>
<event>
12    1  0.8421768E-002  0.1739836E+03  0.7818608E-02  0.1175452E+00
         21   -1    0    0  503  502  0.00000000000E+00  0.00000000000E+00  0.32524374892E+04  0.32524374892E+04  0.00000000000E+00 0. -1.
         21   -1    0    0  501  503 -0.00000000000E+00 -0.00000000000E+00 -0.10598726698E+02  0.10598726698E+02  0.00000000000E+00 0. -1.
          6    2    1    2  501    0  0.22473421993E+02  0.11990809108E+02  0.95293559239E+03  0.96753017138E+03  0.16546768594E+03 0.  0.
         24    2    3    3    0    0  0.35909077995E+02  0.76494628987E+02  0.64945568096E+03  0.65694458531E+03  0.51406385756E+02 0.  0.
         -6    2    1    2    0  502 -0.22473421993E+02 -0.11990809108E+02  0.22889031702E+04  0.22955060446E+04  0.17210881461E+03 0.  0.
        -24    2    5    5    0    0 -0.24397928010E+02 -0.58278225216E+02  0.88904852974E+03  0.89487713836E+03  0.80038703682E+02 0.  0.
          5    1    3    3  501    0 -0.13435656002E+02 -0.64503819879E+02  0.30347991143E+03  0.31058558606E+03  0.47000000000E+01 0. -1.
        -11    1    4    4    0    0 -0.12536487717E+02  0.20992975130E+02  0.20035169284E+03  0.20183822569E+03  0.00000000000E+00 0.  1.
         12    1    4    4    0    0  0.48445565712E+02  0.55501653857E+02  0.44910398812E+03  0.45510635962E+03  0.00000000000E+00 0. -1.
         -5    1    5    5    0  502  0.19245060174E+01  0.46287416107E+02  0.13998546404E+04  0.14006289062E+04  0.47000000000E+01 0.  1.
         11    1    6    6    0    0  0.46269006200E+01  0.15199012881E+02  0.31715093731E+03  0.31754863445E+03  0.00000000000E+00 0. -1.
        -12    1    6    6    0    0 -0.29024828630E+02 -0.73477238097E+02  0.57189759243E+03  0.57732850391E+03  0.00000000000E+00 0.  1.
</event>
<event>
12    1  0.8421768E-002  0.2660925E+03  0.7818608E-02  0.1103545E+00
         21   -1    0    0  501  502  0.00000000000E+00  0.00000000000E+00  0.21138335659E+03  0.21138335659E+03  0.00000000000E+00 0.  1.
         21   -1    0    0  502  503 -0.00000000000E+00 -0.00000000000E+00 -0.36468688200E+03  0.36468688200E+03  0.00000000000E+00 0.  1.
         -6    2    1    2    0  503 -0.75392802023E+02 -0.18834313766E+03 -0.15899338285E+03  0.30997437855E+03  0.17218596769E+03 0.  0.
        -24    2    3    3    0    0 -0.17237222663E+02 -0.77567451138E+02 -0.14717315416E+03  0.18421615043E+03  0.77212832172E+02 0.  0.
          6    2    1    2  501    0  0.75392802023E+02  0.18834313766E+03  0.56898574437E+01  0.26609586004E+03  0.17209712418E+03 0.  0.
         24    2    5    5    0    0  0.93494096474E+02  0.79291195733E+02  0.36081982590E+02  0.15135373974E+03  0.81103669891E+02 0.  0.
          5    1    5    5  501    0 -0.18101294450E+02  0.10905194193E+03 -0.30392125146E+02  0.11474212029E+03  0.47000000000E+01 0. -1.
        -11    1    6    6    0    0  0.71363620878E+02  0.68186822938E+02  0.61157457318E+02  0.11611392592E+03  0.00000000000E+00 0.  1.
         12    1    6    6    0    0  0.22130475595E+02  0.11104372795E+02 -0.25075474728E+02  0.35239813820E+02  0.00000000000E+00 0. -1.
         -5    1    3    3    0  503 -0.58155579361E+02 -0.11077568652E+03 -0.11820228691E+02  0.12575822813E+03  0.47000000000E+01 0.  1.
         11    1    4    4    0    0  0.35872685567E+01 -0.11996640988E+02  0.77348205105E+01  0.14717857827E+02  0.00000000000E+00 0. -1.
        -12    1    4    4    0    0 -0.20824491219E+02 -0.65570810150E+02 -0.15490797467E+03  0.16949829260E+03  0.00000000000E+00 0.  1.
</event>
<event>
12    1  0.8421768E-002  0.1724184E+03  0.7818608E-02  0.1175692E+00
         21   -1    0    0  501  502  0.00000000000E+00  0.00000000000E+00  0.69565395612E+03  0.69565395612E+03  0.00000000000E+00 0. -1.
         21   -1    0    0  502  503 -0.00000000000E+00 -0.00000000000E+00 -0.11052990700E+03  0.11052990700E+03  0.00000000000E+00 0. -1.
         -6    2    1    2    0  503  0.13218468488E+02  0.57433175320E+01 -0.23462298690E+02  0.17400743450E+03  0.17181499992E+03 0.  0.
        -24    2    3    3    0    0  0.10419277097E+02 -0.64699581936E+02 -0.16222792172E+02  0.10298252329E+03  0.77766470154E+02 0.  0.
          6    2    1    2  501    0 -0.13218468488E+02 -0.57433175320E+01  0.60858634781E+03  0.63217642862E+03  0.17047574769E+03 0.  0.
         24    2    5    5    0    0  0.43964905717E+02 -0.27017617347E+02  0.48476206723E+03  0.49405663793E+03  0.80217423765E+02 0.  0.
          5    1    5    5  501    0 -0.57183374205E+02  0.21274299815E+02  0.12382428059E+03  0.13811979069E+03  0.47000000000E+01 0. -1.
        -11    1    6    6    0    0  0.48221585826E+02  0.10316951683E+02  0.16842781034E+03  0.17549839922E+03  0.00000000000E+00 0.  1.
         12    1    6    6    0    0 -0.42566801083E+01 -0.37334569030E+02  0.31633425688E+03  0.31855823871E+03  0.00000000000E+00 0. -1.
         -5    1    3    3    0  503  0.27991913910E+01  0.70442899468E+02 -0.72395065177E+01  0.71024911211E+02  0.47000000000E+01 0.  1.
         13    1    4    4    0    0  0.28736348018E+02 -0.22682142260E+02 -0.37536275466E+02  0.52433093088E+02  0.00000000000E+00 0. -1.
        -14    1    4    4    0    0 -0.18317070921E+02 -0.42017439676E+02  0.21313483293E+02  0.50549430206E+02  0.00000000000E+00 0.  1.
</event>
<event>
12    1  0.8421768E-002  0.2188849E+03  0.7818608E-02  0.1134796E+00
         21   -1    0    0  501  502  0.00000000000E+00  0.00000000000E+00  0.49529539423E+02  0.49529539423E+02  0.00000000000E+00 0.  1.
         21   -1    0    0  502  503 -0.00000000000E+00 -0.00000000000E+00 -0.12594013035E+04  0.12594013035E+04  0.00000000000E+00 0.  1.
         -6    2    1    2    0  503 -0.13096432128E+03 -0.34808090522E+02 -0.92155545967E+03  0.94719326064E+03  0.17189342958E+03 0.  0.
        -24    2    3    3    0    0 -0.10522314654E+02  0.15825474324E+02 -0.44245275325E+03  0.45057315618E+03  0.83009430011E+02 0.  0.
          6    2    1    2  501    0  0.13096432128E+03  0.34808090522E+02 -0.28831630445E+03  0.36173758233E+03  0.17136081945E+03 0.  0.
         24    2    5    5    0    0  0.78986581808E+02  0.81295486696E+02 -0.23730759424E+03  0.27521162136E+03  0.81109222580E+02 0.  0.
          5    1    5    5  501    0  0.51977739472E+02 -0.46487396174E+02 -0.51008710212E+02  0.86525960966E+02  0.47000000000E+01 0. -1.
        -11    1    6    6    0    0  0.15157969037E+02  0.44416375105E+02 -0.31299050880E+02  0.56411071509E+02  0.00000000000E+00 0.  1.
         12    1    6    6    0    0  0.63828612771E+02  0.36879111591E+02 -0.20600854336E+03  0.21880054986E+03  0.00000000000E+00 0. -1.
         -5    1    3    3    0  503 -0.12044200663E+03 -0.50633564846E+02 -0.47910270643E+03  0.49662010446E+03  0.47000000000E+01 0.  1.
         13    1    4    4    0    0 -0.23846082348E+02 -0.44135376643E+00 -0.41645061031E+03  0.41713300189E+03  0.00000000000E+00 0. -1.
        -14    1    4    4    0    0  0.13323767695E+02  0.16266828090E+02 -0.26002142934E+02  0.33440154288E+02  0.00000000000E+00 0.  1.
</event>
<event>
12    1  0.8421768E-002  0.3418033E+03  0.7818608E-02  0.1066865E+00
         21   -1    0    0  503  502  0.00000000000E+00  0.00000000000E+00  0.12752168136E+04  0.12752168136E+04  0.00000000000E+00 0.  1.
         21   -1    0    0  501  503 -0.00000000000E+00 -0.00000000000E+00 -0.12139008535E+03  0.12139008535E+03  0.00000000000E+00 0. -1.
          6    2    1    2  501    0  0.21990368994E+03  0.18444341626E+03  0.21432234021E+03  0.39685794259E+03  0.17083663083E+03 0.  0.
         24    2    3    3    0    0  0.30511148436E+02  0.36270019161E+02  0.63997190605E+02  0.11323031525E+03  0.80492356273E+02 0.  0.
         -6    2    1    2    0  502 -0.21990368994E+03 -0.18444341626E+03  0.93950438807E+03  0.99974895638E+03  0.18561377627E+03 0.  0.
        -24    2    5    5    0    0 -0.23829654175E+03 -0.13495468113E+03  0.74829670855E+03  0.80133046277E+03  0.84761658556E+02 0.  0.
          5    1    3    3  501    0  0.18939254150E+03  0.14817339710E+03  0.15032514960E+03  0.28362762733E+03  0.47000000000E+01 0. -1.
        -11    1    4    4    0    0  0.18660377644E+02  0.34587568266E+02 -0.81168136428E+01  0.40129692699E+02  0.00000000000E+00 0.  1.
         12    1    4    4    0    0  0.11850770792E+02  0.16824508951E+01  0.72114004247E+02  0.73100622555E+02  0.00000000000E+00 0. -1.
         -5    1    5    5    0  502  0.18392851814E+02 -0.49488735132E+02  0.19120767952E+03  0.19841849362E+03  0.47000000000E+01 0.  1.
         13    1    6    6    0    0 -0.35764455158E+02 -0.23141917647E+02  0.49880226094E+02  0.65594828762E+02  0.00000000000E+00 0. -1.
        -14    1    6    6    0    0 -0.20253208659E+03 -0.11181276348E+03  0.69841648246E+03  0.73573563400E+03  0.00000000000E+00 0.  1.
</event>
<event>
12    1  0.8421768E-002  0.1941047E+03  0.7818608E-02  0.1154946E+00
         21   -1    0    0  501  502  0.00000000000E+00  0.00000000000E+00  0.14290856252E+03  0.14290856252E+03  0.00000000000E+00 0. -1.
         21   -1    0    0  502  503 -0.00000000000E+00 -0.00000000000E+00 -0.29054753048E+03  0.29054753048E+03  0.00000000000E+00 0. -1.
         -6    2    1    2    0  503 -0.72232089148E+02  0.49664551213E+02 -0.14089692595E+03  0.23985116870E+03  0.17318370892E+03 0.  0.
        -24    2    3    3    0    0 -0.82698910472E+02  0.46407754331E+01 -0.29067061611E+02  0.11875326083E+03  0.79979974344E+02 0.  0.
          6    2    1    2  501    0  0.72232089148E+02 -0.49664551213E+02 -0.67420420040E+01  0.19360492430E+03  0.17249164975E+03 0.  0.
         24    2    5    5    0    0  0.10747057108E+03 -0.12404587551E+02 -0.29061687758E+02  0.13747728327E+03  0.79697078245E+02 0.  0.
          5    1    5    5  501    0 -0.35238481928E+02 -0.37259963662E+02  0.22319645754E+02  0.56127641027E+02  0.47000000000E+01 0. -1.
        -11    1    6    6    0    0  0.27069832706E+02  0.20306037921E+02  0.18431521639E+02  0.38533517990E+02  0.00000000000E+00 0.  1.
         12    1    6    6    0    0  0.80400738371E+02 -0.32710625473E+02 -0.47493209397E+02  0.98943765283E+02  0.00000000000E+00 0. -1.
         -5    1    3    3    0  503  0.10466821324E+02  0.45023775780E+02 -0.11182986434E+03  0.12109790788E+03  0.47000000000E+01 0.  1.
         11    1    4    4    0    0 -0.28685522507E+02  0.35858079377E+02  0.73676727195E+01  0.46507458105E+02  0.00000000000E+00 0. -1.
        -12    1    4    4    0    0 -0.54013387965E+02 -0.31217303944E+02 -0.36434734331E+02  0.72245802721E+02  0.00000000000E+00 0.  1.
</event>
<event>
12    1  0.8421768E-002  0.2177895E+03  0.7818608E-02  0.1135711E+00
         21   -1    0    0  503  502  0.00000000000E+00  0.00000000000E+00  0.38367917966E+03  0.38367917966E+03  0.00000000000E+00 0. -1.
         21   -1    0    0  501  503 -0.00000000000E+00 -0.00000000000E+00 -0.14753312371E+03  0.14753312371E+03  0.00000000000E+00 0.  1.
          6    2    1    2  501    0  0.64292448663E+02 -0.11737678295E+03  0.10224900572E+02  0.21802939049E+03  0.17181803863E+03 0.  0.
         24    2    3    3    0    0  0.13438818887E+02 -0.13983422312E+03  0.15678777236E+02  0.16197349829E+03  0.79090949430E+02 0.  0.
         -6    2    1    2    0  502 -0.64292448663E+02  0.11737678295E+03  0.22592115538E+03  0.31318291288E+03  0.17068198599E+03 0.  0.
        -24    2    5    5    0    0 -0.14549936456E+01  0.12903076058E+03  0.17473335061E+03  0.23116680285E+03  0.79090408654E+02 0.  0.
          5    1    3    3  501    0  0.50853629776E+02  0.22457440175E+02 -0.54538766638E+01  0.56055892208E+02  0.47000000000E+01 0. -1.
        -11    1    4    4    0    0 -0.78985310799E+01 -0.28021686683E+02 -0.27673369561E+02  0.40167363626E+02  0.00000000000E+00 0.  1.
         12    1    4    4    0    0  0.21337349967E+02 -0.11181253644E+03  0.43352146797E+02  0.12180613466E+03  0.00000000000E+00 0. -1.
         -5    1    5    5    0  502 -0.62837455017E+02 -0.11653977635E+02  0.51187804767E+02  0.82016110031E+02  0.47000000000E+01 0.  1.
         11    1    6    6    0    0  0.28266653212E+01 -0.49282714544E+01  0.42533433813E+02  0.42911197703E+02  0.00000000000E+00 0. -1.
        -12    1    6    6    0    0 -0.42816589668E+01  0.13395903204E+03  0.13219991680E+03  0.18825560515E+03  0.00000000000E+00 0.  1.
</event>
<event>
12    1  0.8421768E-002  0.1824553E+03  0.7818608E-02  0.1165645E+00
         21   -1    0    0  501  502  0.00000000000E+00  0.00000000000E+00  0.11126160755E+03  0.11126160755E+03  0.00000000000E+00 0.  1.
         21   -1    0    0  502  503 -0.00000000000E+00 -0.00000000000E+00 -0.34830815140E+03  0.34830815140E+03  0.00000000000E+00 0.  1.
         -6    2    1    2    0  503 -0.12519256999E+02  0.57807041937E+02 -0.20575421084E+03  0.27445050585E+03  0.17172623269E+03 0.  0.
        -24    2    3    3    0    0 -0.34526797845E+02 -0.36454816438E+01 -0.18832404648E+03  0.20672573093E+03  0.77872922392E+02 0.  0.
          6    2    1    2  501    0  0.12519256999E+02 -0.57807041937E+02 -0.31292333019E+02  0.18511925309E+03  0.17260226495E+03 0.  0.
         24    2    5    5    0    0 -0.32927307940E+02 -0.48584123568E+02  0.35923093951E+02  0.10332404473E+03  0.77076357399E+02 0.  0.
          5    1    5    5  501    0  0.45446564939E+02 -0.92229183686E+01 -0.67215426970E+02  0.81795208361E+02  0.47000000000E+01 0. -1.
        -11    1    6    6    0    0 -0.64315400588E+01  0.42528986156E+00  0.46220117922E+02  0.46667385610E+02  0.00000000000E+00 0.  1.
         12    1    6    6    0    0 -0.26495767881E+02 -0.49009413430E+02 -0.10297023970E+02  0.56656659123E+02  0.00000000000E+00 0. -1.
         -5    1    3    3    0  503  0.22007540846E+02  0.61452523581E+02 -0.17430164358E+02  0.67724774921E+02  0.47000000000E+01 0.  1.
         11    1    4    4    0    0 -0.14742863823E+02 -0.26350575091E+02 -0.21160151209E+02  0.36870812854E+02  0.00000000000E+00 0. -1.
        -12    1    4    4    0    0 -0.19783934021E+02  0.22705093447E+02 -0.16716389527E+03  0.16985491808E+03  0.00000000000E+00 0.  1.
</event>
<event>
12    1  0.8421768E-002  0.1964752E+03  0.7818608E-02  0.1153351E+00
         21   -1    0    0  503  502  0.00000000000E+00  0.00000000000E+00  0.94612832486E+03  0.94612832486E+03  0.00000000000E+00 0.  1.
         21   -1    0    0  501  503 -0.00000000000E+00 -0.00000000000E+00 -0.73271102863E+02  0.73271102863E+02  0.00000000000E+00 0.  1.
          6    2    1    2  501    0  0.49104603244E+02 -0.84738305121E+02  0.95843109342E+02  0.21860561339E+03  0.17032518952E+03 0.  0.
         24    2    3    3    0    0 -0.67944010495E+01  0.13153959572E+02  0.14321714552E+02  0.79409988548E+02  0.76691878549E+02 0.  0.
         -6    2    1    2    0  502 -0.49104603244E+02  0.84738305121E+02  0.77701411266E+03  0.80079381433E+03  0.16711660416E+03 0.  0.
        -24    2    5    5    0    0 -0.12168545185E+02 -0.17926308546E+02  0.38806840625E+03  0.39680724547E+03  0.79934198570E+02 0.  0.
          5    1    3    3  501    0  0.55899004293E+02 -0.97892264693E+02  0.81521394791E+02  0.13919562485E+03  0.47000000000E+01 0. -1.
        -11    1    4    4    0    0  0.14110465843E+02  0.23015076676E+02  0.37808448592E+02  0.46457268384E+02  0.00000000000E+00 0.  1.
         12    1    4    4    0    0 -0.20904866892E+02 -0.98611171041E+01 -0.23486734041E+02  0.32952720164E+02  0.00000000000E+00 0. -1.
         -5    1    5    5    0  502 -0.36936058059E+02  0.10266461367E+03  0.38894570641E+03  0.40398656886E+03  0.47000000000E+01 0.  1.
         11    1    6    6    0    0  0.30329880293E+01 -0.25919661305E+02  0.36771244594E+02  0.45090489990E+02  0.00000000000E+00 0. -1.
        -12    1    6    6    0    0 -0.15201533214E+02  0.79933527594E+01  0.35129716165E+03  0.35171675548E+03  0.00000000000E+00 0.  1.
</event>
<event>
12    1  0.8421768E-002  0.1902728E+03  0.7818608E-02  0.1159008E+00
         21   -1    0    0  503  502  0.00000000000E+00  0.00000000000E+00  0.17089841429E+03  0.17089841429E+03  0.00000000000E+00 0. -1.
         21   -1    0    0  501  503 -0.00000000000E+00 -0.00000000000E+00 -0.21314720452E+03  0.21314720452E+03  0.00000000000E+00 0. -1.
          6    2    1    2  501    0  0.14941446666E+02  0.77956814731E+02 -0.51210919559E+02  0.19704385193E+03  0.17292544494E+03 0.  0.
         24    2    3    3    0    0  0.14977223196E+01 -0.28105148908E+02 -0.16328020291E+02  0.84488174520E+02  0.77971179418E+02 0.  0.
         -6    2    1    2    0  502 -0.14941446666E+02 -0.77956814731E+02  0.89621293277E+01  0.18700176688E+03  0.16908231505E+03 0.  0.
        -24    2    5    5    0    0 -0.12829122645E+02 -0.11157043620E+03  0.37852417743E+02  0.14238028970E+03  0.78910029424E+02 0.  0.
          5    1    3    3  501    0  0.13443724346E+02  0.10606196364E+03 -0.34882899268E+02  0.11255567741E+03  0.47000000000E+01 0. -1.
        -13    1    4    4    0    0  0.25655928267E+02 -0.19181256250E+01 -0.35645163640E+02  0.43960022203E+02  0.00000000000E+00 0.  1.
         14    1    4    4    0    0 -0.24158205948E+02 -0.26187023283E+02  0.19317143349E+02  0.40528152317E+02  0.00000000000E+00 0. -1.
         -5    1    5    5    0  502 -0.21123240203E+01  0.33613621467E+02 -0.28890288415E+02  0.44621477179E+02  0.47000000000E+01 0.  1.
         13    1    6    6    0    0 -0.44196045035E+02 -0.72748324685E+02  0.11363543677E+02  0.85876302121E+02  0.00000000000E+00 0. -1.
        -14    1    6    6    0    0  0.31366922389E+02 -0.38822111514E+02  0.26488874067E+02  0.56503987575E+02  0.00000000000E+00 0.  1.
</event>
<event>
12    1  0.8421768E-002  0.1955017E+03  0.7818608E-02  0.1153813E+00
         21   -1    0    0  501  502  0.00000000000E+00  0.00000000000E+00  0.73720642251E+02  0.73720642251E+02  0.00000000000E+00 0.  1.
         21   -1    0    0  502  503 -0.00000000000E+00 -0.00000000000E+00 -0.57193061613E+03  0.57193061613E+03  0.00000000000E+00 0.  1.
         -6    2    1    2    0  503 -0.12695131206E+02 -0.89523915194E+02 -0.34969583945E+03  0.40013679837E+03  0.17218182113E+03 0.  0.
        -24    2    3    3    0    0 -0.48021549644E+02 -0.59420491561E+02 -0.31971468031E+03  0.34468292693E+03  0.10369175118E+03 0.  0.
          6    2    1    2  501    0  0.12695131206E+02  0.89523915194E+02 -0.14851413443E+03  0.24551446001E+03  0.17333552493E+03 0.  0.
         24    2    5    5    0    0  0.68514682609E+02  0.17840837166E+02 -0.77478895016E+02  0.13009183991E+03  0.76865794951E+02 0.  0.
          5    1    5    5  501    0 -0.55819551403E+02  0.71683078028E+02 -0.71035239410E+02  0.11542262011E+03  0.47000000000E+01 0. -1.
        -11    1    6    6    0    0  0.17977540118E+02  0.33229540432E+02 -0.18330290836E+01  0.37825312974E+02  0.00000000000E+00 0.  1.
         12    1    6    6    0    0  0.50537142491E+02 -0.15388703266E+02 -0.75645865932E+02  0.92266526931E+02  0.00000000000E+00 0. -1.
         -5    1    3    3    0  503  0.35326418438E+02 -0.30103423632E+02 -0.29981159140E+02  0.55453871437E+02  0.47000000000E+01 0.  1.
         13    1    4    4    0    0 -0.74005248747E+01  0.23455052926E+02 -0.14516880548E+03  0.14723752702E+03  0.00000000000E+00 0. -1.
        -14    1    4    4    0    0 -0.40621024769E+02 -0.82875544487E+02 -0.17454587483E+03  0.19744539992E+03  0.00000000000E+00 0.  1.
</event>
<event>
12    1  0.8421768E-002  0.2311825E+03  0.7818608E-02  0.1128476E+00
         21   -1    0    0  501  502  0.00000000000E+00  0.00000000000E+00  0.43160760944E+03  0.43160760944E+03  0.00000000000E+00 0. -1.
         21   -1    0    0  502  503 -0.00000000000E+00 -0.00000000000E+00 -0.53218777125E+03  0.53218777125E+03  0.00000000000E+00 0.  1.
         -6    2    1    2    0  503  0.13034904780E+03  0.14959258335E+02 -0.47672019129E+03  0.52981836161E+03  0.19034364146E+03 0.  0.
        -24    2    3    3    0    0  0.23249092863E+02  0.50387541902E+02 -0.11338030452E+03  0.14934033735E+03  0.79799863472E+02 0.  0.
          6    2    1    2  501    0 -0.13034904780E+03 -0.14959258335E+02  0.37614002948E+03  0.43397701908E+03  0.17216293921E+03 0.  0.
         24    2    5    5    0    0  0.14520556105E+00  0.30085209151E+01  0.18867869787E+03  0.20481456120E+03  0.79625882524E+02 0.  0.
          5    1    5    5  501    0 -0.13049425336E+03 -0.17967779251E+02  0.18746133161E+03  0.22916245788E+03  0.47000000000E+01 0. -1.
        -13    1    6    6    0    0 -0.54186514387E+01  0.35949492584E+02  0.47945813613E+02  0.60170830503E+02  0.00000000000E+00 0.  1.
         14    1    6    6    0    0  0.55638569997E+01 -0.32940971669E+02  0.14073288425E+03  0.14464373070E+03  0.00000000000E+00 0. -1.
         -5    1    3    3    0  503  0.10709995494E+03 -0.35428283567E+02 -0.36333988677E+03  0.38047802426E+03  0.47000000000E+01 0.  1.
         13    1    4    4    0    0  0.52738175199E+02  0.38810747698E+02 -0.74433701553E+02  0.99136094270E+02  0.00000000000E+00 0. -1.
        -14    1    4    4    0    0 -0.29489082336E+02  0.11576794204E+02 -0.38946602963E+02  0.50204243081E+02  0.00000000000E+00 0.  1.
</event>
<event>
12    1  0.8421768E-002  0.2416174E+03  0.7818608E-02  0.1119036E+00
         21   -1    0    0  503  502  0.00000000000E+00  0.00000000000E+00  0.18534400149E+04  0.18534400149E+04  0.00000000000E+00 0. -1.
         21   -1    0    0  501  503 -0.00000000000E+00 -0.00000000000E+00 -0.40479228124E+02  0.40479228124E+02  0.00000000000E+00 0.  1.
          6    2    1    2  501    0 -0.16404706282E+03 -0.51431783284E+02  0.45152699726E+03  0.51121142030E+03  0.16704436489E+03 0.  0.
         24    2    3    3    0    0 -0.17878830319E+03 -0.75072349150E+02  0.39254044258E+03  0.44580741312E+03  0.83994854440E+02 0.  0.
         -6    2    1    2    0  502  0.16404706282E+03  0.51431783284E+02  0.13614337895E+04  0.13827078227E+04  0.16977129505E+03 0.  0.
        -24    2    5    5    0    0  0.15618721405E+03  0.91051795801E+02  0.12169466774E+04  0.12326073957E+04  0.75345212346E+02 0.  0.
          5    1    3    3  501    0  0.14741240366E+02  0.23640565865E+02  0.58986554681E+02  0.65404007179E+02  0.47000000000E+01 0. -1.
        -11    1    4    4    0    0 -0.54013828774E+02 -0.35204594907E+02  0.58715990650E+02  0.87203352913E+02  0.00000000000E+00 0.  1.
         12    1    4    4    0    0 -0.12477447442E+03 -0.39867754243E+02  0.33382445193E+03  0.35860406021E+03  0.00000000000E+00 0. -1.
         -5    1    5    5    0  502  0.78598487686E+01 -0.39620012517E+02  0.14448711210E+03  0.15010042697E+03  0.47000000000E+01 0.  1.
         11    1    6    6    0    0  0.64244742443E+02  0.67927274848E+02  0.77412993947E+03  0.77975551604E+03  0.00000000000E+00 0. -1.
        -12    1    6    6    0    0  0.91942471611E+02  0.23124520954E+02  0.44281673794E+03  0.45285187971E+03  0.00000000000E+00 0.  1.
</event>
<event>
12    1  0.8421768E-002  0.1777761E+03  0.7818608E-02  0.1172404E+00
         21   -1    0    0  503  502  0.00000000000E+00  0.00000000000E+00  0.25881160021E+02  0.25881160021E+02  0.00000000000E+00 0.  1.
         21   -1    0    0  501  503 -0.00000000000E+00 -0.00000000000E+00 -0.11781184477E+04  0.11781184477E+04  0.00000000000E+00 0.  1.
          6    2    1    2  501    0 -0.34556028784E+02 -0.25214459188E+02 -0.50953981564E+03  0.53966207827E+03  0.17255273664E+03 0.  0.
         24    2    3    3    0    0 -0.37789601860E+02 -0.13052215001E+02 -0.51578905946E+03  0.52484589703E+03  0.88467211115E+02 0.  0.
         -6    2    1    2    0  502  0.34556028784E+02  0.25214459188E+02 -0.64269747199E+03  0.66433752941E+03  0.16264816136E+03 0.  0.
        -24    2    5    5    0    0 -0.31187677377E+01 -0.61456305939E+01 -0.57039202848E+03  0.57685603030E+03  0.85838907576E+02 0.  0.
          5    1    3    3  501    0  0.32335730760E+01 -0.12162244187E+02  0.62492438149E+01  0.14816181247E+02  0.47000000000E+01 0. -1.
        -11    1    4    4    0    0 -0.76175259979E+01  0.24158919320E+01 -0.48082044379E-01  0.79915923344E+01  0.00000000000E+00 0.  1.
         12    1    4    4    0    0 -0.30172075862E+02 -0.15468106933E+02 -0.51574097741E+03  0.51685430469E+03  0.00000000000E+00 0. -1.
         -5    1    5    5    0  502  0.37674796521E+02  0.31360089782E+02 -0.72305443512E+02  0.87481499104E+02  0.47000000000E+01 0.  1.
         13    1    6    6    0    0  0.19770767481E+02  0.23033772386E+01 -0.30545576216E+02  0.36458483510E+02  0.00000000000E+00 0. -1.
        -14    1    6    6    0    0 -0.22889535219E+02 -0.84490078325E+01 -0.53984645226E+03  0.54039754679E+03  0.00000000000E+00 0.  1.
</event>
<event>
12    1  0.8421768E-002  0.1878527E+03  0.7818608E-02  0.1161897E+00
         21   -1    0    0  503  502  0.00000000000E+00  0.00000000000E+00  0.58122473463E+03  0.58122473463E+03  0.00000000000E+00 0. -1.
         21   -1    0    0  501  503 -0.00000000000E+00 -0.00000000000E+00 -0.13610793904E+03  0.13610793904E+03  0.00000000000E+00 0.  1.
          6    2    1    2  501    0  0.13556225539E+02  0.74105746833E+02 -0.49607427728E+02  0.18814397409E+03  0.16511155361E+03 0.  0.
         24    2    3    3    0    0  0.58133389042E+02  0.84176580360E+01 -0.10380865055E+02  0.99471195092E+02  0.79601560321E+02 0.  0.
         -6    2    1    2    0  502 -0.13556225539E+02 -0.74105746833E+02  0.49472422332E+03  0.52918869957E+03  0.17208483272E+03 0.  0.
        -24    2    5    5    0    0 -0.71598200172E+02 -0.42510138795E+02  0.38995685447E+03  0.40523126800E+03  0.72198462924E+02 0.  0.
          5    1    3    3  501    0 -0.44577163504E+02  0.65688088797E+02 -0.39226562673E+02  0.88672778997E+02  0.47000000000E+01 0. -1.
        -11    1    4    4    0    0  0.24857847060E+02  0.33259850492E+02 -0.32215844492E+02  0.52554646336E+02  0.00000000000E+00 0.  1.
         12    1    4    4    0    0  0.33275541982E+02 -0.24842192456E+02  0.21834979436E+02  0.46916548756E+02  0.00000000000E+00 0. -1.
         -5    1    5    5    0  502  0.58041974633E+02 -0.31595608038E+02  0.10476736885E+03  0.12395743158E+03  0.47000000000E+01 0.  1.
         11    1    6    6    0    0 -0.63017067416E+02 -0.49190694835E+02  0.38511892753E+03  0.39332869662E+03  0.00000000000E+00 0. -1.
        -12    1    6    6    0    0 -0.85811327559E+01  0.66805560396E+01  0.48379269417E+01  0.11902571380E+02  0.00000000000E+00 0.  1.
</event>
<event>
12    1  0.8421768E-002  0.1757293E+03  0.7818608E-02  0.1172136E+00
         21   -1    0    0  503  502  0.00000000000E+00  0.00000000000E+00  0.50316389047E+02  0.50316389047E+02  0.00000000000E+00 0. -1.
         21   -1    0    0  501  503 -0.00000000000E+00 -0.00000000000E+00 -0.13523795149E+04  0.13523795149E+04  0.00000000000E+00 0. -1.
          6    2    1    2  501    0 -0.33028475744E+02 -0.72123004659E+01 -0.11695638946E+04  0.11826121729E+04  0.17189808184E+03 0.  0.
         24    2    3    3    0    0  0.40316017363E+02 -0.25746063681E+02 -0.48514248655E+03  0.49400657548E+03  0.79943876024E+02 0.  0.
         -6    2    1    2    0  502  0.33028475744E+02  0.72123004659E+01 -0.13249923121E+03  0.22008373097E+03  0.17244681753E+03 0.  0.
        -24    2    5    5    0    0 -0.33857321348E+02 -0.37770369623E+02 -0.60475890730E+02  0.11188667909E+03  0.79299284787E+02 0.  0.
          5    1    3    3  501    0 -0.73344493107E+02  0.18533763215E+02 -0.68442140806E+03  0.68860559747E+03  0.47000000000E+01 0. -1.
        -13    1    4    4    0    0  0.25943765483E+02 -0.50752233621E+02 -0.21862811965E+03  0.22593610354E+03  0.00000000000E+00 0.  1.
         14    1    4    4    0    0  0.14372251880E+02  0.25006169940E+02 -0.26651436690E+03  0.26807047194E+03  0.00000000000E+00 0. -1.
         -5    1    5    5    0  502  0.66885797092E+02  0.44982670089E+02 -0.72023340479E+02  0.10819705188E+03  0.47000000000E+01 0.  1.
         13    1    6    6    0    0 -0.19138250513E+02  0.19972719355E+02 -0.97814531726E+00  0.27679214573E+02  0.00000000000E+00 0. -1.
        -14    1    6    6    0    0 -0.14719070835E+02 -0.57743088979E+02 -0.59497745413E+02  0.84207464516E+02  0.00000000000E+00 0.  1.
</event>
<event>
12    1  0.8421768E-002  0.2397557E+03  0.7818608E-02  0.1119965E+00
         21   -1    0    0  503  502  0.00000000000E+00  0.00000000000E+00  0.44820876479E+03  0.44820876479E+03  0.00000000000E+00 0. -1.
         21   -1    0    0  501  503 -0.00000000000E+00 -0.00000000000E+00 -0.14646706691E+03  0.14646706691E+03  0.00000000000E+00 0.  1.
          6    2    1    2  501    0  0.12715913245E+03  0.10796112564E+03  0.45910924469E+02  0.24405900629E+03  0.17213929229E+03 0.  0.
         24    2    3    3    0    0  0.14960776522E+03  0.53281410885E+02  0.19956692589E+02  0.17933247022E+03  0.80873191720E+02 0.  0.
         -6    2    1    2    0  502 -0.12715913245E+03 -0.10796112564E+03  0.25583077341E+03  0.35061682541E+03  0.17221418067E+03 0.  0.
        -24    2    5    5    0    0 -0.10732180103E+03 -0.11351879540E+02  0.19087604674E+03  0.23243022437E+03  0.77092865001E+02 0.  0.
          5    1    3    3  501    0 -0.22448632769E+02  0.54679714750E+02  0.25954231880E+02  0.64726536064E+02  0.47000000000E+01 0. -1.
        -13    1    4    4    0    0  0.33951616570E+02  0.24486839593E+02 -0.28532365553E+02  0.50659781534E+02  0.00000000000E+00 0.  1.
         14    1    4    4    0    0  0.11565614864E+03  0.28794571292E+02  0.48489058142E+02  0.12867268869E+03  0.00000000000E+00 0. -1.
         -5    1    5    5    0  502 -0.19837331414E+02 -0.96609246095E+02  0.64954726667E+02  0.11818660104E+03  0.47000000000E+01 0.  1.
         13    1    6    6    0    0 -0.27955797248E+02  0.16852687624E+02  0.11334168580E+03  0.11794862195E+03  0.00000000000E+00 0. -1.
        -14    1    6    6    0    0 -0.79366003784E+02 -0.28204567165E+02  0.77534360944E+02  0.11448160242E+03  0.00000000000E+00 0.  1.
</event>
<event>
12    1  0.8421768E-002  0.1930142E+03  0.7818608E-02  0.1155866E+00
         21   -1    0    0  501  502  0.00000000000E+00  0.00000000000E+00  0.27079056720E+03  0.27079056720E+03  0.00000000000E+00 0. -1.
         21   -1    0    0  502  503 -0.00000000000E+00 -0.00000000000E+00 -0.13900533606E+03  0.13900533606E+03  0.00000000000E+00 0. -1.
         -6    2    1    2    0  503  0.37060562182E+02  0.80903024058E+02  0.42923299236E+02  0.19730845499E+03  0.17079060929E+03 0.  0.
        -24    2    3    3    0    0  0.81006453644E+02  0.23914310002E+02  0.43499676271E+02  0.12518788153E+03  0.81522046656E+02 0.  0.
          6    2    1    2  501    0 -0.37060562182E+02 -0.80903024058E+02  0.88861931909E+02  0.21248744827E+03  0.17127664218E+03 0.  0.
         24    2    5    5    0    0  0.75967904245E+01 -0.58290567284E+02 -0.10823163922E+02  0.10084153175E+03  0.81218053351E+02 0.  0.
          5    1    5    5  501    0 -0.44657352607E+02 -0.22612456774E+02  0.99685095831E+02  0.11164591651E+03  0.47000000000E+01 0. -1.
        -11    1    6    6    0    0 -0.36432607912E+02 -0.33224825886E+02 -0.91519433071E+01  0.50149596616E+02  0.00000000000E+00 0.  1.
         12    1    6    6    0    0  0.44029398337E+02 -0.25065741398E+02 -0.16712206146E+01  0.50691935138E+02  0.00000000000E+00 0. -1.
         -5    1    3    3    0  503 -0.43945891462E+02  0.56988714056E+02 -0.57637703483E+00  0.72120573463E+02  0.47000000000E+01 0.  1.
         13    1    4    4    0    0  0.61784461015E+02  0.44072065758E+02  0.28944939771E+01  0.75947644457E+02  0.00000000000E+00 0. -1.
        -14    1    4    4    0    0  0.19221992629E+02 -0.20157755756E+02  0.40605182294E+02  0.49240237072E+02  0.00000000000E+00 0.  1.
</event>
<event>
12    1  0.8421768E-002  0.2813864E+03  0.7818608E-02  0.1095096E+00
         21   -1    0    0  501  502  0.00000000000E+00  0.00000000000E+00  0.89967302083E+03  0.89967302083E+03  0.00000000000E+00 0. -1.
         21   -1    0    0  502  503 -0.00000000000E+00 -0.00000000000E+00 -0.15442630799E+03  0.15442630799E+03  0.00000000000E+00 0.  1.
         -6    2    1    2    0  503  0.21464819196E+03 -0.65488824472E+02  0.25563742150E+02  0.28136271274E+03  0.16777615672E+03 0.  0.
        -24    2    3    3    0    0  0.10586330700E+03 -0.90567036378E+02 -0.17564654392E+02  0.16159119486E+03  0.79961048791E+02 0.  0.
          6    2    1    2  501    0 -0.21464819196E+03  0.65488824472E+02  0.71968297069E+03  0.77273661607E+03  0.16975178077E+03 0.  0.
         24    2    5    5    0    0 -0.13952401097E+03  0.98288855546E+02  0.38645149875E+03  0.42953873074E+03  0.77660231485E+02 0.  0.
          5    1    5    5  501    0 -0.75124180985E+02 -0.32800031074E+02  0.33323147194E+03  0.34319788534E+03  0.47000000000E+01 0. -1.
        -11    1    6    6    0    0 -0.72180950171E+02  0.57474461239E+02  0.11808774104E+03  0.14986032779E+03  0.00000000000E+00 0.  1.
         12    1    6    6    0    0 -0.67343060803E+02  0.40814394307E+02  0.26836375771E+03  0.27967840294E+03  0.00000000000E+00 0. -1.
         -5    1    3    3    0  503  0.10878488496E+03  0.25078211906E+02  0.43128396541E+02  0.11977151788E+03  0.47000000000E+01 0.  1.
         11    1    4    4    0    0  0.28617090578E+02 -0.37242965174E+02  0.30634466492E+02  0.56075367724E+02  0.00000000000E+00 0. -1.
        -12    1    4    4    0    0  0.77246216425E+02 -0.53324071204E+02 -0.48199120884E+02  0.10551582713E+03  0.00000000000E+00 0.  1.
</event>
<event>
12    1  0.8421768E-002  0.1875180E+03  0.7818608E-02  0.1162745E+00
         21   -1    0    0  503  502  0.00000000000E+00  0.00000000000E+00  0.97348063760E+02  0.97348063760E+02  0.00000000000E+00 0. -1.
         21   -1    0    0  501  503 -0.00000000000E+00 -0.00000000000E+00 -0.39547136849E+03  0.39547136849E+03  0.00000000000E+00 0. -1.
          6    2    1    2  501    0  0.47235234357E+02  0.10876126200E+02 -0.63944829780E+02  0.19812104152E+03  0.18114510303E+03 0.  0.
         24    2    3    3    0    0  0.13435263099E+02  0.75160042135E+02 -0.59106252534E+02  0.12518023172E+03  0.79668080791E+02 0.  0.
         -6    2    1    2    0  502 -0.47235234357E+02 -0.10876126200E+02 -0.23417847495E+03  0.29469839073E+03  0.17221534740E+03 0.  0.
        -24    2    5    5    0    0  0.30722697742E+02 -0.21396758652E+02 -0.67504210442E+02  0.11033320059E+03  0.78834581802E+02 0.  0.
          5    1    3    3  501    0  0.33799971258E+02 -0.64283915934E+02 -0.48385772455E+01  0.72940809803E+02  0.47000000000E+01 0. -1.
        -13    1    4    4    0    0 -0.58189915705E+01  0.50462685516E+02  0.77199156928E+01  0.51380350239E+02  0.00000000000E+00 0.  1.
         14    1    4    4    0    0  0.19254254670E+02  0.24697356618E+02 -0.66826168227E+02  0.73799881482E+02  0.00000000000E+00 0. -1.
         -5    1    5    5    0  502 -0.77957932099E+02  0.10520632452E+02 -0.16667426451E+03  0.18436519014E+03  0.47000000000E+01 0.  1.
         11    1    6    6    0    0 -0.49727598392E+01  0.88582453122E+01 -0.62447459610E+02  0.63268333803E+02  0.00000000000E+00 0. -1.
        -12    1    6    6    0    0  0.35695457581E+02 -0.30255003965E+02 -0.50567508322E+01  0.47064866788E+02  0.00000000000E+00 0.  1.
</event>
<event>
12    1  0.8421768E-002  0.2431054E+03  0.7818608E-02  0.1117799E+00
         21   -1    0    0  501  502  0.00000000000E+00  0.00000000000E+00  0.13873791839E+04  0.13873791839E+04  0.00000000000E+00 0. -1.
         21   -1    0    0  502  503 -0.00000000000E+00 -0.00000000000E+00 -0.45755668649E+02  0.45755668649E+02  0.00000000000E+00 0.  1.
         -6    2    1    2    0  503  0.15179849814E+03  0.81324463537E+02  0.86041707724E+03  0.89400604226E+03  0.17109297000E+03 0.  0.
        -24    2    3    3    0    0  0.13746988282E+03  0.99378212100E+02  0.84278072969E+03  0.86460573939E+03  0.92139722819E+02 0.  0.
          6    2    1    2  501    0 -0.15179849814E+03 -0.81324463537E+02  0.48120643803E+03  0.53912881030E+03  0.17159191617E+03 0.  0.
         24    2    5    5    0    0 -0.11230343398E+03 -0.95590766692E+02  0.25221449371E+03  0.30627093936E+03  0.91869916174E+02 0.  0.
          5    1    5    5  501    0 -0.39495064157E+02  0.14266303155E+02  0.22899194432E+03  0.23285787094E+03  0.47000000000E+01 0. -1.
        -11    1    6    6    0    0 -0.66473006207E+01 -0.24709768066E+02  0.12032823191E+03  0.12301887106E+03  0.00000000000E+00 0.  1.
         12    1    6    6    0    0 -0.10565613336E+03 -0.70880998626E+02  0.13188626181E+03  0.18325206830E+03  0.00000000000E+00 0. -1.
         -5    1    3    3    0  503  0.14328615319E+02 -0.18053748563E+02  0.17636347549E+02  0.29400302873E+02  0.47000000000E+01 0.  1.
         13    1    4    4    0    0  0.45323504590E+02  0.95019091043E+01  0.93395309249E+02  0.10424581591E+03  0.00000000000E+00 0. -1.
        -14    1    4    4    0    0  0.92146378233E+02  0.89876302995E+02  0.74938542044E+03  0.76035992348E+03  0.00000000000E+00 0.  1.
</event>
<event>
12    1  0.8421768E-002  0.2563747E+03  0.7818608E-02  0.1109398E+00
         21   -1    0    0  503  502  0.00000000000E+00  0.00000000000E+00  0.24829758637E+03  0.24829758637E+03  0.00000000000E+00 0. -1.
         21   -1    0    0  501  503 -0.00000000000E+00 -0.00000000000E+00 -0.27335061001E+03  0.27335061001E+03  0.00000000000E+00 0.  1.
          6    2    1    2  501    0  0.18016034186E+03 -0.59144546448E+02 -0.59898350670E+02  0.26291627102E+03  0.17199222948E+03 0.  0.
         24    2    3    3    0    0  0.10157094185E+03 -0.20961731957E+01  0.27806380815E+02  0.13197727526E+03  0.79522048526E+02 0.  0.
         -6    2    1    2    0  502 -0.18016034186E+03  0.59144546448E+02  0.34845327024E+02  0.25873192536E+03  0.17254618580E+03 0.  0.
        -24    2    5    5    0    0 -0.11974947993E+03  0.96497699938E+02 -0.11400214271E+02  0.17384688308E+03  0.80256026772E+02 0.  0.
          5    1    3    3  501    0  0.78589400013E+02 -0.57048373252E+02 -0.87704731484E+02  0.13093899576E+03  0.47000000000E+01 0. -1.
        -11    1    4    4    0    0  0.48407269522E+02 -0.38259608041E+02  0.27811669295E+02  0.67679762846E+02  0.00000000000E+00 0.  1.
         12    1    4    4    0    0  0.53163672324E+02  0.36163434845E+02 -0.52884805470E-02  0.64297512415E+02  0.00000000000E+00 0. -1.
         -5    1    5    5    0  502 -0.60410861925E+02 -0.37353153490E+02  0.46245541294E+02  0.84885042285E+02  0.47000000000E+01 0.  1.
         11    1    6    6    0    0 -0.48985094690E+02  0.10199656406E+02  0.25687064037E+02  0.56244090814E+02  0.00000000000E+00 0. -1.
        -12    1    6    6    0    0 -0.70764385244E+02  0.86298043532E+02 -0.37087278308E+02  0.11760279227E+03  0.00000000000E+00 0.  1.
</event>
<event>
12    1  0.8421768E-002  0.1954083E+03  0.7818608E-02  0.1153872E+00
         21   -1    0    0  501  502  0.00000000000E+00  0.00000000000E+00  0.20422218907E+03  0.20422218907E+03  0.00000000000E+00 0.  1.
         21   -1    0    0  502  503 -0.00000000000E+00 -0.00000000000E+00 -0.27195189596E+03  0.27195189596E+03  0.00000000000E+00 0.  1.
         -6    2    1    2    0  503 -0.89441979302E+02 -0.23082165293E+01 -0.16769140588E+03  0.25749723347E+03  0.17372168004E+03 0.  0.
        -24    2    3    3    0    0 -0.61423248034E+02  0.19896560840E+02 -0.19053796935E+03  0.21481050365E+03  0.75300373049E+02 0.  0.
          6    2    1    2  501    0  0.89441979302E+02  0.23082165293E+01  0.99961698982E+02  0.21867685156E+03  0.17269055741E+03 0.  0.
         24    2    5    5    0    0  0.28746967034E+02  0.94803173794E+01 -0.16052870394E+02  0.87464070729E+02  0.80473626048E+02 0.  0.
          5    1    5    5  501    0  0.60695012268E+02 -0.71721008501E+01  0.11601456938E+03  0.13121278083E+03  0.47000000000E+01 0. -1.
        -11    1    6    6    0    0 -0.79992978997E+01  0.47913021433E+01  0.28229823852E+02  0.29729922600E+02  0.00000000000E+00 0.  1.
         12    1    6    6    0    0  0.36746264933E+02  0.46890152360E+01 -0.44282694246E+02  0.57734148129E+02  0.00000000000E+00 0. -1.
         -5    1    3    3    0  503 -0.28018731268E+02 -0.22204777370E+02  0.22846563479E+02  0.42686729820E+02  0.47000000000E+01 0.  1.
         11    1    4    4    0    0 -0.61328300263E+02 -0.13333232342E+02 -0.96883050060E+02  0.11543509383E+03  0.00000000000E+00 0. -1.
        -12    1    4    4    0    0 -0.94947771323E-01  0.33229793182E+02 -0.93654919295E+02  0.99375409826E+02  0.00000000000E+00 0.  1.
</event>
<event>
12    1  0.8421768E-002  0.1897868E+03  0.7818608E-02  0.1159300E+00
         21   -1    0    0  501  502  0.00000000000E+00  0.00000000000E+00  0.20497609626E+03  0.20497609626E+03  0.00000000000E+00 0.  1.
         21   -1    0    0  502  503 -0.00000000000E+00 -0.00000000000E+00 -0.25439034358E+03  0.25439034358E+03  0.00000000000E+00 0.  1.
         -6    2    1    2    0  503  0.79461832918E+02  0.17772855003E+02 -0.15466454645E+03  0.24482678718E+03  0.17143213388E+03 0.  0.
        -24    2    3    3    0    0  0.45267303838E+02  0.17096361177E+02 -0.82083775675E+01  0.94356780647E+02  0.80587903742E+02 0.  0.
          6    2    1    2  501    0 -0.79461832918E+02 -0.17772855003E+02  0.10525029913E+03  0.21453965265E+03  0.16828422334E+03 0.  0.
         24    2    5    5    0    0  0.13399988154E+02  0.20926645469E+02  0.32118909982E+02  0.90075765404E+02  0.80402331817E+02 0.  0.
          5    1    5    5  501    0 -0.92861821071E+02 -0.38699500473E+02  0.73131389152E+02  0.12446388725E+03  0.47000000000E+01 0. -1.
        -13    1    6    6    0    0 -0.22917817963E+02  0.31015238885E+02 -0.28379330846E+01  0.38668143057E+02  0.00000000000E+00 0.  1.
         14    1    6    6    0    0  0.36317806117E+02 -0.10088593415E+02  0.34956843067E+02  0.51407622348E+02  0.00000000000E+00 0. -1.
         -5    1    3    3    0  503  0.34194529080E+02  0.67649382684E+00 -0.14645616888E+03  0.15047000654E+03  0.47000000000E+01 0.  1.
         13    1    4    4    0    0 -0.15623403598E+02  0.27798598934E+02 -0.62923507408E+01  0.32503023252E+02  0.00000000000E+00 0. -1.
        -14    1    4    4    0    0  0.60890707436E+02 -0.10702237758E+02 -0.19160268267E+01  0.61853757395E+02  0.00000000000E+00 0.  1.
</event>
<event>
12    1  0.8421768E-002  0.1947515E+03  0.7818608E-02  0.1154343E+00
         21   -1    0    0  503  502  0.00000000000E+00  0.00000000000E+00  0.12175044453E+03  0.12175044453E+03  0.00000000000E+00 0. -1.
         21   -1    0    0  501  503 -0.00000000000E+00 -0.00000000000E+00 -0.34716161927E+03  0.34716161927E+03  0.00000000000E+00 0. -1.
          6    2    1    2  501    0 -0.77301651970E+02 -0.48242635124E+02 -0.18846647289E+03  0.27068727032E+03  0.17160737068E+03 0.  0.
         24    2    3    3    0    0 -0.30168962129E+02 -0.76385125051E+02 -0.55633268113E+02  0.12688101009E+03  0.79113062106E+02 0.  0.
         -6    2    1    2    0  502  0.77301651970E+02  0.48242635124E+02 -0.36944701853E+02  0.19822479347E+03  0.17211990156E+03 0.  0.
        -24    2    5    5    0    0  0.10334871726E+02  0.62425270208E+02  0.25912494802E+02  0.10517204518E+03  0.79912312979E+02 0.  0.
          5    1    3    3  501    0 -0.47132689842E+02  0.28142489927E+02 -0.13283320478E+03  0.14380626023E+03  0.47000000000E+01 0. -1.
        -11    1    4    4    0    0  0.26109441240E+02 -0.29758791734E+02 -0.29084381835E+02  0.49124228992E+02  0.00000000000E+00 0.  1.
         12    1    4    4    0    0 -0.56278403368E+02 -0.46626333317E+02 -0.26548886277E+02  0.77756781099E+02  0.00000000000E+00 0. -1.
         -5    1    5    5    0  502  0.66966780244E+02 -0.14182635084E+02 -0.62857196655E+02  0.93052748297E+02  0.47000000000E+01 0.  1.
         11    1    6    6    0    0  0.30502133163E+02  0.82281656279E+01  0.34421388863E+02  0.46721674289E+02  0.00000000000E+00 0. -1.
        -12    1    6    6    0    0 -0.20167261437E+02  0.54197104580E+02 -0.85088940610E+01  0.58450370887E+02  0.00000000000E+00 0.  1.
</event>
<event>
12    1  0.8421768E-002  0.3039168E+03  0.7818608E-02  0.1083448E+00
         21   -1    0    0  501  502  0.00000000000E+00  0.00000000000E+00  0.20886868434E+04  0.20886868434E+04  0.00000000000E+00 0.  1.
         21   -1    0    0  502  503 -0.00000000000E+00 -0.00000000000E+00 -0.88660862705E+02  0.88660862705E+02  0.00000000000E+00 0. -1.
         -6    2    1    2    0  503  0.20589758279E+03  0.14019720118E+03  0.17732751954E+04  0.17991304389E+04  0.17411590281E+03 0.  0.
        -24    2    3    3    0    0  0.23016145943E+03  0.12084794614E+03  0.15514845158E+04  0.15751297135E+04  0.79692460595E+02 0.  0.
          6    2    1    2  501    0 -0.20589758279E+03 -0.14019720118E+03  0.22675078527E+03  0.37821726722E+03  0.17199800227E+03 0.  0.
         24    2    5    5    0    0 -0.52667949434E+02 -0.11075131804E+03  0.99324046734E+02  0.17670785239E+03  0.79502399277E+02 0.  0.
          5    1    5    5  501    0 -0.15322963335E+03 -0.29445883141E+02  0.12742673854E+03  0.20150941483E+03  0.47000000000E+01 0. -1.
        -13    1    6    6    0    0 -0.72993352240E+01 -0.46612386268E+02 -0.34950259846E+01  0.47309724740E+02  0.00000000000E+00 0.  1.
         14    1    6    6    0    0 -0.45368614210E+02 -0.64138931773E+02  0.10281907272E+03  0.12939812765E+03  0.00000000000E+00 0. -1.
         -5    1    3    3    0  503 -0.24263876641E+02  0.19349255038E+02  0.22179067961E+03  0.22400072531E+03  0.47000000000E+01 0.  1.
         11    1    4    4    0    0  0.96639165419E+02  0.12984152498E+02  0.45896011495E+03  0.46920369098E+03  0.00000000000E+00 0. -1.
        -12    1    4    4    0    0  0.13352229401E+03  0.10786379365E+03  0.10925244008E+04  0.11059260226E+04  0.00000000000E+00 0.  1.
</event>
<event>
12    1  0.8421768E-002  0.1761431E+03  0.7818608E-02  0.1171794E+00
         21   -1    0    0  503  502  0.00000000000E+00  0.00000000000E+00  0.59677818132E+02  0.59677818132E+02  0.00000000000E+00 0.  1.
         21   -1    0    0  501  503 -0.00000000000E+00 -0.00000000000E+00 -0.94484807033E+03  0.94484807033E+03  0.00000000000E+00 0.  1.
          6    2    1    2  501    0  0.36486983520E+02 -0.71920255928E+01 -0.78094487301E+03  0.80056311053E+03  0.17217251250E+03 0.  0.
         24    2    3    3    0    0 -0.16356814093E+02 -0.54190792728E+02 -0.33960966343E+03  0.35357294478E+03  0.80466865256E+02 0.  0.
         -6    2    1    2    0  502 -0.36486983520E+02  0.71920255928E+01 -0.10422537919E+03  0.20396277794E+03  0.17133260028E+03 0.  0.
        -24    2    5    5    0    0  0.33633182856E+02 -0.20076285518E+02 -0.90635968929E+02  0.12736538507E+03  0.80453801774E+02 0.  0.
          5    1    3    3  501    0  0.52843797613E+02  0.46998767135E+02 -0.44133520958E+03  0.44699016574E+03  0.47000000000E+01 0. -1.
        -11    1    4    4    0    0  0.16516103935E+02 -0.39764890277E+02 -0.28490915146E+03  0.28814449982E+03  0.00000000000E+00 0.  1.
         12    1    4    4    0    0 -0.32872918028E+02 -0.14425902451E+02 -0.54700511968E+02  0.65428444966E+02  0.00000000000E+00 0. -1.
         -5    1    5    5    0  502 -0.70120166376E+02  0.27268311111E+02 -0.13589410263E+02  0.76597392872E+02  0.47000000000E+01 0.  1.
         13    1    6    6    0    0  0.34811463476E+02  0.25744858986E+02 -0.38421628311E+02  0.57886589774E+02  0.00000000000E+00 0. -1.
        -14    1    6    6    0    0 -0.11782806209E+01 -0.45821144505E+02 -0.52214340618E+02  0.69478795291E+02  0.00000000000E+00 0.  1.
</event>
<event>
12    1  0.8421768E-002  0.1747537E+03  0.7818608E-02  0.1173263E+00
         21   -1    0    0  503  502  0.00000000000E+00  0.00000000000E+00  0.93234002621E+02  0.93234002621E+02  0.00000000000E+00 0.  1.
         21   -1    0    0  501  503 -0.00000000000E+00 -0.00000000000E+00 -0.55015240110E+03  0.55015240110E+03  0.00000000000E+00 0.  1.
          6    2    1    2  501    0 -0.32781068331E+00  0.26754207448E+02 -0.43449002012E+03  0.46831660772E+03  0.17269329000E+03 0.  0.
         24    2    3    3    0    0  0.17398248598E+02  0.81203842114E+02 -0.28491877182E+03  0.30808981779E+03  0.82727663248E+02 0.  0.
         -6    2    1    2    0  502  0.32781068331E+00 -0.26754207448E+02 -0.22428378364E+02  0.17506979600E+03  0.17155321693E+03 0.  0.
        -24    2    5    5    0    0  0.36856847475E+02 -0.24983489661E+02 -0.69093443892E+02  0.11559522739E+03  0.81275769114E+02 0.  0.
          5    1    3    3  501    0 -0.17726059281E+02 -0.54449634667E+02 -0.14957124830E+03  0.16022678993E+03  0.47000000000E+01 0. -1.
        -11    1    4    4    0    0 -0.86127634032E+01  0.31401019135E+02 -0.21929446950E+03  0.22169859731E+03  0.00000000000E+00 0.  1.
         12    1    4    4    0    0  0.26011012001E+02  0.49802822979E+02 -0.65624302315E+02  0.86391220482E+02  0.00000000000E+00 0. -1.
         -5    1    5    5    0  502 -0.36529036792E+02 -0.17707177868E+01  0.46665065528E+02  0.59474568608E+02  0.47000000000E+01 0.  1.
         11    1    6    6    0    0 -0.18355939128E+02 -0.31714402606E+02 -0.22198335555E+02  0.42842851625E+02  0.00000000000E+00 0. -1.
        -12    1    6    6    0    0  0.55212786603E+02  0.67309129455E+01 -0.46895108337E+02  0.72752375765E+02  0.00000000000E+00 0.  1.
</event>
<event>
12    1  0.8421768E-002  0.1836471E+03  0.7818608E-02  0.1165410E+00
         21   -1    0    0  501  502  0.00000000000E+00  0.00000000000E+00  0.66341598634E+02  0.66341598634E+02  0.00000000000E+00 0. -1.
         21   -1    0    0  502  503 -0.00000000000E+00 -0.00000000000E+00 -0.84760291272E+03  0.84760291272E+03  0.00000000000E+00 0. -1.
         -6    2    1    2    0  503  0.47247765069E+02 -0.12253321675E+02 -0.68789191985E+03  0.71198422783E+03  0.17704166768E+03 0.  0.
        -24    2    3    3    0    0  0.85526180806E+02 -0.24894664240E+02 -0.62847300954E+03  0.64002773017E+03  0.81992071320E+02 0.  0.
          6    2    1    2  501    0 -0.47247765069E+02  0.12253321675E+02 -0.93369394243E+02  0.20196028353E+03  0.17230094934E+03 0.  0.
         24    2    5    5    0    0 -0.84212647532E+02  0.74869529622E+01 -0.11059268029E+03  0.16063411278E+03  0.80154555607E+02 0.  0.
          5    1    5    5  501    0  0.36964882464E+02  0.47663687125E+01  0.17223286052E+02  0.41326170748E+02  0.47000000000E+01 0. -1.
        -11    1    6    6    0    0 -0.33577718748E+02  0.37314757391E+02 -0.79832799636E+02  0.94303394495E+02  0.00000000000E+00 0.  1.
         12    1    6    6    0    0 -0.50634928784E+02 -0.29827804429E+02 -0.30759880658E+02  0.66330718284E+02  0.00000000000E+00 0. -1.
         -5    1    3    3    0  503 -0.38278415738E+02  0.12641342565E+02 -0.59418910311E+02  0.71956497662E+02  0.47000000000E+01 0.  1.
         13    1    4    4    0    0  0.36859408133E+02  0.29211572971E+02 -0.20307885316E+03  0.20845371804E+03  0.00000000000E+00 0. -1.
        -14    1    4    4    0    0  0.48666772674E+02 -0.54106237211E+02 -0.42539415638E+03  0.43157401213E+03  0.00000000000E+00 0.  1.
</event>
<event>
12    1  0.8421768E-002  0.1755496E+03  0.7818608E-02  0.1172716E+00
         21   -1    0    0  501  502  0.00000000000E+00  0.00000000000E+00  0.45278992530E+03  0.45278992530E+03  0.00000000000E+00 0. -1.
         21   -1    0    0  502  503 -0.00000000000E+00 -0.00000000000E+00 -0.75905201198E+02  0.75905201198E+02  0.00000000000E+00 0. -1.
         -6    2    1    2    0  503  0.45415538115E+01 -0.27667490646E+02  0.27673890913E+03  0.32658909030E+03  0.17114290615E+03 0.  0.
        -24    2    3    3    0    0  0.12885714083E+02  0.44313957875E+02  0.20871568773E+03  0.22708932853E+03  0.76665222480E+02 0.  0.
          6    2    1    2  501    0 -0.45415538115E+01  0.27667490646E+02  0.10014581497E+03  0.20210603620E+03  0.17329613343E+03 0.  0.
         24    2    5    5    0    0  0.47694229401E+02 -0.10420574294E+02  0.10081784520E+03  0.13728459404E+03  0.79369351534E+02 0.  0.
          5    1    5    5  501    0 -0.52235783212E+02  0.38088064939E+02 -0.67203023505E+00  0.64821442156E+02  0.47000000000E+01 0. -1.
        -13    1    6    6    0    0  0.34094307112E+02  0.12170884885E+02  0.33998215370E+01  0.36360844363E+02  0.00000000000E+00 0.  1.
         14    1    6    6    0    0  0.13599922289E+02 -0.22591459179E+02  0.97418023667E+02  0.10092374968E+03  0.00000000000E+00 0. -1.
         -5    1    3    3    0  503 -0.83441602718E+01 -0.71981448520E+02  0.68023221399E+02  0.99499761765E+02  0.47000000000E+01 0.  1.
         11    1    4    4    0    0  0.27329176191E+02 -0.76094814361E+01  0.11981653729E+03  0.12312916262E+03  0.00000000000E+00 0. -1.
        -12    1    4    4    0    0 -0.14443462108E+02  0.51923439311E+02  0.88899150442E+02  0.10396016591E+03  0.00000000000E+00 0.  1.
</event>
<event>
12    1  0.8421768E-002  0.2077627E+03  0.7818608E-02  0.1143501E+00
         21   -1    0    0  503  502  0.00000000000E+00  0.00000000000E+00  0.38944866318E+03  0.38944866318E+03  0.00000000000E+00 0. -1.
         21   -1    0    0  501  503 -0.00000000000E+00 -0.00000000000E+00 -0.80957544617E+03  0.80957544617E+03  0.00000000000E+00 0. -1.
          6    2    1    2  501    0 -0.87535037262E+01 -0.11588839122E+03 -0.76723788168E+03  0.79487061718E+03  0.17221668884E+03 0.  0.
         24    2    3    3    0    0  0.16300751551E+02  0.85868844934E+01 -0.29877655313E+03  0.30948425939E+03  0.78572444443E+02 0.  0.
         -6    2    1    2    0  502  0.87535037262E+01  0.11588839122E+03  0.34711109869E+03  0.40415349217E+03  0.17131020795E+03 0.  0.
        -24    2    5    5    0    0 -0.31148487033E+02  0.13740689238E+03  0.27473532338E+03  0.31862245914E+03  0.78675861861E+02 0.  0.
          5    1    3    3  501    0 -0.25054255277E+02 -0.12447527572E+03 -0.46846132856E+03  0.48538635779E+03  0.47000000000E+01 0. -1.
        -13    1    4    4    0    0 -0.16326644468E+02  0.32716599925E+02 -0.96892064782E+02  0.10356161184E+03  0.00000000000E+00 0.  1.
         14    1    4    4    0    0  0.32627396019E+02 -0.24129715432E+02 -0.20188448834E+03  0.20592264754E+03  0.00000000000E+00 0. -1.
         -5    1    5    5    0  502  0.39901990759E+02 -0.21518501152E+02  0.72375775310E+02  0.85531033024E+02  0.47000000000E+01 0.  1.
         11    1    6    6    0    0 -0.12098442851E+01  0.11808693911E+03  0.24589286369E+03  0.27278066157E+03  0.00000000000E+00 0. -1.
        -12    1    6    6    0    0 -0.29938642748E+02  0.19319953261E+02  0.28842459689E+02  0.45841797571E+02  0.00000000000E+00 0.  1.
</event>
<event>
12    1  0.8421768E-002  0.1777128E+03  0.7818608E-02  0.1170466E+00
         21   -1    0    0  503  502  0.00000000000E+00  0.00000000000E+00  0.28691147152E+03  0.28691147152E+03  0.00000000000E+00 0.  1.
         21   -1    0    0  501  503 -0.00000000000E+00 -0.00000000000E+00 -0.12674311540E+03  0.12674311540E+03  0.00000000000E+00 0.  1.
          6    2    1    2  501    0  0.41287283325E+02 -0.12708188422E+02  0.30337140356E+01  0.17773866146E+03  0.17238239626E+03 0.  0.
         24    2    3    3    0    0 -0.30384799407E+02 -0.75896294239E+01  0.41920094644E+02  0.95901459122E+02  0.80367636627E+02 0.  0.
         -6    2    1    2    0  502 -0.41287283325E+02  0.12708188422E+02  0.15713464208E+03  0.23591592546E+03  0.17058396854E+03 0.  0.
        -24    2    5    5    0    0  0.19996530765E+02 -0.22142718400E+02  0.13972660605E+03  0.16314628004E+03  0.78759272669E+02 0.  0.
          5    1    3    3  501    0  0.71672082732E+02 -0.51185589982E+01 -0.38886380609E+02  0.81837202336E+02  0.47000000000E+01 0. -1.
        -13    1    4    4    0    0  0.18208249367E+02 -0.27983867365E+02  0.13353525279E+02  0.35957666986E+02  0.00000000000E+00 0.  1.
         14    1    4    4    0    0 -0.48593048774E+02  0.20394237941E+02  0.28566569366E+02  0.59943792136E+02  0.00000000000E+00 0. -1.
         -5    1    5    5    0  502 -0.61283814090E+02  0.34850906822E+02  0.17408036032E+02  0.72769645418E+02  0.47000000000E+01 0.  1.
         11    1    6    6    0    0  0.18794317317E+02 -0.16480821148E+02  0.17604812719E+01  0.25058793336E+02  0.00000000000E+00 0. -1.
        -12    1    6    6    0    0  0.12022134480E+01 -0.56618972519E+01  0.13796612478E+03  0.13808748670E+03  0.00000000000E+00 0.  1.
</event>
<event>
12    1  0.8421768E-002  0.2452278E+03  0.7818608E-02  0.1116509E+00
         21   -1    0    0  501  502  0.00000000000E+00  0.00000000000E+00  0.17301462129E+04  0.17301462129E+04  0.00000000000E+00 0. -1.
         21   -1    0    0  502  503 -0.00000000000E+00 -0.00000000000E+00 -0.72302781684E+02  0.72302781684E+02  0.00000000000E+00 0. -1.
         -6    2    1    2    0  503 -0.10349221299E+03  0.14109686144E+03  0.17760623896E+03  0.30203611240E+03  0.17047836995E+03 0.  0.
        -24    2    3    3    0    0 -0.10278456774E+03  0.84247677660E+02  0.18855908830E+03  0.24394665237E+03  0.79329066956E+02 0.  0.
          6    2    1    2  501    0  0.10349221299E+03 -0.14109686144E+03  0.14802371923E+04  0.15004128822E+04  0.17180718622E+03 0.  0.
         24    2    5    5    0    0  0.95723718223E+02 -0.85348796878E+02  0.61358646437E+03  0.63192352108E+03  0.79947106733E+02 0.  0.
          5    1    5    5  501    0  0.77684947621E+01 -0.55748064560E+02  0.86665072789E+03  0.86848936111E+03  0.47000000000E+01 0. -1.
        -13    1    6    6    0    0  0.86952477607E+02 -0.10087402087E+03  0.54878205276E+03  0.56471058329E+03  0.00000000000E+00 0.  1.
         14    1    6    6    0    0  0.87712406164E+01  0.15525223993E+02  0.64804411610E+02  0.67212937788E+02  0.00000000000E+00 0. -1.
         -5    1    3    3    0  503 -0.70764524447E+00  0.56849183777E+02 -0.10952849341E+02  0.58089460031E+02  0.47000000000E+01 0.  1.
         11    1    4    4    0    0 -0.79033133390E+02  0.34467080732E+02  0.62935494925E+02  0.10674779787E+03  0.00000000000E+00 0. -1.
        -12    1    4    4    0    0 -0.23751434351E+02  0.49780596928E+02  0.12562359338E+03  0.13719885450E+03  0.00000000000E+00 0.  1.
</event>
<event>
12    1  0.8421768E-002  0.2334606E+03  0.7818608E-02  0.1124361E+00
         21   -1    0    0  503  502  0.00000000000E+00  0.00000000000E+00  0.24335226217E+03  0.24335226217E+03  0.00000000000E+00 0. -1.
         21   -1    0    0  501  503 -0.00000000000E+00 -0.00000000000E+00 -0.26901834125E+03  0.26901834125E+03  0.00000000000E+00 0.  1.
          6    2    1    2  501    0  0.14309379303E+03  0.64610244955E+02 -0.11850866808E+03  0.26112647297E+03  0.17173355268E+03 0.  0.
         24    2    3    3    0    0  0.63515345715E+02  0.10248257120E+03 -0.65779893310E+02  0.15831861305E+03  0.78745871836E+02 0.  0.
         -6    2    1    2    0  502 -0.14309379303E+03 -0.64610244955E+02  0.92842589002E+02  0.25124413045E+03  0.17278179706E+03 0.  0.
        -24    2    5    5    0    0 -0.12463923721E+03 -0.49923102852E+02  0.13221730744E+03  0.20510584672E+03  0.80992199130E+02 0.  0.
          5    1    3    3  501    0  0.79578447316E+02 -0.37872326246E+02 -0.52728774770E+02  0.10280785992E+03  0.47000000000E+01 0. -1.
        -11    1    4    4    0    0  0.61117557510E+02  0.24278395913E+02 -0.29614077805E+02  0.72123435500E+02  0.00000000000E+00 0.  1.
         12    1    4    4    0    0  0.23977882049E+01  0.78204175289E+02 -0.36165815506E+02  0.86195177545E+02  0.00000000000E+00 0. -1.
         -5    1    5    5    0  502 -0.18454555818E+02 -0.14687142103E+02 -0.39374718436E+02  0.46138283730E+02  0.47000000000E+01 0.  1.
         11    1    6    6    0    0 -0.10924442579E+03 -0.52138735419E+01  0.88165777200E+02  0.14048036629E+03  0.00000000000E+00 0. -1.
        -12    1    6    6    0    0 -0.15394811424E+02 -0.44709229310E+02  0.44051530238E+02  0.64625480429E+02  0.00000000000E+00 0.  1.
</event>
<event>
12    1  0.8421768E-002  0.3108116E+03  0.7818608E-02  0.1080044E+00
         21   -1    0    0  503  502  0.00000000000E+00  0.00000000000E+00  0.72677588840E+02  0.72677588840E+02  0.00000000000E+00 0.  1.
         21   -1    0    0  501  503 -0.00000000000E+00 -0.00000000000E+00 -0.13271193582E+04  0.13271193582E+04  0.00000000000E+00 0. -1.
          6    2    1    2  501    0  0.23283406179E+03 -0.11192504795E+03 -0.64572011305E+03  0.71631621528E+03  0.17150958921E+03 0.  0.
         24    2    3    3    0    0  0.93757202427E+02 -0.13429854327E+02 -0.16751042095E+03  0.20862509305E+03  0.80584826913E+02 0.  0.
         -6    2    1    2    0  502 -0.23283406179E+03  0.11192504795E+03 -0.60872165632E+03  0.68348073177E+03  0.17281475381E+03 0.  0.
        -24    2    5    5    0    0 -0.17331562714E+03  0.41865383353E+02 -0.27559328949E+03  0.33786910081E+03  0.80080279315E+02 0.  0.
          5    1    3    3  501    0  0.13907685936E+03 -0.98495193627E+02 -0.47820969210E+03  0.50769112224E+03  0.47000000000E+01 0. -1.
        -11    1    4    4    0    0  0.17059568153E+02 -0.29508970552E+02 -0.98410013571E+02  0.10414575834E+03  0.00000000000E+00 0.  1.
         12    1    4    4    0    0  0.76697634274E+02  0.16079116224E+02 -0.69100407378E+02  0.10447933471E+03  0.00000000000E+00 0. -1.
         -5    1    5    5    0  502 -0.59518434651E+02  0.70059664601E+02 -0.33312836683E+03  0.34561163096E+03  0.47000000000E+01 0.  1.
         11    1    6    6    0    0 -0.96895472230E+02 -0.11324129357E+02 -0.10367540985E+03  0.14235715315E+03  0.00000000000E+00 0. -1.
        -12    1    6    6    0    0 -0.76420154907E+02  0.53189512710E+02 -0.17191787964E+03  0.19551194766E+03  0.00000000000E+00 0.  1.
</event>
<event>
12    1  0.8421768E-002  0.2110828E+03  0.7818608E-02  0.1142563E+00
         21   -1    0    0  501  502  0.00000000000E+00  0.00000000000E+00  0.27488653251E+03  0.27488653251E+03  0.00000000000E+00 0.  1.
         21   -1    0    0  502  503 -0.00000000000E+00 -0.00000000000E+00 -0.15526063771E+03  0.15526063771E+03  0.00000000000E+00 0.  1.
         -6    2    1    2    0  503  0.75128242742E+02 -0.76782272386E+02  0.54338378762E+02  0.21796467947E+03  0.18170352743E+03 0.  0.
        -24    2    3    3    0    0 -0.23543585185E+02 -0.46699419206E+02 -0.17379231409E+02  0.92240325068E+02  0.73966909673E+02 0.  0.
          6    2    1    2  501    0 -0.75128242742E+02  0.76782272386E+02  0.65287516040E+02  0.21218249074E+03  0.17093618522E+03 0.  0.
         24    2    5    5    0    0 -0.11279813059E+03  0.33886190584E+02  0.59285886789E+02  0.15458731874E+03  0.80689098199E+02 0.  0.
          5    1    5    5  501    0  0.37669887843E+02  0.42896081802E+02  0.60016292516E+01  0.57595172001E+02  0.47000000000E+01 0. -1.
        -11    1    6    6    0    0 -0.15843723762E+02  0.30454685984E+02  0.44886568148E+02  0.56509428250E+02  0.00000000000E+00 0.  1.
         12    1    6    6    0    0 -0.96954406823E+02  0.34315045995E+01  0.14399318641E+02  0.98077890493E+02  0.00000000000E+00 0. -1.
         -5    1    3    3    0  503  0.98671827927E+02 -0.30082853180E+02  0.71717610172E+02  0.12572435441E+03  0.47000000000E+01 0.  1.
         13    1    4    4    0    0 -0.10578868970E+02  0.19962740313E+02 -0.26213331615E+01  0.22744116977E+02  0.00000000000E+00 0. -1.
        -14    1    4    4    0    0 -0.12964716215E+02 -0.66662159519E+02 -0.14757898248E+02  0.69496208091E+02  0.00000000000E+00 0.  1.
</event>
<event>
12    1  0.8421768E-002  0.4846217E+03  0.7818608E-02  0.1018179E+00
         21   -1    0    0  503  502  0.00000000000E+00  0.00000000000E+00  0.19114576586E+04  0.19114576586E+04  0.00000000000E+00 0. -1.
         21   -1    0    0  501  503 -0.00000000000E+00 -0.00000000000E+00 -0.16218626449E+03  0.16218626449E+03  0.00000000000E+00 0.  1.
          6    2    1    2  501    0  0.15393119022E+03  0.42077376778E+03  0.35987862918E+03  0.60363138287E+03  0.18469662605E+03 0.  0.
         24    2    3    3    0    0  0.11248925509E+03  0.41009899129E+03  0.35374280986E+03  0.56014433746E+03  0.88276203386E+02 0.  0.
         -6    2    1    2    0  502 -0.15393119022E+03 -0.42077376778E+03  0.13893927649E+04  0.14700125402E+04  0.17256661951E+03 0.  0.
        -24    2    5    5    0    0 -0.75051592159E+02 -0.13387079460E+03  0.65067415864E+03  0.67360650288E+03  0.82551371134E+02 0.  0.
          5    1    3    3  501    0  0.41441935131E+02  0.10674776489E+02  0.61358193196E+01  0.43487045419E+02  0.47000000000E+01 0. -1.
        -13    1    4    4    0    0  0.11936285339E+03  0.36826271424E+03  0.34094702764E+03  0.51585830722E+03  0.00000000000E+00 0.  1.
         14    1    4    4    0    0 -0.68735983042E+01  0.41836277055E+02  0.12795782218E+02  0.44286030236E+02  0.00000000000E+00 0. -1.
         -5    1    5    5    0  502 -0.78879598062E+02 -0.28690297319E+03  0.73871860628E+03  0.79640603732E+03  0.47000000000E+01 0.  1.
         11    1    6    6    0    0 -0.73130898118E+02 -0.53050756459E+02  0.40568600483E+03  0.41562440441E+03  0.00000000000E+00 0. -1.
        -12    1    6    6    0    0 -0.19206940416E+01 -0.80820038137E+02  0.24498815380E+03  0.25798209848E+03  0.00000000000E+00 0.  1.
</event>
<event>
12    1  0.8421768E-002  0.3875621E+03  0.7818608E-02  0.1048204E+00
         21   -1    0    0  501  502  0.00000000000E+00  0.00000000000E+00  0.58203665383E+03  0.58203665383E+03  0.00000000000E+00 0. -1.
         21   -1    0    0  502  503 -0.00000000000E+00 -0.00000000000E+00 -0.65919280115E+03  0.65919280115E+03  0.00000000000E+00 0. -1.
         -6    2    1    2    0  503 -0.26624912443E+03 -0.22229067414E+03 -0.52284466013E+03  0.65082326820E+03  0.17292382060E+03 0.  0.
        -24    2    3    3    0    0 -0.18826876675E+03 -0.22770829983E+03 -0.44694166960E+03  0.54176529818E+03  0.80352871412E+02 0.  0.
          6    2    1    2  501    0  0.26624912443E+03  0.22229067414E+03  0.44568851281E+03  0.59040618678E+03  0.17216118861E+03 0.  0.
         24    2    5    5    0    0  0.22823471117E+03  0.12259991853E+03  0.25094044374E+03  0.36829755846E+03  0.74499408399E+02 0.  0.
          5    1    5    5  501    0  0.38014413262E+02  0.99690755613E+02  0.19474806907E+03  0.22210862832E+03  0.47000000000E+01 0. -1.
        -11    1    6    6    0    0  0.10289225748E+03  0.14626427500E+02  0.89706071920E+02  0.13728775754E+03  0.00000000000E+00 0.  1.
         12    1    6    6    0    0  0.12534245369E+03  0.10797349103E+03  0.16123437182E+03  0.23100980091E+03  0.00000000000E+00 0. -1.
         -5    1    3    3    0  503 -0.77980357688E+02  0.54176256898E+01 -0.75902990531E+02  0.10905797002E+03  0.47000000000E+01 0.  1.
         13    1    4    4    0    0 -0.65035482180E+02 -0.52561265403E+02 -0.18786758659E+03  0.20563689030E+03  0.00000000000E+00 0. -1.
        -14    1    4    4    0    0 -0.12323328457E+03 -0.17514703443E+03 -0.25907408301E+03  0.33612840788E+03  0.00000000000E+00 0.  1.
</event>
<event>
12    1  0.8421768E-002  0.2617761E+03  0.7818608E-02  0.1106147E+00
         21   -1    0    0  503  502  0.00000000000E+00  0.00000000000E+00  0.14995989075E+04  0.14995989075E+04  0.00000000000E+00 0. -1.
         21   -1    0    0  501  503 -0.00000000000E+00 -0.00000000000E+00 -0.55015924687E+02  0.55015924687E+02  0.00000000000E+00 0. -1.
          6    2    1    2  501    0 -0.52498339496E+02  0.18980635362E+03  0.10440582834E+04  0.10763755962E+04  0.17246506131E+03 0.  0.
         24    2    3    3    0    0 -0.65194503268E+02  0.13150291246E+03  0.46700596985E+03  0.49622738545E+03  0.81263170971E+02 0.  0.
         -6    2    1    2    0  502  0.52498339496E+02 -0.18980635362E+03  0.40052469938E+03  0.47823923598E+03  0.17178534424E+03 0.  0.
        -24    2    5    5    0    0 -0.73326702008E+01 -0.18361915328E+03  0.29483575008E+03  0.35654176200E+03  0.80150776806E+02 0.  0.
          5    1    3    3  501    0  0.12696163772E+02  0.58303441158E+02  0.57705231355E+03  0.58014821072E+03  0.47000000000E+01 0. -1.
        -11    1    4    4    0    0 -0.75523348222E+02  0.13627435065E+03  0.42322276290E+03  0.45099000189E+03  0.00000000000E+00 0.  1.
         12    1    4    4    0    0  0.10328844953E+02 -0.47714381891E+01  0.43783206953E+02  0.45237383562E+02  0.00000000000E+00 0. -1.
         -5    1    5    5    0  502  0.59831009697E+02 -0.61872003374E+01  0.10568894930E+03  0.12169747398E+03  0.47000000000E+01 0.  1.
         11    1    6    6    0    0  0.34166373597E+02 -0.67504056812E+02  0.91376584563E+02  0.11863312765E+03  0.00000000000E+00 0. -1.
        -12    1    6    6    0    0 -0.41499043798E+02 -0.11611509647E+03  0.20345916551E+03  0.23790863434E+03  0.00000000000E+00 0.  1.
</event>
<event>
12    1  0.8421768E-002  0.1746459E+03  0.7818608E-02  0.1173392E+00
         21   -1    0    0  503  502  0.00000000000E+00  0.00000000000E+00  0.30538040671E+03  0.30538040671E+03  0.00000000000E+00 0. -1.
         21   -1    0    0  501  503 -0.00000000000E+00 -0.00000000000E+00 -0.13358874231E+03  0.13358874231E+03  0.00000000000E+00 0. -1.
          6    2    1    2  501    0 -0.27264738137E+02 -0.15038086525E+02 -0.25257097778E+02  0.17646276565E+03  0.17184783001E+03 0.  0.
         24    2    3    3    0    0  0.17322886036E+02 -0.18214231555E+02 -0.74123419209E+02  0.11006885405E+03  0.77388828299E+02 0.  0.
         -6    2    1    2    0  502  0.27264738137E+02  0.15038086525E+02  0.19704876217E+03  0.26250638337E+03  0.17062202860E+03 0.  0.
        -24    2    5    5    0    0 -0.12478747243E+02 -0.41926929881E+02  0.15958062275E+03  0.18344622149E+03  0.79201985076E+02 0.  0.
          5    1    3    3  501    0 -0.44587624173E+02  0.31761450304E+01  0.48866321431E+02  0.66393911594E+02  0.47000000000E+01 0. -1.
        -13    1    4    4    0    0  0.21457407524E+02 -0.47242573454E+02 -0.44003022509E+02  0.68033426153E+02  0.00000000000E+00 0.  1.
         14    1    4    4    0    0 -0.41345214884E+01  0.29028341899E+02 -0.30120396700E+02  0.42035427900E+02  0.00000000000E+00 0. -1.
         -5    1    5    5    0  502  0.39743485381E+02  0.56965016406E+02  0.37468139422E+02  0.79060161878E+02  0.47000000000E+01 0.  1.
         13    1    6    6    0    0 -0.11070718605E+02 -0.20602992461E+02  0.16036481634E+03  0.16206146497E+03  0.00000000000E+00 0. -1.
        -14    1    6    6    0    0 -0.14080286384E+01 -0.21323937421E+02 -0.78419359109E+00  0.21384756519E+02  0.00000000000E+00 0.  1.
</event>
<event>
12    1  0.8421768E-002  0.2236207E+03  0.7818608E-02  0.1132602E+00
         21   -1    0    0  501  502  0.00000000000E+00  0.00000000000E+00  0.19529669339E+03  0.19529669339E+03  0.00000000000E+00 0.  1.
         21   -1    0    0  502  503 -0.00000000000E+00 -0.00000000000E+00 -0.31136102625E+03  0.31136102625E+03  0.00000000000E+00 0.  1.
         -6    2    1    2    0  503  0.42556056803E+02  0.12383258729E+03  0.55842353938E+02  0.23048774568E+03  0.18127521830E+03 0.  0.
        -24    2    3    3    0    0 -0.35441166965E+02  0.15901847926E+02  0.58575469563E+01  0.88174069790E+02  0.78939284539E+02 0.  0.
          6    2    1    2  501    0 -0.42556056803E+02 -0.12383258729E+03 -0.17190668680E+03  0.27616997396E+03  0.17196632782E+03 0.  0.
         24    2    5    5    0    0  0.23619237706E+02 -0.10627696055E+03 -0.15507075199E+03  0.20550945928E+03  0.79589817173E+02 0.  0.
          5    1    5    5  501    0 -0.66175294510E+02 -0.17555626745E+02 -0.16835934807E+02  0.70660514679E+02  0.47000000000E+01 0. -1.
        -11    1    6    6    0    0 -0.22532781692E+02 -0.47876330731E+02 -0.99230437959E+02  0.11245687668E+03  0.00000000000E+00 0.  1.
         12    1    6    6    0    0  0.46152019398E+02 -0.58400629816E+02 -0.55840314031E+02  0.93052582600E+02  0.00000000000E+00 0. -1.
         -5    1    3    3    0  503  0.77997223769E+02  0.10793073937E+03  0.49984806981E+02  0.14231367589E+03  0.47000000000E+01 0.  1.
         13    1    4    4    0    0 -0.32289370451E+02  0.46347231221E+02  0.97438066089E+01  0.57320249940E+02  0.00000000000E+00 0. -1.
        -14    1    4    4    0    0 -0.31517965143E+01 -0.30445383295E+02 -0.38862596526E+01  0.30853819850E+02  0.00000000000E+00 0.  1.
</event>
<event>
12    1  0.8421768E-002  0.1959926E+03  0.7818608E-02  0.1154315E+00
         21   -1    0    0  501  502  0.00000000000E+00  0.00000000000E+00  0.16203124342E+04  0.16203124342E+04  0.00000000000E+00 0. -1.
         21   -1    0    0  502  503 -0.00000000000E+00 -0.00000000000E+00 -0.32033071436E+02  0.32033071436E+02  0.00000000000E+00 0.  1.
         -6    2    1    2    0  503 -0.76172283228E+02  0.22111342136E+02  0.36509270064E+03  0.41437396631E+03  0.17922604641E+03 0.  0.
        -24    2    3    3    0    0 -0.20759329692E+02  0.34748794507E+02  0.68274885871E+02  0.11212703781E+03  0.79199646965E+02 0.  0.
          6    2    1    2  501    0  0.76172283228E+02 -0.22111342136E+02  0.12231866621E+04  0.12379715393E+04  0.17348427477E+03 0.  0.
         24    2    5    5    0    0 -0.32593886710E+02 -0.49490034994E+02  0.46687306964E+03  0.47337228957E+03  0.50982706519E+02 0.  0.
          5    1    5    5  501    0  0.10876616994E+03  0.27378692858E+02  0.75631359249E+03  0.76459924976E+03  0.47000000000E+01 0. -1.
        -13    1    6    6    0    0 -0.12674383875E+02 -0.55561366868E+02  0.32084320387E+03  0.32586510548E+03  0.00000000000E+00 0.  1.
         14    1    6    6    0    0 -0.19919502835E+02  0.60713318746E+01  0.14602986576E+03  0.14750718409E+03  0.00000000000E+00 0. -1.
         -5    1    3    3    0  503 -0.55412953536E+02 -0.12637452371E+02  0.29681781477E+03  0.30224692849E+03  0.47000000000E+01 0.  1.
         11    1    4    4    0    0  0.82741676334E+01  0.53427563782E+02  0.46498668400E+02  0.71309835119E+02  0.00000000000E+00 0. -1.
        -12    1    4    4    0    0 -0.29033497325E+02 -0.18678769275E+02  0.21776217471E+02  0.40817202696E+02  0.00000000000E+00 0.  1.
</event>
<event>
12    1  0.8421768E-002  0.1815579E+03  0.7818608E-02  0.1166333E+00
         21   -1    0    0  501  502  0.00000000000E+00  0.00000000000E+00  0.50637873348E+03  0.50637873348E+03  0.00000000000E+00 0.  1.
         21   -1    0    0  502  503 -0.00000000000E+00 -0.00000000000E+00 -0.11274896403E+03  0.11274896403E+03  0.00000000000E+00 0.  1.
         -6    2    1    2    0  503 -0.22769186485E+02 -0.56108012083E+02 -0.45666261448E+01  0.18149354634E+03  0.17103364703E+03 0.  0.
        -24    2    3    3    0    0  0.36183054184E+02 -0.33078759405E+02 -0.47137159576E+02  0.10507330377E+03  0.80094129737E+02 0.  0.
          6    2    1    2  501    0  0.22769186485E+02  0.56108012083E+02  0.39819639559E+03  0.43763415117E+03  0.17116289297E+03 0.  0.
         24    2    5    5    0    0  0.86664595769E+02  0.29396247097E+02  0.22450452176E+03  0.25058576504E+03  0.63372342925E+02 0.  0.
          5    1    5    5  501    0 -0.63895409284E+02  0.26711764986E+02  0.17369187384E+03  0.18704838613E+03  0.47000000000E+01 0. -1.
        -13    1    6    6    0    0  0.69775496176E+02 -0.68289789169E+01  0.16023880105E+03  0.17490491183E+03  0.00000000000E+00 0.  1.
         14    1    6    6    0    0  0.16889099592E+02  0.36225226014E+02  0.64265720711E+02  0.75680853215E+02  0.00000000000E+00 0. -1.
         -5    1    3    3    0  503 -0.58952240668E+02 -0.23029252678E+02  0.42570533431E+02  0.76420242576E+02  0.47000000000E+01 0.  1.
         13    1    4    4    0    0 -0.99457469109E+01  0.19752632533E+02 -0.32880890623E+01  0.22358351980E+02  0.00000000000E+00 0. -1.
        -14    1    4    4    0    0  0.46128801094E+02 -0.52831391938E+02 -0.43849070513E+02  0.82714951789E+02  0.00000000000E+00 0.  1.
</event>
<event>
12    1  0.8421768E-002  0.2264211E+03  0.7818608E-02  0.1129235E+00
         21   -1    0    0  503  502  0.00000000000E+00  0.00000000000E+00  0.48728695442E+03  0.48728695442E+03  0.00000000000E+00 0. -1.
         21   -1    0    0  501  503 -0.00000000000E+00 -0.00000000000E+00 -0.14139063025E+03  0.14139063025E+03  0.00000000000E+00 0. -1.
          6    2    1    2  501    0 -0.12524457386E+03 -0.79643212592E+02  0.33217050364E+03  0.40184084722E+03  0.17061529362E+03 0.  0.
         24    2    3    3    0    0 -0.34521081830E+02 -0.66692390414E+02  0.83828424403E+02  0.13708746364E+03  0.78269968178E+02 0.  0.
         -6    2    1    2    0  502  0.12524457386E+03  0.79643212592E+02  0.13725820525E+02  0.22683673745E+03  0.17098907191E+03 0.  0.
        -24    2    5    5    0    0  0.63899363313E+02  0.11084620226E+03  0.35228674844E+02  0.15457800673E+03  0.79267215462E+02 0.  0.
          5    1    3    3  501    0 -0.90723492032E+02 -0.12950822178E+02  0.24834207924E+03  0.26475338359E+03  0.47000000000E+01 0. -1.
        -13    1    4    4    0    0  0.16564536314E+02 -0.10996488691E+02  0.50907335931E+02  0.54652204699E+02  0.00000000000E+00 0.  1.
         14    1    4    4    0    0 -0.51085618144E+02 -0.55695901723E+02  0.32921088471E+02  0.82435258938E+02  0.00000000000E+00 0. -1.
         -5    1    5    5    0  502  0.61345210549E+02 -0.31202989664E+02 -0.21502854319E+02  0.72258730719E+02  0.47000000000E+01 0.  1.
         13    1    6    6    0    0  0.49168060756E+02  0.57501897518E+02 -0.18026438144E+02  0.77774795975E+02  0.00000000000E+00 0. -1.
        -14    1    6    6    0    0  0.14731302556E+02  0.53344304737E+02  0.53255112988E+02  0.76803210755E+02  0.00000000000E+00 0.  1.
</event>
<event>
12    1  0.8421768E-002  0.2264312E+03  0.7818608E-02  0.1129221E+00
         21   -1    0    0  501  502  0.00000000000E+00  0.00000000000E+00  0.50454583448E+03  0.50454583448E+03  0.00000000000E+00 0. -1.
         21   -1    0    0  502  503 -0.00000000000E+00 -0.00000000000E+00 -0.26550859585E+03  0.26550859585E+03  0.00000000000E+00 0. -1.
         -6    2    1    2    0  503  0.28036012004E+02 -0.14517088646E+03 -0.18306098931E+03  0.29117420883E+03  0.17149486825E+03 0.  0.
        -24    2    3    3    0    0  0.59210743377E+02 -0.90151716254E+02 -0.18412727890E+03  0.22775339253E+03  0.79595910084E+02 0.  0.
          6    2    1    2  501    0 -0.28036012004E+02  0.14517088646E+03  0.42209822794E+03  0.47888022150E+03  0.17116877132E+03 0.  0.
         24    2    5    5    0    0 -0.23537167552E+02  0.20404349066E+02  0.26500959374E+03  0.27816685013E+03  0.78589923143E+02 0.  0.
          5    1    5    5  501    0 -0.44988444517E+01  0.12476653739E+03  0.15708863420E+03  0.20071337137E+03  0.47000000000E+01 0. -1.
        -13    1    6    6    0    0 -0.24644279082E+02  0.51412243508E+01  0.18645045052E+02  0.31327470122E+02  0.00000000000E+00 0.  1.
         14    1    6    6    0    0  0.11071115294E+01  0.15263124715E+02  0.24636454869E+03  0.24683938001E+03  0.00000000000E+00 0. -1.
         -5    1    3    3    0  503 -0.31174731373E+02 -0.55019170204E+02  0.10662895896E+01  0.63420816296E+02  0.47000000000E+01 0.  1.
         11    1    4    4    0    0  0.44517128657E+02 -0.10151084241E+03 -0.13171816129E+03  0.17215080564E+03  0.00000000000E+00 0. -1.
        -12    1    4    4    0    0  0.14693614720E+02  0.11359126154E+02 -0.52409117611E+02  0.55602586894E+02  0.00000000000E+00 0.  1.
</event>
<event>
12    1  0.8421768E-002  0.2065679E+03  0.7818608E-02  0.1144375E+00
         21   -1    0    0  503  502  0.00000000000E+00  0.00000000000E+00  0.24912483341E+02  0.24912483341E+02  0.00000000000E+00 0. -1.
         21   -1    0    0  501  503 -0.00000000000E+00 -0.00000000000E+00 -0.20908213737E+04  0.20908213737E+04  0.00000000000E+00 0. -1.
          6    2    1    2  501    0  0.87257361016E+02  0.72974014137E+02 -0.14848878803E+04  0.14991872218E+04  0.17242753545E+03 0.  0.
         24    2    3    3    0    0 -0.14578037571E+02  0.28869727902E+02 -0.89015538885E+03  0.89417113696E+03  0.78226756865E+02 0.  0.
         -6    2    1    2    0  502 -0.87257361016E+02 -0.72974014137E+02 -0.58102101004E+03  0.61654663528E+03  0.17206186555E+03 0.  0.
        -24    2    5    5    0    0 -0.98406649618E+02 -0.41054939584E+02 -0.56154541615E+03  0.57724621907E+03  0.80688080163E+02 0.  0.
          5    1    3    3  501    0  0.10183539859E+03  0.44104286235E+02 -0.59473249147E+03  0.60501608481E+03  0.47000000000E+01 0. -1.
        -13    1    4    4    0    0  0.92701835938E+01 -0.36157503306E+00 -0.71222303427E+03  0.71228345312E+03  0.00000000000E+00 0.  1.
         14    1    4    4    0    0 -0.23848221165E+02  0.29231302935E+02 -0.17793235458E+03  0.18188768384E+03  0.00000000000E+00 0. -1.
         -5    1    5    5    0  502  0.11149288602E+02 -0.31919074553E+02 -0.19475593888E+02  0.39300416206E+02  0.47000000000E+01 0.  1.
         11    1    6    6    0    0 -0.67879203668E+02  0.22349977474E+01 -0.18655627197E+03  0.19853418878E+03  0.00000000000E+00 0. -1.
        -12    1    6    6    0    0 -0.30527445951E+02 -0.43289937332E+02 -0.37498914418E+03  0.37871203029E+03  0.00000000000E+00 0.  1.
</event>
<event>
12    1  0.8421768E-002  0.2448130E+03  0.7818608E-02  0.1116650E+00
         21   -1    0    0  501  502  0.00000000000E+00  0.00000000000E+00  0.11744023092E+03  0.11744023092E+03  0.00000000000E+00 0. -1.
         21   -1    0    0  502  503 -0.00000000000E+00 -0.00000000000E+00 -0.65964844795E+03  0.65964844795E+03  0.00000000000E+00 0.  1.
         -6    2    1    2    0  503  0.10533854091E+03  0.13839017759E+03 -0.45608353689E+03  0.51756824311E+03  0.17209486977E+03 0.  0.
        -24    2    3    3    0    0  0.75750612729E+02  0.73216069244E+02 -0.13495119227E+03  0.18852237601E+03  0.78931070173E+02 0.  0.
          6    2    1    2  501    0 -0.10533854091E+03 -0.13839017759E+03 -0.86124680150E+02  0.25952043576E+03  0.17229436031E+03 0.  0.
         24    2    5    5    0    0 -0.85721948445E+02 -0.76445702178E+02 -0.11989836006E+03  0.18614005563E+03  0.84144552631E+02 0.  0.
          5    1    5    5  501    0 -0.19616592460E+02 -0.61944475408E+02  0.33773679912E+02  0.73380380130E+02  0.47000000000E+01 0. -1.
        -13    1    6    6    0    0 -0.11017797192E+01  0.15749039137E+02 -0.22866997804E+02  0.27787510519E+02  0.00000000000E+00 0.  1.
         14    1    6    6    0    0 -0.84620168726E+02 -0.92194741315E+02 -0.97031362257E+02  0.15835254511E+03  0.00000000000E+00 0. -1.
         -5    1    3    3    0  503  0.29587928176E+02  0.65174108342E+02 -0.32113234462E+03  0.32904586709E+03  0.47000000000E+01 0.  1.
         11    1    4    4    0    0  0.57403370461E+01  0.13053280768E+02  0.94721603580E+01  0.17119037066E+02  0.00000000000E+00 0. -1.
        -12    1    4    4    0    0  0.70010275683E+02  0.60162788476E+02 -0.14442335263E+03  0.17140333895E+03  0.00000000000E+00 0.  1.
</event>
<event>
12    1  0.8421768E-002  0.2232349E+03  0.7818608E-02  0.1131674E+00
         21   -1    0    0  503  502  0.00000000000E+00  0.00000000000E+00  0.12061248123E+03  0.12061248123E+03  0.00000000000E+00 0. -1.
         21   -1    0    0  501  503 -0.00000000000E+00 -0.00000000000E+00 -0.75943566180E+03  0.75943566180E+03  0.00000000000E+00 0. -1.
          6    2    1    2  501    0  0.10039104836E+03  0.98222008932E+02 -0.61769166690E+03  0.65679283324E+03  0.17351629553E+03 0.  0.
         24    2    3    3    0    0  0.60219890428E+02 -0.10176004855E+02 -0.36606929507E+03  0.37984561927E+03  0.80907227171E+02 0.  0.
         -6    2    1    2    0  502 -0.10039104836E+03 -0.98222008932E+02 -0.21131513679E+02  0.22325530979E+03  0.17225117372E+03 0.  0.
        -24    2    5    5    0    0 -0.90366939487E+02 -0.11812760900E+03 -0.59170492199E+02  0.17891830989E+03  0.79939343934E+02 0.  0.
          5    1    3    3  501    0  0.40171157930E+02  0.10839801379E+03 -0.25162237183E+03  0.27694721397E+03  0.47000000000E+01 0. -1.
        -13    1    4    4    0    0  0.24762852574E+02 -0.35996090945E+02 -0.87044571989E+02  0.97394429736E+02  0.00000000000E+00 0.  1.
         14    1    4    4    0    0  0.35457037854E+02  0.25820086091E+02 -0.27902472308E+03  0.28245118953E+03  0.00000000000E+00 0. -1.
         -5    1    5    5    0  502 -0.10024108871E+02  0.19905600065E+02  0.38038978520E+02  0.44336999892E+02  0.47000000000E+01 0.  1.
         13    1    6    6    0    0 -0.95003652914E+02 -0.67171774098E+02 -0.51264477848E+02  0.12714475212E+03  0.00000000000E+00 0. -1.
        -14    1    6    6    0    0  0.46367134272E+01 -0.50955834900E+02 -0.79060143503E+01  0.51773557775E+02  0.00000000000E+00 0.  1.
</event>
<event>
12    1  0.8421768E-002  0.2164888E+03  0.7818608E-02  0.1136768E+00
         21   -1    0    0  501  502  0.00000000000E+00  0.00000000000E+00  0.91858459081E+03  0.91858459081E+03  0.00000000000E+00 0.  1.
         21   -1    0    0  502  503 -0.00000000000E+00 -0.00000000000E+00 -0.62687607369E+02  0.62687607369E+02  0.00000000000E+00 0.  1.
         -6    2    1    2    0  503 -0.98417830605E+02 -0.86606511165E+02  0.21463410049E+03  0.30485277242E+03  0.17228075518E+03 0.  0.
        -24    2    3    3    0    0 -0.15367694717E+02 -0.10264133738E+03  0.11264001669E+03  0.17226572987E+03  0.78843504164E+02 0.  0.
          6    2    1    2  501    0  0.98417830605E+02  0.86606511165E+02  0.64126288296E+03  0.67641942576E+03  0.17069972856E+03 0.  0.
         24    2    5    5    0    0  0.50897263491E+02  0.55857024112E+02  0.58894199203E+03  0.59919701399E+03  0.80460257389E+02 0.  0.
          5    1    5    5  501    0  0.47520567114E+02  0.30749487053E+02  0.52320890924E+02  0.77222411772E+02  0.47000000000E+01 0. -1.
        -13    1    6    6    0    0  0.23205712279E+02  0.68165583566E+01  0.42805226113E+03  0.42873501001E+03  0.00000000000E+00 0.  1.
         14    1    6    6    0    0  0.27691551213E+02  0.49040465755E+02  0.16088973090E+03  0.17046200398E+03  0.00000000000E+00 0. -1.
         -5    1    3    3    0  503 -0.83050135888E+02  0.16034826213E+02  0.10199408379E+03  0.13258704255E+03  0.47000000000E+01 0.  1.
         13    1    4    4    0    0  0.18291501188E+02 -0.14174827059E+01  0.18033987893E+01  0.18434763902E+02  0.00000000000E+00 0. -1.
        -14    1    4    4    0    0 -0.33659195905E+02 -0.10122385467E+03  0.11083661790E+03  0.15383096597E+03  0.00000000000E+00 0.  1.
</event>
<event>
12    1  0.8421768E-002  0.1724310E+03  0.7818608E-02  0.1175785E+00
         21   -1    0    0  501  502  0.00000000000E+00  0.00000000000E+00  0.35462510098E+03  0.35462510098E+03  0.00000000000E+00 0.  1.
         21   -1    0    0  502  503 -0.00000000000E+00 -0.00000000000E+00 -0.12123163994E+03  0.12123163994E+03  0.00000000000E+00 0.  1.
         -6    2    1    2    0  503 -0.99529834372E+01  0.67664212412E+01 -0.16517443995E+02  0.17322029325E+03  0.17201045812E+03 0.  0.
        -24    2    3    3    0    0 -0.68529499966E+02 -0.50831071857E+01  0.12100129880E+02  0.10679232364E+03  0.80845883632E+02 0.  0.
          6    2    1    2  501    0  0.99529834372E+01 -0.67664212412E+01  0.24991090504E+03  0.30263644768E+03  0.17026013236E+03 0.  0.
         24    2    5    5    0    0  0.25296009361E+02  0.50062907030E+02  0.88794601184E+02  0.13103943615E+03  0.78362426444E+02 0.  0.
          5    1    5    5  501    0 -0.15343025924E+02 -0.56829328271E+02  0.16111630385E+03  0.17159701152E+03  0.47000000000E+01 0. -1.
        -13    1    6    6    0    0  0.30505527072E+02  0.42910906987E+02  0.10220753707E+03  0.11497092569E+03  0.00000000000E+00 0.  1.
         14    1    6    6    0    0 -0.52095177105E+01  0.71520000435E+01 -0.13412935886E+02  0.16068510463E+02  0.00000000000E+00 0. -1.
         -5    1    3    3    0  503  0.58576516529E+02  0.11849528427E+02 -0.28617573876E+02  0.66427969615E+02  0.47000000000E+01 0.  1.
         11    1    4    4    0    0 -0.27432635800E+02  0.85515624746E+01  0.44320301556E+02  0.52820146324E+02  0.00000000000E+00 0. -1.
        -12    1    4    4    0    0 -0.41096864166E+02 -0.13634669660E+02 -0.32220171675E+02  0.53972177312E+02  0.00000000000E+00 0.  1.
</event>
<event>
12    1  0.8421768E-002  0.2652453E+03  0.7818608E-02  0.1104203E+00
         21   -1    0    0  501  502  0.00000000000E+00  0.00000000000E+00  0.10277477238E+04  0.10277477238E+04  0.00000000000E+00 0. -1.
         21   -1    0    0  502  503 -0.00000000000E+00 -0.00000000000E+00 -0.74786411672E+02  0.74786411672E+02  0.00000000000E+00 0.  1.
         -6    2    1    2    0  503 -0.19979519128E+03 -0.12922750137E+02  0.31138474458E+03  0.40828954584E+03  0.17220562752E+03 0.  0.
        -24    2    3    3    0    0 -0.12590752824E+03 -0.71712749551E+02  0.22730028040E+03  0.28176706602E+03  0.82047778224E+02 0.  0.
          6    2    1    2  501    0  0.19979519128E+03  0.12922750137E+02  0.64157656751E+03  0.69424458960E+03  0.17398259190E+03 0.  0.
         24    2    5    5    0    0  0.11549860668E+03  0.66916663093E+02  0.47593908035E+03  0.50064933149E+03  0.79460537190E+02 0.  0.
          5    1    5    5  501    0  0.84296584598E+02 -0.53993912956E+02  0.16563748716E+03  0.19359525811E+03  0.47000000000E+01 0. -1.
        -11    1    6    6    0    0  0.76100270868E+02  0.31225025414E+02  0.15634068261E+03  0.17665973644E+03  0.00000000000E+00 0.  1.
         12    1    6    6    0    0  0.39398335812E+02  0.35691637679E+02  0.31959839774E+03  0.32398959505E+03  0.00000000000E+00 0. -1.
         -5    1    3    3    0  503 -0.73887663042E+02  0.58789999414E+02  0.84084464189E+02  0.12652247982E+03  0.47000000000E+01 0.  1.
         13    1    4    4    0    0 -0.15341724154E+01 -0.16543000022E+02 -0.27932709646E+00  0.16616334083E+02  0.00000000000E+00 0. -1.
        -14    1    4    4    0    0 -0.12437335582E+03 -0.55169749529E+02  0.22757960749E+03  0.26515073194E+03  0.00000000000E+00 0.  1.
</event>
<event>
12    1  0.8421768E-002  0.2634454E+03  0.7818608E-02  0.1105604E+00
         21   -1    0    0  501  502  0.00000000000E+00  0.00000000000E+00  0.79791457476E+03  0.79791457476E+03  0.00000000000E+00 0. -1.
         21   -1    0    0  502  503 -0.00000000000E+00 -0.00000000000E+00 -0.10027507156E+03  0.10027507156E+03  0.00000000000E+00 0.  1.
         -6    2    1    2    0  503 -0.17674442953E+03 -0.92219826794E+02  0.18042627901E+03  0.31930727402E+03  0.17222195927E+03 0.  0.
        -24    2    3    3    0    0 -0.17593155045E+03 -0.12320822223E+03  0.17262841817E+03  0.28699879126E+03  0.80221935637E+02 0.  0.
          6    2    1    2  501    0  0.17674442953E+03  0.92219826794E+02  0.51721322418E+03  0.57888237231E+03  0.16688975964E+03 0.  0.
         24    2    5    5    0    0  0.72739747333E+02 -0.15521080696E+02  0.23875986614E+03  0.26268079155E+03  0.80392473424E+02 0.  0.
          5    1    5    5  501    0  0.10400468220E+03  0.10774090749E+03  0.27845335804E+03  0.31620158076E+03  0.47000000000E+01 0. -1.
        -13    1    6    6    0    0  0.36185171291E+02  0.20719917904E+02  0.41554566960E+02  0.58868188817E+02  0.00000000000E+00 0.  1.
         14    1    6    6    0    0  0.36554576042E+02 -0.36240998601E+02  0.19720529918E+03  0.20381260273E+03  0.00000000000E+00 0. -1.
         -5    1    3    3    0  503 -0.81287908128E+00  0.30988395434E+02  0.77978608411E+01  0.32308482751E+02  0.47000000000E+01 0.  1.
         13    1    4    4    0    0 -0.10519220548E+03 -0.55697807528E+02  0.14034650522E+03  0.18402387721E+03  0.00000000000E+00 0. -1.
        -14    1    4    4    0    0 -0.70739344973E+02 -0.67510414700E+02  0.32281912954E+02  0.10297491405E+03  0.00000000000E+00 0.  1.
</event>
<event>
12    1  0.8421768E-002  0.2154335E+03  0.7818608E-02  0.1137498E+00
         21   -1    0    0  503  502  0.00000000000E+00  0.00000000000E+00  0.80190167371E+03  0.80190167371E+03  0.00000000000E+00 0.  1.
         21   -1    0    0  501  503 -0.00000000000E+00 -0.00000000000E+00 -0.10381705880E+03  0.10381705880E+03  0.00000000000E+00 0.  1.
          6    2    1    2  501    0  0.10102394829E+03  0.80321133503E+02  0.46658467529E+02  0.21959365311E+03  0.17142647777E+03 0.  0.
         24    2    3    3    0    0  0.24470257594E+02  0.22676542671E+02 -0.35800352411E+02  0.93083126287E+02  0.79181968101E+02 0.  0.
         -6    2    1    2    0  502 -0.10102394829E+03 -0.80321133503E+02  0.65142614738E+03  0.68612507940E+03  0.17249427956E+03 0.  0.
        -24    2    5    5    0    0 -0.78735603945E+02  0.17599601451E+01  0.50088987608E+03  0.51315879597E+03  0.78986638950E+02 0.  0.
          5    1    3    3  501    0  0.76553690697E+02  0.57644590832E+02  0.82458819941E+02  0.12651052682E+03  0.47000000000E+01 0. -1.
        -13    1    4    4    0    0  0.17715912844E+02  0.48280436463E+02 -0.38298461106E+01  0.51570552006E+02  0.00000000000E+00 0.  1.
         14    1    4    4    0    0  0.67543447506E+01 -0.25603893792E+02 -0.31970506301E+02  0.41512574281E+02  0.00000000000E+00 0. -1.
         -5    1    5    5    0  502 -0.22288344347E+02 -0.82081093648E+02  0.15053627129E+03  0.17296628343E+03  0.47000000000E+01 0.  1.
         13    1    6    6    0    0 -0.76547597356E+02 -0.11315515038E+02  0.24507532822E+03  0.25700095728E+03  0.00000000000E+00 0. -1.
        -14    1    6    6    0    0 -0.21880065886E+01  0.13075475183E+02  0.25581454786E+03  0.25615783869E+03  0.00000000000E+00 0.  1.
</event>
<event>
12    1  0.8421768E-002  0.2844138E+03  0.7818608E-02  0.1093380E+00
         21   -1    0    0  501  502  0.00000000000E+00  0.00000000000E+00  0.82812683872E+03  0.82812683872E+03  0.00000000000E+00 0. -1.
         21   -1    0    0  502  503 -0.00000000000E+00 -0.00000000000E+00 -0.17661858301E+03  0.17661858301E+03  0.00000000000E+00 0. -1.
         -6    2    1    2    0  503  0.10730296016E+03 -0.19878159074E+03 -0.10705999418E+02  0.28403817284E+03  0.17185755478E+03 0.  0.
        -24    2    3    3    0    0 -0.11263748087E+02 -0.90779118794E+02  0.90821100133E+01  0.12237105335E+03  0.80774188610E+02 0.  0.
          6    2    1    2  501    0 -0.10730296016E+03  0.19878159074E+03  0.66221425513E+03  0.72070724889E+03  0.17280964330E+03 0.  0.
         24    2    5    5    0    0 -0.84118142048E+02  0.12067389442E+03  0.58470562402E+03  0.60815492367E+03  0.79584507309E+02 0.  0.
          5    1    5    5  501    0 -0.23184818113E+02  0.78107696317E+02  0.77508631110E+02  0.11255232522E+03  0.47000000000E+01 0. -1.
        -11    1    6    6    0    0 -0.84583241277E+02  0.13152875563E+03  0.54781177291E+03  0.56969454693E+03  0.00000000000E+00 0.  1.
         12    1    6    6    0    0  0.46509922846E+00 -0.10854861207E+02  0.36893851109E+02  0.38460376738E+02  0.00000000000E+00 0. -1.
         -5    1    3    3    0  503  0.11856670825E+03 -0.10800247194E+03 -0.19788109431E+02  0.16166711950E+03  0.47000000000E+01 0.  1.
         11    1    4    4    0    0  0.98019380396E+01 -0.89061904170E+02  0.28137319025E+02  0.93913840757E+02  0.00000000000E+00 0. -1.
        -12    1    4    4    0    0 -0.21065686127E+02 -0.17172146234E+01 -0.19055209012E+02  0.28457212592E+02  0.00000000000E+00 0.  1.
</event>
<event>
12    1  0.8421768E-002  0.1881601E+03  0.7818608E-02  0.1160243E+00
         21   -1    0    0  501  502  0.00000000000E+00  0.00000000000E+00  0.84267339824E+03  0.84267339824E+03  0.00000000000E+00 0.  1.
         21   -1    0    0  502  503 -0.00000000000E+00 -0.00000000000E+00 -0.46678504541E+02  0.46678504541E+02  0.00000000000E+00 0. -1.
         -6    2    1    2    0  503 -0.56724435354E+02 -0.51107621412E+02  0.53972694773E+03  0.57142507823E+03  0.17144034352E+03 0.  0.
        -24    2    3    3    0    0  0.16042991610E+02 -0.27664140567E+02  0.14337343003E+03  0.16773844702E+03  0.80978786832E+02 0.  0.
          6    2    1    2  501    0  0.56724435354E+02  0.51107621412E+02  0.25626794596E+03  0.31792682455E+03  0.17197254173E+03 0.  0.
         24    2    5    5    0    0 -0.24193550671E+02  0.64226476770E+02  0.10358815504E+03  0.14456871720E+03  0.73886669405E+02 0.  0.
          5    1    5    5  501    0  0.80917986025E+02 -0.13118855358E+02  0.15267979092E+03  0.17335810735E+03  0.47000000000E+01 0. -1.
        -11    1    6    6    0    0 -0.11497423359E+02  0.62441091411E+02  0.30630919603E+02  0.70493502368E+02  0.00000000000E+00 0.  1.
         12    1    6    6    0    0 -0.12696127312E+02  0.17853853589E+01  0.72957235438E+02  0.74075214832E+02  0.00000000000E+00 0. -1.
         -5    1    3    3    0  503 -0.72767426964E+02 -0.23443480845E+02  0.39635351770E+03  0.40368663121E+03  0.47000000000E+01 0.  1.
         13    1    4    4    0    0 -0.95466081316E+01  0.11640157047E+02 -0.18145242113E+01  0.15163227922E+02  0.00000000000E+00 0. -1.
        -14    1    4    4    0    0  0.25589599741E+02 -0.39304297614E+02  0.14518795425E+03  0.15257521910E+03  0.00000000000E+00 0.  1.
</event>
<event>
12    1  0.8421768E-002  0.1885898E+03  0.7818608E-02  0.1159974E+00
         21   -1    0    0  503  502  0.00000000000E+00  0.00000000000E+00  0.29326057212E+02  0.29326057212E+02  0.00000000000E+00 0. -1.
         21   -1    0    0  501  503 -0.00000000000E+00 -0.00000000000E+00 -0.17176951259E+04  0.17176951259E+04  0.00000000000E+00 0. -1.
          6    2    1    2  501    0  0.54441397750E+02  0.56819327273E+02 -0.13224675771E+04  0.13358467730E+04  0.17138788375E+03 0.  0.
         24    2    3    3    0    0  0.29591643034E+01 -0.86488704006E+01 -0.36765272078E+03  0.37739489360E+03  0.84704326950E+02 0.  0.
         -6    2    1    2    0  502 -0.54441397750E+02 -0.56819327273E+02 -0.36590149156E+03  0.41117441009E+03  0.17025919137E+03 0.  0.
        -24    2    5    5    0    0 -0.66248969239E+02 -0.73795633492E+02 -0.16233523334E+03  0.20650656894E+03  0.80358655930E+02 0.  0.
          5    1    3    3  501    0  0.51482233446E+02  0.65468197673E+02 -0.95481485636E+03  0.95845187944E+03  0.47000000000E+01 0. -1.
        -11    1    4    4    0    0  0.77231425784E+01  0.34189301880E+02 -0.93100666185E+02  0.99480095187E+02  0.00000000000E+00 0.  1.
         12    1    4    4    0    0 -0.47639782750E+01 -0.42838172280E+02 -0.27455205460E+03  0.27791479841E+03  0.00000000000E+00 0. -1.
         -5    1    5    5    0  502  0.11807571490E+02  0.16976306219E+02 -0.20356625821E+03  0.20466784115E+03  0.47000000000E+01 0.  1.
         11    1    6    6    0    0  0.44629686972E+01 -0.52548672550E+02 -0.54717396438E+02  0.75995227148E+02  0.00000000000E+00 0. -1.
        -12    1    6    6    0    0 -0.70711937936E+02 -0.21246960942E+02 -0.10761783690E+03  0.13051134179E+03  0.00000000000E+00 0.  1.
</event>
<event>
12    1  0.8421768E-002  0.1711114E+03  0.7818608E-02  0.1176905E+00
         21   -1    0    0  503  502  0.00000000000E+00  0.00000000000E+00  0.38222000364E+03  0.38222000364E+03  0.00000000000E+00 0. -1.
         21   -1    0    0  501  503 -0.00000000000E+00 -0.00000000000E+00 -0.11015079157E+03  0.11015079157E+03  0.00000000000E+00 0. -1.
          6    2    1    2  501    0 -0.36203408759E+01  0.19328429256E+01 -0.34010498554E+00  0.17111171229E+03  0.17106215146E+03 0.  0.
         24    2    3    3    0    0 -0.30970538196E+02  0.41484077162E+01  0.59631457610E+02  0.10499348227E+03  0.80568834301E+02 0.  0.
         -6    2    1    2    0  502  0.36203408759E+01 -0.19328429256E+01  0.27240931706E+03  0.32125908292E+03  0.17024605602E+03 0.  0.
        -24    2    5    5    0    0  0.17948538254E+01  0.65490980060E+02  0.16107956917E+03  0.19100660857E+03  0.79022825470E+02 0.  0.
          5    1    3    3  501    0  0.27350197320E+02 -0.22155647906E+01 -0.59971562596E+02  0.66118230020E+02  0.47000000000E+01 0. -1.
        -13    1    4    4    0    0  0.41802345491E+01  0.27769986530E+02  0.55802292596E+02  0.62470331932E+02  0.00000000000E+00 0.  1.
         14    1    4    4    0    0 -0.35150772745E+02 -0.23621578814E+02  0.38291650143E+01  0.42523150342E+02  0.00000000000E+00 0. -1.
         -5    1    5    5    0  502  0.18254870504E+01 -0.67423822986E+02  0.11132974789E+03  0.13025247435E+03  0.47000000000E+01 0.  1.
         11    1    6    6    0    0 -0.35919523296E+02  0.36193822220E+02  0.56918273133E+02  0.76419203981E+02  0.00000000000E+00 0. -1.
        -12    1    6    6    0    0  0.37714377121E+02  0.29297157841E+02  0.10416129603E+03  0.11458740459E+03  0.00000000000E+00 0.  1.
</event>
<event>
12    1  0.8421768E-002  0.1750884E+03  0.7818608E-02  0.1172814E+00
         21   -1    0    0  503  502  0.00000000000E+00  0.00000000000E+00  0.10587113821E+03  0.10587113821E+03  0.00000000000E+00 0.  1.
         21   -1    0    0  501  503 -0.00000000000E+00 -0.00000000000E+00 -0.29321704360E+03  0.29321704360E+03  0.00000000000E+00 0.  1.
          6    2    1    2  501    0  0.24035446683E+02  0.10756914517E+02 -0.11932656171E+03  0.21188389087E+03  0.17309691208E+03 0.  0.
         24    2    3    3    0    0 -0.49292184274E+02 -0.15231600192E+02 -0.82116431215E+02  0.12551822541E+03  0.79686859391E+02 0.  0.
         -6    2    1    2    0  502 -0.24035446683E+02 -0.10756914517E+02 -0.68019343679E+02  0.18720429094E+03  0.17241056094E+03 0.  0.
        -24    2    5    5    0    0 -0.18687702538E+02  0.56110273877E+02 -0.73482561306E+02  0.11973758805E+03  0.73755068409E+02 0.  0.
          5    1    3    3  501    0  0.73327630957E+02  0.25988514709E+02 -0.37210130496E+02  0.86365665458E+02  0.47000000000E+01 0. -1.
        -13    1    4    4    0    0 -0.56900915246E+01 -0.36017667089E+00  0.16075402606E+02  0.17056536511E+02  0.00000000000E+00 0.  1.
         14    1    4    4    0    0 -0.43602092749E+02 -0.14871423521E+02 -0.98191833821E+02  0.10846168890E+03  0.00000000000E+00 0. -1.
         -5    1    5    5    0  502 -0.53477441446E+01 -0.66867188394E+02  0.54632176274E+01  0.67466702884E+02  0.47000000000E+01 0.  1.
         13    1    6    6    0    0 -0.10134953680E+02 -0.70267381647E+01  0.91772224926E+01  0.15372499732E+02  0.00000000000E+00 0. -1.
        -14    1    6    6    0    0 -0.85527488578E+01  0.63137012041E+02 -0.82659783799E+02  0.10436508832E+03  0.00000000000E+00 0.  1.
</event>
<event>
12    1  0.8421768E-002  0.3802158E+03  0.7818608E-02  0.1050891E+00
         21   -1    0    0  503  502  0.00000000000E+00  0.00000000000E+00  0.14928364211E+04  0.14928364211E+04  0.00000000000E+00 0. -1.
         21   -1    0    0  501  503 -0.00000000000E+00 -0.00000000000E+00 -0.16529354022E+03  0.16529354022E+03  0.00000000000E+00 0.  1.
          6    2    1    2  501    0  0.24367277853E+03  0.23506973200E+03  0.13004244480E+03  0.40183962013E+03  0.17300243051E+03 0.  0.
         24    2    3    3    0    0  0.11887964236E+03  0.41106761326E+02  0.63428970112E+02  0.16172630139E+03  0.79435679123E+02 0.  0.
         -6    2    1    2    0  502 -0.24367277853E+03 -0.23506973200E+03  0.11975004361E+04  0.12562903412E+04  0.17211602201E+03 0.  0.
        -24    2    5    5    0    0 -0.62807306683E+02 -0.39070431442E+02  0.42756468726E+03  0.44145833885E+03  0.81256672063E+02 0.  0.
          5    1    3    3  501    0  0.12479313616E+03  0.19396297068E+03  0.66613474689E+02  0.24011331874E+03  0.47000000000E+01 0. -1.
        -11    1    4    4    0    0  0.84147664276E+02  0.23807350887E+02  0.94285773943E-01  0.87450718974E+02  0.00000000000E+00 0.  1.
         12    1    4    4    0    0  0.34731978087E+02  0.17299410439E+02  0.63334684338E+02  0.74275582418E+02  0.00000000000E+00 0. -1.
         -5    1    5    5    0  502 -0.18086547184E+03 -0.19599930056E+03  0.76993574885E+03  0.81483200237E+03  0.47000000000E+01 0.  1.
         11    1    6    6    0    0 -0.12035319213E+02 -0.51778962086E+02  0.15359308904E+03  0.16253229471E+03  0.00000000000E+00 0. -1.
        -12    1    6    6    0    0 -0.50771987469E+02  0.12708530643E+02  0.27397159822E+03  0.27892604413E+03  0.00000000000E+00 0.  1.
</event>
<event>
12    1  0.8421768E-002  0.1780997E+03  0.7818608E-02  0.1169958E+00
         21   -1    0    0  501  502  0.00000000000E+00  0.00000000000E+00  0.92527662858E+02  0.92527662858E+02  0.00000000000E+00 0.  1.
         21   -1    0    0  502  503 -0.00000000000E+00 -0.00000000000E+00 -0.80482204799E+03  0.80482204799E+03  0.00000000000E+00 0.  1.
         -6    2    1    2    0  503  0.19388431131E+02 -0.37476535196E+02 -0.69643773971E+03  0.71854548607E+03  0.17176055516E+03 0.  0.
        -24    2    3    3    0    0 -0.15253927706E+02 -0.72941695343E+02 -0.58640580000E+03  0.59776888086E+03  0.88897128303E+02 0.  0.
          6    2    1    2  501    0 -0.19388431131E+02  0.37476535196E+02 -0.15856645420E+02  0.17880422477E+03  0.17302923349E+03 0.  0.
         24    2    5    5    0    0  0.46034111389E+02  0.61390637413E+02 -0.18678060740E+02  0.10893260150E+03  0.75029940311E+02 0.  0.
          5    1    5    5  501    0 -0.65422542520E+02 -0.23914102218E+02  0.28214153194E+01  0.69871623275E+02  0.47000000000E+01 0. -1.
        -11    1    6    6    0    0 -0.12048961463E+02  0.45523837950E+02 -0.91508114910E+01  0.47972227850E+02  0.00000000000E+00 0.  1.
         12    1    6    6    0    0  0.58083072852E+02  0.15866799464E+02 -0.95272492486E+01  0.60960373649E+02  0.00000000000E+00 0. -1.
         -5    1    3    3    0  503  0.34642358837E+02  0.35465160147E+02 -0.11003193971E+03  0.12077660521E+03  0.47000000000E+01 0.  1.
         13    1    4    4    0    0 -0.51909109804E+01 -0.33088113250E+02 -0.52439002994E+02  0.62222325818E+02  0.00000000000E+00 0. -1.
        -14    1    4    4    0    0 -0.10063016725E+02 -0.39853582093E+02 -0.53396679701E+03  0.53554655504E+03  0.00000000000E+00 0.  1.
</event>
<event>
12    1  0.8421768E-002  0.1768653E+03  0.7818608E-02  0.1171199E+00
         21   -1    0    0  501  502  0.00000000000E+00  0.00000000000E+00  0.16155158768E+03  0.16155158768E+03  0.00000000000E+00 0.  1.
         21   -1    0    0  502  503 -0.00000000000E+00 -0.00000000000E+00 -0.26096709361E+03  0.26096709361E+03  0.00000000000E+00 0.  1.
         -6    2    1    2    0  503  0.21378370158E+01 -0.37593168098E+02 -0.15802325485E+03  0.23619587978E+03  0.17146232215E+03 0.  0.
        -24    2    3    3    0    0  0.42853058275E+02 -0.74372332737E+02 -0.11945714774E+03  0.16896589531E+03  0.83137447350E+02 0.  0.
          6    2    1    2  501    0 -0.21378370158E+01  0.37593168098E+02  0.58607748920E+02  0.18632280152E+03  0.17281059429E+03 0.  0.
         24    2    5    5    0    0  0.24955742261E+01 -0.42503131994E+02  0.57550842662E+02  0.10594809879E+03  0.78103495604E+02 0.  0.
          5    1    5    5  501    0 -0.46334112419E+01  0.80096300093E+02  0.10569062583E+01  0.80374702731E+02  0.47000000000E+01 0. -1.
        -11    1    6    6    0    0  0.89617401718E+01 -0.35875767655E+02  0.76438447032E+02  0.84913012409E+02  0.00000000000E+00 0.  1.
         12    1    6    6    0    0 -0.64661659457E+01 -0.66273643396E+01 -0.18887604370E+02  0.21035086379E+02  0.00000000000E+00 0. -1.
         -5    1    3    3    0  503 -0.40715221260E+02  0.36779164639E+02 -0.38566107112E+02  0.67229984468E+02  0.47000000000E+01 0.  1.
         11    1    4    4    0    0  0.46541509112E+02 -0.33627196276E+02 -0.18972485212E+02  0.60471940558E+02  0.00000000000E+00 0. -1.
        -12    1    4    4    0    0 -0.36884508363E+01 -0.40745136461E+02 -0.10048466252E+03  0.10849395475E+03  0.00000000000E+00 0.  1.
</event>
<event>
12    1  0.8421768E-002  0.1862143E+03  0.7818608E-02  0.1162031E+00
         21   -1    0    0  503  502  0.00000000000E+00  0.00000000000E+00  0.12500856429E+04  0.12500856429E+04  0.00000000000E+00 0.  1.
         21   -1    0    0  501  503 -0.00000000000E+00 -0.00000000000E+00 -0.28814965592E+02  0.28814965592E+02  0.00000000000E+00 0.  1.
          6    2    1    2  501    0 -0.64663785393E+02 -0.22278265210E+02  0.73746254483E+03  0.76049335825E+03  0.17268878559E+03 0.  0.
         24    2    3    3    0    0 -0.85752981481E+02  0.58393418859E+01  0.30580426953E+03  0.32738100486E+03  0.79211106133E+02 0.  0.
         -6    2    1    2    0  502  0.64663785393E+02  0.22278265210E+02  0.48380813247E+03  0.51840725024E+03  0.17319942786E+03 0.  0.
        -24    2    5    5    0    0  0.78892496785E+02 -0.39851781503E+02  0.27967574948E+03  0.30450372357E+03  0.81803436891E+02 0.  0.
          5    1    3    3  501    0  0.21089196088E+02 -0.28117607096E+02  0.43165827530E+03  0.43311235339E+03  0.47000000000E+01 0. -1.
        -11    1    4    4    0    0 -0.65919540397E+02  0.37652168954E+02  0.23911885950E+03  0.25088025152E+03  0.00000000000E+00 0.  1.
         12    1    4    4    0    0 -0.19833441084E+02 -0.31812827068E+02  0.66685410030E+02  0.76500753343E+02  0.00000000000E+00 0. -1.
         -5    1    5    5    0  502 -0.14228711392E+02  0.62130046712E+02  0.20413238300E+03  0.21390352666E+03  0.47000000000E+01 0.  1.
         13    1    6    6    0    0  0.47952197129E+02 -0.28352078426E+02  0.26037341717E+03  0.26626597591E+03  0.00000000000E+00 0. -1.
        -14    1    6    6    0    0  0.30940299656E+02 -0.11499703077E+02  0.19302332308E+02  0.38237747661E+02  0.00000000000E+00 0.  1.
</event>
<event>
12    1  0.8421768E-002  0.1916686E+03  0.7818608E-02  0.1157912E+00
         21   -1    0    0  503  502  0.00000000000E+00  0.00000000000E+00  0.40700164067E+03  0.40700164067E+03  0.00000000000E+00 0. -1.
         21   -1    0    0  501  503 -0.00000000000E+00 -0.00000000000E+00 -0.94470881284E+02  0.94470881284E+02  0.00000000000E+00 0. -1.
          6    2    1    2  501    0  0.61577167439E+02 -0.56624823561E+02  0.90543466863E+02  0.20818902719E+03  0.16776898836E+03 0.  0.
         24    2    3    3    0    0  0.97188233988E+02 -0.28143267639E+02  0.93346222383E+02  0.16226199237E+03  0.85894357184E+02 0.  0.
         -6    2    1    2    0  502 -0.61577167439E+02  0.56624823561E+02  0.22198729252E+03  0.29328349477E+03  0.17244921591E+03 0.  0.
        -24    2    5    5    0    0 -0.75522875891E+02  0.64575791774E+02  0.80482479302E+02  0.15079348514E+03  0.79921886983E+02 0.  0.
          5    1    3    3  501    0 -0.35611066549E+02 -0.28481555922E+02 -0.28027555205E+01  0.45927034816E+02  0.47000000000E+01 0. -1.
        -13    1    4    4    0    0 -0.14820976014E+02  0.34771744149E+01  0.18183084262E+02  0.23714481339E+02  0.00000000000E+00 0.  1.
         14    1    4    4    0    0  0.11200921000E+03 -0.31620442054E+02  0.75163138122E+02  0.13854751103E+03  0.00000000000E+00 0. -1.
         -5    1    5    5    0  502  0.13945708452E+02 -0.79509682124E+01  0.14150481322E+03  0.14249000963E+03  0.47000000000E+01 0.  1.
         11    1    6    6    0    0 -0.53257224854E+02  0.49649996364E+02  0.95482436208E+02  0.12007643300E+03  0.00000000000E+00 0. -1.
        -12    1    6    6    0    0 -0.22265651037E+02  0.14925795410E+02 -0.14999956906E+02  0.30717052135E+02  0.00000000000E+00 0.  1.
</event>
<event>
12    1  0.8421768E-002  0.1884179E+03  0.7818608E-02  0.1160686E+00
         21   -1    0    0  501  502  0.00000000000E+00  0.00000000000E+00  0.28354607040E+03  0.28354607040E+03  0.00000000000E+00 0.  1.
         21   -1    0    0  502  503 -0.00000000000E+00 -0.00000000000E+00 -0.15169421485E+03  0.15169421485E+03  0.00000000000E+00 0.  1.
         -6    2    1    2    0  503 -0.24730784844E+02 -0.76827617033E+02  0.16018859906E+03  0.24470348642E+03  0.16644913499E+03 0.  0.
        -24    2    3    3    0    0 -0.21344534495E+02 -0.68484559985E+02  0.28618213023E+02  0.11274163672E+03  0.82133735003E+02 0.  0.
          6    2    1    2  501    0  0.24730784844E+02  0.76827617033E+02 -0.28336743511E+02  0.19053679883E+03  0.17025629568E+03 0.  0.
         24    2    5    5    0    0  0.53032468760E+02 -0.80445615801E+01 -0.53547261034E+01  0.98046068811E+02  0.81897501817E+02 0.  0.
          5    1    5    5  501    0 -0.28301683916E+02  0.84872178613E+02 -0.22982017408E+02  0.92490730018E+02  0.47000000000E+01 0. -1.
        -11    1    6    6    0    0  0.12231414105E+02  0.22701623717E+02 -0.31456818673E+02  0.40675578071E+02  0.00000000000E+00 0.  1.
         12    1    6    6    0    0  0.40801054655E+02 -0.30746185297E+02  0.26102092569E+02  0.57370490740E+02  0.00000000000E+00 0. -1.
         -5    1    3    3    0  503 -0.33862503498E+01 -0.83430570485E+01  0.13157038604E+03  0.13196184970E+03  0.47000000000E+01 0.  1.
         13    1    4    4    0    0 -0.52932988883E+02 -0.41591736178E+02  0.14022803623E+02  0.68763455788E+02  0.00000000000E+00 0. -1.
        -14    1    4    4    0    0  0.31588454389E+02 -0.26892823807E+02  0.14595409400E+02  0.43978180937E+02  0.00000000000E+00 0.  1.
</event>
<event>
12    1  0.8421768E-002  0.1776249E+03  0.7818608E-02  0.1170225E+00
         21   -1    0    0  501  502  0.00000000000E+00  0.00000000000E+00  0.13940158723E+04  0.13940158723E+04  0.00000000000E+00 0. -1.
         21   -1    0    0  502  503 -0.00000000000E+00 -0.00000000000E+00 -0.43216217023E+02  0.43216217023E+02  0.00000000000E+00 0. -1.
         -6    2    1    2    0  503 -0.43138434329E+02 -0.28124452576E+01  0.17839658657E+03  0.25144983593E+03  0.17185122497E+03 0.  0.
        -24    2    3    3    0    0  0.64925868791E+01  0.41886684242E+02  0.15627447746E+03  0.18093226255E+03  0.80734895327E+02 0.  0.
          6    2    1    2  501    0  0.43138434329E+02  0.28124452576E+01  0.11724030687E+04  0.11857822534E+04  0.17228395915E+03 0.  0.
         24    2    5    5    0    0 -0.16165438262E+02 -0.50727973450E+02  0.40273446212E+03  0.41196355389E+03  0.68441756746E+02 0.  0.
          5    1    5    5  501    0  0.59303872591E+02  0.53540418708E+02  0.76966860661E+03  0.77381869953E+03  0.47000000000E+01 0. -1.
        -11    1    6    6    0    0 -0.32242963700E+02 -0.67146244765E+01  0.92031522624E+02  0.97747102497E+02  0.00000000000E+00 0.  1.
         12    1    6    6    0    0  0.16077525438E+02 -0.44013348974E+02  0.31070293950E+03  0.31421645139E+03  0.00000000000E+00 0. -1.
         -5    1    3    3    0  503 -0.49631021208E+02 -0.44699129499E+02  0.22122109104E+02  0.70517573379E+02  0.47000000000E+01 0.  1.
         11    1    4    4    0    0  0.64272788474E+01  0.26651850405E+02  0.16226283656E+03  0.16456262994E+03  0.00000000000E+00 0. -1.
        -12    1    4    4    0    0  0.65308031656E-01  0.15234833836E+02 -0.59883590970E+01  0.16369632611E+02  0.00000000000E+00 0.  1.
</event>
<event>
12    1  0.8421768E-002  0.1913599E+03  0.7818608E-02  0.1157519E+00
         21   -1    0    0  503  502  0.00000000000E+00  0.00000000000E+00  0.29676247038E+03  0.29676247038E+03  0.00000000000E+00 0. -1.
         21   -1    0    0  501  503 -0.00000000000E+00 -0.00000000000E+00 -0.13352758018E+03  0.13352758018E+03  0.00000000000E+00 0. -1.
          6    2    1    2  501    0 -0.29417844479E+02 -0.75374233127E+02  0.14342190544E+03  0.23914111346E+03  0.17341264255E+03 0.  0.
         24    2    3    3    0    0 -0.43675292230E+02 -0.10246192285E+02  0.13323122324E+02  0.92878610107E+02  0.80227271044E+02 0.  0.
         -6    2    1    2    0  502  0.29417844479E+02  0.75374233127E+02  0.19812984762E+02  0.19114893709E+03  0.17204266096E+03 0.  0.
        -24    2    5    5    0    0  0.72537249848E+02  0.40081269203E+02 -0.35940092119E+02  0.11218456535E+03  0.66524624955E+02 0.  0.
          5    1    3    3  501    0  0.14257447751E+02 -0.65128040842E+02  0.13009878311E+03  0.14626250336E+03  0.47000000000E+01 0. -1.
        -11    1    4    4    0    0  0.23597186609E+02 -0.63564727887E+01  0.54175632745E+01  0.25031619085E+02  0.00000000000E+00 0.  1.
         12    1    4    4    0    0 -0.67272478839E+02 -0.38897194968E+01  0.79055590491E+01  0.67846991022E+02  0.00000000000E+00 0. -1.
         -5    1    5    5    0  502 -0.43119405369E+02  0.35292963925E+02  0.55753076881E+02  0.78964371736E+02  0.47000000000E+01 0.  1.
         11    1    6    6    0    0  0.40052565844E+02  0.14851847299E+01  0.12763788090E+02  0.42063381828E+02  0.00000000000E+00 0. -1.
        -12    1    6    6    0    0  0.32484684003E+02  0.38596084473E+02 -0.48703880209E+02  0.70121183525E+02  0.00000000000E+00 0.  1.
</event>
<event>
12    1  0.8421768E-002  0.1952413E+03  0.7818608E-02  0.1153931E+00
         21   -1    0    0  503  502  0.00000000000E+00  0.00000000000E+00  0.94949314586E+03  0.94949314586E+03  0.00000000000E+00 0.  1.
         21   -1    0    0  501  503 -0.00000000000E+00 -0.00000000000E+00 -0.40619000366E+02  0.40619000366E+02  0.00000000000E+00 0.  1.
          6    2    1    2  501    0 -0.66676216736E+02  0.66957444936E+02  0.39590470579E+03  0.44142916293E+03  0.17085125845E+03 0.  0.
         24    2    3    3    0    0 -0.45394934210E+02  0.11254546543E+03  0.28389276108E+03  0.31854740531E+03  0.78423005531E+02 0.  0.
         -6    2    1    2    0  502  0.66676216736E+02 -0.66957444936E+02  0.51296943970E+03  0.54868298329E+03  0.17025378930E+03 0.  0.
        -24    2    5    5    0    0  0.41282146345E+02 -0.21949631861E+02  0.47644121101E+03  0.48522462261E+03  0.79124616221E+02 0.  0.
          5    1    3    3  501    0 -0.21281282525E+02 -0.45588020496E+02  0.11201194471E+03  0.12288175763E+03  0.47000000000E+01 0. -1.
        -13    1    4    4    0    0 -0.49634343619E+02  0.25426114122E+02  0.13370523450E+03  0.14486940698E+03  0.00000000000E+00 0.  1.
         14    1    4    4    0    0  0.42394094086E+01  0.87119351310E+02  0.15018752658E+03  0.17367799833E+03  0.00000000000E+00 0. -1.
         -5    1    5    5    0  502  0.25394070390E+02 -0.45007813075E+02  0.36528228695E+02  0.63458360682E+02  0.47000000000E+01 0.  1.
         11    1    6    6    0    0  0.21917092372E+02 -0.49451775096E+02  0.21831637925E+03  0.22491749253E+03  0.00000000000E+00 0. -1.
        -12    1    6    6    0    0  0.19365053973E+02  0.27502143235E+02  0.25812483175E+03  0.26030713007E+03  0.00000000000E+00 0.  1.
</event>
<event>
12    1  0.8421768E-002  0.1900849E+03  0.7818608E-02  0.1158587E+00
         21   -1    0    0  501  502  0.00000000000E+00  0.00000000000E+00  0.39511241479E+03  0.39511241479E+03  0.00000000000E+00 0.  1.
         21   -1    0    0  502  503 -0.00000000000E+00 -0.00000000000E+00 -0.13388238539E+03  0.13388238539E+03  0.00000000000E+00 0. -1.
         -6    2    1    2    0  503 -0.11254393161E+01 -0.78938202874E+02 -0.18837334273E+02  0.19101605092E+03  0.17291552868E+03 0.  0.
        -24    2    3    3    0    0 -0.22155767491E+02 -0.12322688814E+03  0.41863990527E+01  0.13664745114E+03  0.54582561078E+02 0.  0.
          6    2    1    2  501    0  0.11254393161E+01  0.78938202874E+02  0.28006736367E+03  0.33797874926E+03  0.17192847429E+03 0.  0.
         24    2    5    5    0    0  0.28959580093E+02  0.69395316437E+02  0.79549053718E+02  0.13525852654E+03  0.79450927189E+02 0.  0.
          5    1    5    5  501    0 -0.27834140777E+02  0.95428864367E+01  0.20051830996E+03  0.20272022273E+03  0.47000000000E+01 0. -1.
        -11    1    6    6    0    0  0.15902625190E+02  0.79718301469E+02  0.85125870595E+02  0.11770435388E+03  0.00000000000E+00 0.  1.
         12    1    6    6    0    0  0.13056954903E+02 -0.10322985032E+02 -0.55768168772E+01  0.17554172661E+02  0.00000000000E+00 0. -1.
         -5    1    3    3    0  503  0.21030328175E+02  0.44288685263E+02 -0.23023733326E+02  0.54368599777E+02  0.47000000000E+01 0.  1.
         13    1    4    4    0    0 -0.76775621534E+01 -0.20106620703E+02 -0.20398076254E+02  0.29653038151E+02  0.00000000000E+00 0. -1.
        -14    1    4    4    0    0 -0.14478205338E+02 -0.10312026743E+03  0.24584475307E+02  0.10699441299E+03  0.00000000000E+00 0.  1.
</event>
<event>
12    1  0.8421768E-002  0.2229948E+03  0.7818608E-02  0.1133240E+00
         21   -1    0    0  501  502  0.00000000000E+00  0.00000000000E+00  0.21811344205E+04  0.21811344205E+04  0.00000000000E+00 0. -1.
         21   -1    0    0  502  503 -0.00000000000E+00 -0.00000000000E+00 -0.24341468666E+02  0.24341468666E+02  0.00000000000E+00 0. -1.
         -6    2    1    2    0  503 -0.11513696552E+03 -0.81872363696E+02  0.75133192097E+03  0.78372592197E+03  0.17253133200E+03 0.  0.
        -24    2    3    3    0    0 -0.12779926824E+03 -0.60387631830E+02  0.73680570240E+03  0.75448504921E+03  0.79910746166E+02 0.  0.
          6    2    1    2  501    0  0.11513696552E+03  0.81872363696E+02  0.14054610308E+04  0.14217499672E+04  0.16153221104E+03 0.  0.
         24    2    5    5    0    0  0.38379076088E+02  0.28545665302E+02  0.41110459737E+03  0.42299958939E+03  0.87371930032E+02 0.  0.
          5    1    5    5  501    0  0.76757889429E+02  0.53326698394E+02  0.99435643346E+03  0.99875037778E+03  0.47000000000E+01 0. -1.
        -11    1    6    6    0    0  0.24065462711E+02 -0.24435590991E+02  0.25971019900E+03  0.26196494435E+03  0.00000000000E+00 0.  1.
         12    1    6    6    0    0  0.14313613377E+02  0.52981256293E+02  0.15139439836E+03  0.16103464504E+03  0.00000000000E+00 0. -1.
         -5    1    3    3    0  503  0.12662302718E+02 -0.21484731866E+02  0.14526218574E+02  0.29240872756E+02  0.47000000000E+01 0.  1.
         11    1    4    4    0    0 -0.84012195265E+02  0.44197748131E+01  0.37438646647E+03  0.38372230797E+03  0.00000000000E+00 0. -1.
        -12    1    4    4    0    0 -0.43787072970E+02 -0.64807406644E+02  0.36241923593E+03  0.37076274124E+03  0.00000000000E+00 0.  1.
</event>
<event>
12    1  0.8421768E-002  0.1977535E+03  0.7818608E-02  0.1151686E+00
         21   -1    0    0  501  502  0.00000000000E+00  0.00000000000E+00  0.12487413000E+03  0.12487413000E+03  0.00000000000E+00 0.  1.
         21   -1    0    0  502  503 -0.00000000000E+00 -0.00000000000E+00 -0.31928827902E+03  0.31928827902E+03  0.00000000000E+00 0.  1.
         -6    2    1    2    0  503 -0.56749012699E+02 -0.80242494795E+02 -0.12869894252E+03  0.23594458958E+03  0.17160164082E+03 0.  0.
        -24    2    3    3    0    0 -0.42662952207E+02 -0.54556476720E+02 -0.16087486625E+03  0.19217737934E+03  0.79087836583E+02 0.  0.
          6    2    1    2  501    0  0.56749012699E+02  0.80242494795E+02 -0.65715206491E+02  0.20821781944E+03  0.17139680147E+03 0.  0.
         24    2    5    5    0    0  0.63953265269E+02  0.79884458722E+02  0.10836046742E+02  0.13118397092E+03  0.81365025868E+02 0.  0.
          5    1    5    5  501    0 -0.72042525697E+01  0.35803607356E+00 -0.76551253233E+02  0.77033848511E+02  0.47000000000E+01 0. -1.
        -13    1    6    6    0    0  0.74050818527E+02  0.50921956647E+02 -0.14959858095E+02  0.91106348558E+02  0.00000000000E+00 0.  1.
         14    1    6    6    0    0 -0.10097553258E+02  0.28962502074E+02  0.25795904836E+02  0.40077622366E+02  0.00000000000E+00 0. -1.
         -5    1    3    3    0  503 -0.14086060492E+02 -0.25686018075E+02  0.32175923727E+02  0.43767210243E+02  0.47000000000E+01 0.  1.
         13    1    4    4    0    0 -0.57518358260E+02 -0.28981131878E+02 -0.14488349800E+03  0.15855439299E+03  0.00000000000E+00 0. -1.
        -14    1    4    4    0    0  0.14855406053E+02 -0.25575344842E+02 -0.15991368247E+02  0.33622986351E+02  0.00000000000E+00 0.  1.
</event>
<event>
12    1  0.8421768E-002  0.2214000E+03  0.7818608E-02  0.1132904E+00
         21   -1    0    0  501  502  0.00000000000E+00  0.00000000000E+00  0.49610384016E+03  0.49610384016E+03  0.00000000000E+00 0. -1.
         21   -1    0    0  502  503 -0.00000000000E+00 -0.00000000000E+00 -0.36048230473E+03  0.36048230473E+03  0.00000000000E+00 0. -1.
         -6    2    1    2    0  503 -0.12004742416E+03 -0.70192285928E+02 -0.29721090727E+03  0.37041552463E+03  0.17185748872E+03 0.  0.
        -24    2    3    3    0    0 -0.60465513574E+02 -0.93829045303E+01 -0.25557694770E+03  0.27553000663E+03  0.82783398878E+02 0.  0.
          6    2    1    2  501    0  0.12004742416E+03  0.70192285928E+02  0.43283244270E+03  0.48617062027E+03  0.17227770461E+03 0.  0.
         24    2    5    5    0    0  0.41669055549E+02 -0.29185810431E+02  0.18246498720E+03  0.20559063617E+03  0.79911929060E+02 0.  0.
          5    1    5    5  501    0  0.78378368614E+02  0.99378096359E+02  0.25036745551E+03  0.28057998410E+03  0.47000000000E+01 0. -1.
        -13    1    6    6    0    0  0.48806061202E+02 -0.42857769114E+02  0.17808171285E+03  0.18955715876E+03  0.00000000000E+00 0.  1.
         14    1    6    6    0    0 -0.71370056528E+01  0.13671958683E+02  0.43832743453E+01  0.16033477412E+02  0.00000000000E+00 0. -1.
         -5    1    3    3    0  503 -0.59581910589E+02 -0.60809381398E+02 -0.41633959578E+02  0.94885517997E+02  0.47000000000E+01 0.  1.
         11    1    4    4    0    0  0.11873426931E+02 -0.10142854197E+02 -0.12734695220E+03  0.12830082616E+03  0.00000000000E+00 0. -1.
        -12    1    4    4    0    0 -0.72338940505E+02  0.75994966675E+00 -0.12822999550E+03  0.14722918047E+03  0.00000000000E+00 0.  1.
</event>
<event>
12    1  0.8421768E-002  0.2949425E+03  0.7818608E-02  0.1087810E+00
         21   -1    0    0  503  502  0.00000000000E+00  0.00000000000E+00  0.57671411055E+03  0.57671411055E+03  0.00000000000E+00 0.  1.
         21   -1    0    0  501  503 -0.00000000000E+00 -0.00000000000E+00 -0.24671173006E+03  0.24671173006E+03  0.00000000000E+00 0. -1.
          6    2    1    2  501    0 -0.22953702571E+03  0.67926527721E+02  0.42171037231E+03  0.51455466120E+03  0.17212089329E+03 0.  0.
         24    2    3    3    0    0 -0.13418383052E+03  0.11219523714E+03  0.26221054607E+03  0.32346767830E+03  0.72690417658E+02 0.  0.
         -6    2    1    2    0  502  0.22953702571E+03 -0.67926527721E+02 -0.91707991816E+02  0.30887117941E+03  0.17230725571E+03 0.  0.
        -24    2    5    5    0    0  0.11784045572E+03 -0.45994285385E+02 -0.11928844701E+03  0.19165378092E+03  0.80620040046E+02 0.  0.
          5    1    3    3  501    0 -0.95353195184E+02 -0.44268709418E+02  0.15949982624E+03  0.19108698290E+03  0.47000000000E+01 0. -1.
        -13    1    4    4    0    0 -0.11031334089E+03  0.46875832897E+02  0.16735776688E+03  0.20585188613E+03  0.00000000000E+00 0.  1.
         14    1    4    4    0    0 -0.23870489631E+02  0.65319404242E+02  0.94852779189E+02  0.11761579216E+03  0.00000000000E+00 0. -1.
         -5    1    5    5    0  502  0.11169656999E+03 -0.21932242335E+02  0.27580455196E+02  0.11721739849E+03  0.47000000000E+01 0.  1.
         11    1    6    6    0    0  0.80741700952E+02  0.45597113412E+01 -0.39008778463E+02  0.89786959172E+02  0.00000000000E+00 0. -1.
        -12    1    6    6    0    0  0.37098754771E+02 -0.50553996727E+02 -0.80279668550E+02  0.10186682175E+03  0.00000000000E+00 0.  1.
</event>
<event>
12    1  0.8421768E-002  0.4181340E+03  0.7818608E-02  0.1037677E+00
         21   -1    0    0  503  502  0.00000000000E+00  0.00000000000E+00  0.19932178785E+03  0.19932178785E+03  0.00000000000E+00 0.  1.
         21   -1    0    0  501  503 -0.00000000000E+00 -0.00000000000E+00 -0.12416901783E+04  0.12416901783E+04  0.00000000000E+00 0. -1.
          6    2    1    2  501    0  0.25234466380E+03 -0.28586739283E+03 -0.91161656102E+03  0.10029360732E+04  0.17157510595E+03 0.  0.
         24    2    3    3    0    0  0.21943850150E+03 -0.28349552303E+03 -0.71882430344E+03  0.80728488904E+03  0.80483199099E+02 0.  0.
         -6    2    1    2    0  502 -0.25234466380E+03  0.28586739283E+03 -0.13075182939E+03  0.43807589290E+03  0.17151224859E+03 0.  0.
        -24    2    5    5    0    0 -0.13636646706E+03  0.21843512025E+03 -0.30113446088E+02  0.27030155725E+03  0.76461736339E+02 0.  0.
          5    1    3    3  501    0  0.32906162307E+02 -0.23718698001E+01 -0.19279225758E+03  0.19565118417E+03  0.47000000000E+01 0. -1.
        -11    1    4    4    0    0  0.21253686316E+03 -0.26088837084E+03 -0.70132101589E+03  0.77787262940E+03  0.00000000000E+00 0.  1.
         12    1    4    4    0    0  0.69016383330E+01 -0.22607152195E+02 -0.17503287552E+02  0.29412259641E+02  0.00000000000E+00 0. -1.
         -5    1    5    5    0  502 -0.11597819675E+03  0.67432272585E+02 -0.10063838330E+03  0.16777433564E+03  0.47000000000E+01 0.  1.
         13    1    6    6    0    0  0.22605180462E+01  0.14246056320E-01 -0.10632558848E+02  0.10870209402E+02  0.00000000000E+00 0. -1.
        -14    1    6    6    0    0 -0.13862698510E+03  0.21842087419E+03 -0.19480887240E+02  0.25943134785E+03  0.00000000000E+00 0.  1.
</event>
<event>
12    1  0.8421768E-002  0.2320722E+03  0.7818608E-02  0.1125505E+00
         21   -1    0    0  501  502  0.00000000000E+00  0.00000000000E+00  0.10604532737E+03  0.10604532737E+03  0.00000000000E+00 0. -1.
         21   -1    0    0  502  503 -0.00000000000E+00 -0.00000000000E+00 -0.10536450980E+04  0.10536450980E+04  0.00000000000E+00 0.  1.
         -6    2    1    2    0  503  0.41627153087E+02  0.14947944263E+03 -0.89174070106E+03  0.92099030280E+03  0.17013152641E+03 0.  0.
        -24    2    3    3    0    0  0.27166514887E+02  0.20145600815E+02 -0.21648820051E+03  0.23329532522E+03  0.80098083894E+02 0.  0.
          6    2    1    2  501    0 -0.41627153087E+02 -0.14947944263E+03 -0.55859069585E+02  0.23870012259E+03  0.17257053406E+03 0.  0.
         24    2    5    5    0    0 -0.54795455071E+01 -0.68770162128E+02 -0.94980912466E+02  0.14188459654E+03  0.79690051987E+02 0.  0.
          5    1    5    5  501    0 -0.36147607580E+02 -0.80709280500E+02  0.39121842881E+02  0.96815526043E+02  0.47000000000E+01 0. -1.
        -11    1    6    6    0    0  0.68214880875E+01 -0.82965406919E+02 -0.61515813761E+02  0.10350838994E+03  0.00000000000E+00 0.  1.
         12    1    6    6    0    0 -0.12301033595E+02  0.14195244791E+02 -0.33465098705E+02  0.38376206607E+02  0.00000000000E+00 0. -1.
         -5    1    3    3    0  503  0.14460638200E+02  0.12933384181E+03 -0.67525250055E+03  0.68769497758E+03  0.47000000000E+01 0.  1.
         13    1    4    4    0    0  0.53777904683E+00 -0.30085745263E+02 -0.74155197720E+02  0.80027711595E+02  0.00000000000E+00 0. -1.
        -14    1    4    4    0    0  0.26628735840E+02  0.50231346077E+02 -0.14233300279E+03  0.15326761362E+03  0.00000000000E+00 0.  1.
</event>
<event>
12    1  0.8421768E-002  0.3500631E+03  0.7818608E-02  0.1063742E+00
         21   -1    0    0  501  502  0.00000000000E+00  0.00000000000E+00  0.66935364861E+03  0.66935364861E+03  0.00000000000E+00 0. -1.
         21   -1    0    0  502  503 -0.00000000000E+00 -0.00000000000E+00 -0.29267495776E+03  0.29267495776E+03  0.00000000000E+00 0.  1.
         -6    2    1    2    0  503  0.32382261623E+02 -0.28945423319E+03 -0.11541892686E+03  0.35812115836E+03  0.17348449904E+03 0.  0.
        -24    2    3    3    0    0  0.15322521850E+02 -0.93804053205E+02  0.11654613139E+02  0.12415577157E+03  0.79024335063E+02 0.  0.
          6    2    1    2  501    0 -0.32382261623E+02  0.28945423319E+03  0.49209761772E+03  0.60390744801E+03  0.19419520185E+03 0.  0.
         24    2    5    5    0    0 -0.89224134993E+02  0.25536745167E+03  0.42115537911E+03  0.50670766169E+03  0.78786543431E+02 0.  0.
          5    1    5    5  501    0  0.56841873369E+02  0.34086781522E+02  0.70942238607E+02  0.97199786323E+02  0.47000000000E+01 0. -1.
        -13    1    6    6    0    0 -0.60649683997E+02  0.67891244676E+02  0.11651076279E+03  0.14785926795E+03  0.00000000000E+00 0.  1.
         14    1    6    6    0    0 -0.28574450995E+02  0.18747620699E+03  0.30464461632E+03  0.35884839374E+03  0.00000000000E+00 0. -1.
         -5    1    3    3    0  503  0.17059739773E+02 -0.19565017998E+03 -0.12707354000E+03  0.23396538679E+03  0.47000000000E+01 0.  1.
         11    1    4    4    0    0  0.20663371690E+02 -0.80140773540E+02  0.40239894221E+02  0.92025907222E+02  0.00000000000E+00 0. -1.
        -12    1    4    4    0    0 -0.53408498393E+01 -0.13663279665E+02 -0.28585281082E+02  0.32129864344E+02  0.00000000000E+00 0.  1.
</event>
<event>
12    1  0.8421768E-002  0.1802004E+03  0.7818608E-02  0.1168011E+00
         21   -1    0    0  501  502  0.00000000000E+00  0.00000000000E+00  0.10386181083E+04  0.10386181083E+04  0.00000000000E+00 0.  1.
         21   -1    0    0  502  503 -0.00000000000E+00 -0.00000000000E+00 -0.14655577108E+03  0.14655577108E+03  0.00000000000E+00 0.  1.
         -6    2    1    2    0  503 -0.51544963456E+01 -0.59214111208E+02 -0.79776457898E+02  0.19706971378E+03  0.17011557559E+03 0.  0.
        -24    2    3    3    0    0  0.11570252453E+02 -0.70199352064E+02  0.78306333114E+01  0.10708368615E+03  0.79647832670E+02 0.  0.
          6    2    1    2  501    0  0.51544963456E+01  0.59214111208E+02  0.97183879508E+03  0.98810416556E+03  0.16836364985E+03 0.  0.
         24    2    5    5    0    0  0.16825951832E+02  0.95705714011E+02  0.52629327649E+03  0.54088972139E+03  0.78322292324E+02 0.  0.
          5    1    5    5  501    0 -0.11671455487E+02 -0.36491602802E+02  0.44554551859E+03  0.44721444418E+03  0.47000000000E+01 0. -1.
        -13    1    6    6    0    0  0.82377451467E+01  0.18866900375E+02  0.31872282695E+03  0.31938700787E+03  0.00000000000E+00 0.  1.
         14    1    6    6    0    0  0.85882066856E+01  0.76838813636E+02  0.20757044954E+03  0.22150271352E+03  0.00000000000E+00 0. -1.
         -5    1    3    3    0  503 -0.16724748799E+02  0.10985240856E+02 -0.87607091210E+02  0.89986027634E+02  0.47000000000E+01 0.  1.
         13    1    4    4    0    0  0.20473638493E+01 -0.76955380456E+02 -0.17716401044E+02  0.78994893163E+02  0.00000000000E+00 0. -1.
        -14    1    4    4    0    0  0.95228886038E+01  0.67560283921E+01  0.25547034356E+02  0.28088792985E+02  0.00000000000E+00 0.  1.
</event>
<event>
12    1  0.8421768E-002  0.1969069E+03  0.7818608E-02  0.1152901E+00
         21   -1    0    0  501  502  0.00000000000E+00  0.00000000000E+00  0.23495870432E+03  0.23495870432E+03  0.00000000000E+00 0.  1.
         21   -1    0    0  502  503 -0.00000000000E+00 -0.00000000000E+00 -0.17299003922E+03  0.17299003922E+03  0.00000000000E+00 0. -1.
         -6    2    1    2    0  503 -0.77369642492E+02  0.54319509622E+02 -0.18235241576E+02  0.19533409392E+03  0.16995944665E+03 0.  0.
        -24    2    3    3    0    0 -0.19805841097E+02  0.59505179226E+02  0.43834069681E+02  0.11039192653E+03  0.79572696837E+02 0.  0.
          6    2    1    2  501    0  0.77369642492E+02 -0.54319509622E+02  0.80203906674E+02  0.21261464962E+03  0.17272999705E+03 0.  0.
         24    2    5    5    0    0  0.61492711462E+02 -0.75207611360E+02 -0.31707994133E+01  0.12508281913E+03  0.78728135401E+02 0.  0.
          5    1    5    5  501    0  0.15876931030E+02  0.20888101738E+02  0.83374706087E+02  0.87531830486E+02  0.47000000000E+01 0. -1.
        -13    1    6    6    0    0 -0.84882423511E+00 -0.92678477498E+01  0.27707566566E+02  0.29228800001E+02  0.00000000000E+00 0.  1.
         14    1    6    6    0    0  0.62341535697E+02 -0.65939763610E+02 -0.30878365979E+02  0.95854019131E+02  0.00000000000E+00 0. -1.
         -5    1    3    3    0  503 -0.57563801395E+02 -0.51856696048E+01 -0.62069311258E+02  0.84942167386E+02  0.47000000000E+01 0.  1.
         11    1    4    4    0    0 -0.95248420072E+01  0.35310208653E+02 -0.19766637496E+02  0.41572267298E+02  0.00000000000E+00 0. -1.
        -12    1    4    4    0    0 -0.10280999090E+02  0.24194970574E+02  0.63600707178E+02  0.68819659232E+02  0.00000000000E+00 0.  1.
</event>
<event>
12    1  0.8421768E-002  0.1798622E+03  0.7818608E-02  0.1167944E+00
         21   -1    0    0  501  502  0.00000000000E+00  0.00000000000E+00  0.64662666315E+03  0.64662666315E+03  0.00000000000E+00 0. -1.
         21   -1    0    0  502  503 -0.00000000000E+00 -0.00000000000E+00 -0.85757827986E+02  0.85757827986E+02  0.00000000000E+00 0. -1.
         -6    2    1    2    0  503 -0.51092549621E+02 -0.12869119866E+02  0.44026975844E+02  0.18514056043E+03  0.17193774932E+03 0.  0.
        -24    2    3    3    0    0 -0.18690918165E+02  0.56108669419E+02  0.60319884912E+01  0.99855683699E+02  0.80232409138E+02 0.  0.
          6    2    1    2  501    0  0.51092549621E+02  0.12869119866E+02  0.51684185932E+03  0.54724393070E+03  0.17197194327E+03 0.  0.
         24    2    5    5    0    0  0.84706846227E+02  0.51027522353E+02  0.32321680221E+03  0.34699723945E+03  0.78478819560E+02 0.  0.
          5    1    5    5  501    0 -0.33614296606E+02 -0.38158402486E+02  0.19362505711E+03  0.20024669125E+03  0.47000000000E+01 0. -1.
        -11    1    6    6    0    0 -0.14763190724E+02  0.11434255973E+02  0.60068498376E+02  0.62904042057E+02  0.00000000000E+00 0.  1.
         12    1    6    6    0    0  0.99470036951E+02  0.39593266379E+02  0.26314830383E+03  0.28409319739E+03  0.00000000000E+00 0. -1.
         -5    1    3    3    0  503 -0.32401631456E+02 -0.68977789285E+02  0.37994987353E+02  0.85284876734E+02  0.47000000000E+01 0.  1.
         13    1    4    4    0    0 -0.12059409147E+02 -0.18146748974E+02 -0.93911184470E+01  0.23726081703E+02  0.00000000000E+00 0. -1.
        -14    1    4    4    0    0 -0.66315090173E+01  0.74255418392E+02  0.15423106938E+02  0.76129601996E+02  0.00000000000E+00 0.  1.
</event>
<event>
12    1  0.8421768E-002  0.1867285E+03  0.7818608E-02  0.1162504E+00
         21   -1    0    0  501  502  0.00000000000E+00  0.00000000000E+00  0.31347627203E+02  0.31347627203E+02  0.00000000000E+00 0. -1.
         21   -1    0    0  502  503 -0.00000000000E+00 -0.00000000000E+00 -0.15930391488E+04  0.15930391488E+04  0.00000000000E+00 0. -1.
         -6    2    1    2    0  503  0.62967946840E+02  0.10699740930E+02 -0.32894740419E+03  0.37825113752E+03  0.17546532855E+03 0.  0.
        -24    2    3    3    0    0 -0.11388098005E+02  0.56183409066E+02 -0.18163179526E+03  0.20701573198E+03  0.81111898085E+02 0.  0.
          6    2    1    2  501    0 -0.62967946840E+02 -0.10699740930E+02 -0.12327441174E+04  0.12461356385E+04  0.17063564609E+03 0.  0.
         24    2    5    5    0    0  0.24354363210E+02 -0.34922053389E+02 -0.70520005802E+03  0.71084438052E+03  0.78612509652E+02 0.  0.
          5    1    5    5  501    0 -0.87322310051E+02  0.24222312459E+02 -0.52754405942E+03  0.53529125800E+03  0.47000000000E+01 0. -1.
        -13    1    6    6    0    0  0.13963241460E+01 -0.60524596665E+01 -0.58677814400E+03  0.58681101921E+03  0.00000000000E+00 0.  1.
         14    1    6    6    0    0  0.22958039064E+02 -0.28869593722E+02 -0.11842191402E+03  0.12403336131E+03  0.00000000000E+00 0. -1.
         -5    1    3    3    0  503  0.74356044846E+02 -0.45483668136E+02 -0.14731560894E+03  0.17123540553E+03  0.47000000000E+01 0.  1.
         11    1    4    4    0    0  0.10345847626E+02  0.71479410246E+02 -0.12290608176E+03  0.14255612083E+03  0.00000000000E+00 0. -1.
        -12    1    4    4    0    0 -0.21733945631E+02 -0.15296001180E+02 -0.58725713492E+02  0.64459611153E+02  0.00000000000E+00 0.  1.
</event>
<event>
12    1  0.8421768E-002  0.1732827E+03  0.7818608E-02  0.1174710E+00
         21   -1    0    0  503  502  0.00000000000E+00  0.00000000000E+00  0.11880586687E+04  0.11880586687E+04  0.00000000000E+00 0.  1.
         21   -1    0    0  501  503 -0.00000000000E+00 -0.00000000000E+00 -0.26430733011E+02  0.26430733011E+02  0.00000000000E+00 0.  1.
          6    2    1    2  501    0 -0.16530337808E+00 -0.91766840054E+00  0.44483532985E+03  0.47704887615E+03  0.17232611557E+03 0.  0.
         24    2    3    3    0    0  0.63176024023E+02 -0.28821277699E+01  0.31939125359E+03  0.33642779264E+03  0.84695750303E+02 0.  0.
         -6    2    1    2    0  502  0.16530337808E+00  0.91766840054E+00  0.71679260580E+03  0.73744052553E+03  0.17328017636E+03 0.  0.
        -24    2    5    5    0    0  0.40092096082E+02 -0.26482496116E+02  0.63997932126E+03  0.64651589480E+03  0.78106157358E+02 0.  0.
          5    1    3    3  501    0 -0.63341327401E+02  0.19644593694E+01  0.12544407626E+03  0.14062108351E+03  0.47000000000E+01 0. -1.
        -11    1    4    4    0    0 -0.13506531366E+02 -0.20344537603E+02  0.47766325532E+02  0.53646513910E+02  0.00000000000E+00 0.  1.
         12    1    4    4    0    0  0.76682555389E+02  0.17462409833E+02  0.27162492806E+03  0.28278127874E+03  0.00000000000E+00 0. -1.
         -5    1    5    5    0  502 -0.39926792704E+02  0.27400164516E+02  0.76813284540E+02  0.90924630728E+02  0.47000000000E+01 0.  1.
         13    1    6    6    0    0 -0.14042000750E+02 -0.32155213453E+02  0.32265276306E+03  0.32455498925E+03  0.00000000000E+00 0. -1.
        -14    1    6    6    0    0  0.54134096832E+02  0.56727173373E+01  0.31732655820E+03  0.32196090555E+03  0.00000000000E+00 0.  1.
</event>
<event>
12    1  0.8421768E-002  0.2014017E+03  0.7818608E-02  0.1148593E+00
         21   -1    0    0  501  502  0.00000000000E+00  0.00000000000E+00  0.13297212462E+03  0.13297212462E+03  0.00000000000E+00 0.  1.
         21   -1    0    0  502  503 -0.00000000000E+00 -0.00000000000E+00 -0.17173273774E+04  0.17173273774E+04  0.00000000000E+00 0.  1.
         -6    2    1    2    0  503  0.81452945891E+02 -0.65208021071E+02 -0.16312654097E+04  0.16436512684E+04  0.17226719630E+03 0.  0.
        -24    2    3    3    0    0 -0.18820233008E+02 -0.55958358720E+02 -0.74257676975E+03  0.74926329030E+03  0.80558550923E+02 0.  0.
          6    2    1    2  501    0 -0.81452945891E+02  0.65208021071E+02  0.46910156959E+02  0.20664823356E+03  0.17209375701E+03 0.  0.
         24    2    5    5    0    0 -0.62723472825E+02  0.10296999686E+03  0.26586797795E+02  0.15961751057E+03  0.10116243159E+03 0.  0.
          5    1    5    5  501    0 -0.18729473065E+02 -0.37761975794E+02  0.20323359165E+02  0.47030722990E+02  0.47000000000E+01 0. -1.
        -11    1    6    6    0    0 -0.90390593754E+01  0.95916615225E+02  0.39217808372E+02  0.10401797039E+03  0.00000000000E+00 0.  1.
         12    1    6    6    0    0 -0.53684413450E+02  0.70533816396E+01 -0.12631010577E+02  0.55599540180E+02  0.00000000000E+00 0. -1.
         -5    1    3    3    0  503  0.10027317890E+03 -0.92496623511E+01 -0.88868863995E+03  0.89438797814E+03  0.47000000000E+01 0.  1.
         11    1    4    4    0    0 -0.36533457147E+02 -0.57459611924E+02 -0.69738034697E+03  0.70069654547E+03  0.00000000000E+00 0. -1.
        -12    1    4    4    0    0  0.17713224140E+02  0.15012532041E+01 -0.45196422787E+02  0.48566744830E+02  0.00000000000E+00 0.  1.
</event>
<event>
12    1  0.8421768E-002  0.1776401E+03  0.7818608E-02  0.1170818E+00
         21   -1    0    0  501  502  0.00000000000E+00  0.00000000000E+00  0.14918438830E+03  0.14918438830E+03  0.00000000000E+00 0.  1.
         21   -1    0    0  502  503 -0.00000000000E+00 -0.00000000000E+00 -0.21817086937E+03  0.21817086937E+03  0.00000000000E+00 0.  1.
         -6    2    1    2    0  503 -0.96136870164E+01  0.31422800527E+02 -0.74166997061E+02  0.19250126540E+03  0.17457427747E+03 0.  0.
        -24    2    3    3    0    0  0.52827456691E+02  0.64344710858E+00 -0.65973302766E+01  0.95372408233E+02  0.79127854013E+02 0.  0.
          6    2    1    2  501    0  0.96136870164E+01 -0.31422800527E+02  0.51805159917E+01  0.17485399228E+03  0.17166032011E+03 0.  0.
         24    2    5    5    0    0 -0.39670148623E+02 -0.17937523859E+02  0.53036185186E+02  0.10468986885E+03  0.79067415836E+02 0.  0.
          5    1    5    5  501    0  0.49283835640E+02 -0.13485276668E+02 -0.47855669195E+02  0.70164123427E+02  0.47000000000E+01 0. -1.
        -13    1    6    6    0    0  0.49807572552E+01  0.24357596760E+02  0.23130406017E+01  0.24968993163E+02  0.00000000000E+00 0.  1.
         14    1    6    6    0    0 -0.44650905879E+02 -0.42295120619E+02  0.50723144585E+02  0.79720875688E+02  0.00000000000E+00 0. -1.
         -5    1    3    3    0  503 -0.62441143707E+02  0.30779353419E+02 -0.67569666784E+02  0.97128857162E+02  0.47000000000E+01 0.  1.
         11    1    4    4    0    0  0.65597793369E+02 -0.19805893312E+02 -0.14424586690E+02  0.70024371514E+02  0.00000000000E+00 0. -1.
        -12    1    4    4    0    0 -0.12770336678E+02  0.20449340421E+02  0.78272564138E+01  0.25348036719E+02  0.00000000000E+00 0.  1.
</event>
<event>
12    1  0.8421768E-002  0.4485882E+03  0.7818608E-02  0.1028156E+00
         21   -1    0    0  503  502  0.00000000000E+00  0.00000000000E+00  0.22556143992E+03  0.22556143992E+03  0.00000000000E+00 0.  1.
         21   -1    0    0  501  503 -0.00000000000E+00 -0.00000000000E+00 -0.89197976838E+03  0.89197976838E+03  0.00000000000E+00 0. -1.
          6    2    1    2  501    0 -0.40124481329E+03 -0.10330816918E+03 -0.32569874254E+03  0.55422847271E+03  0.17152128456E+03 0.  0.
         24    2    3    3    0    0 -0.40118816314E+03 -0.74901606483E+02 -0.32068190459E+03  0.52500186366E+03  0.78916918438E+02 0.  0.
         -6    2    1    2    0  502  0.40124481329E+03  0.10330816918E+03 -0.34071958592E+03  0.56331273559E+03  0.17193435909E+03 0.  0.
        -24    2    5    5    0    0  0.35029776793E+03  0.33515162343E+02 -0.29014794478E+03  0.46308177170E+03  0.80169227859E+02 0.  0.
          5    1    3    3  501    0 -0.56650151596E-01 -0.28406562701E+02 -0.50168379520E+01  0.29226609054E+02  0.47000000000E+01 0. -1.
        -13    1    4    4    0    0 -0.24745969978E+03 -0.92256179916E+01 -0.20804883029E+03  0.32342809221E+03  0.00000000000E+00 0.  1.
         14    1    4    4    0    0 -0.15372846335E+03 -0.65675988491E+02 -0.11263307430E+03  0.20157377145E+03  0.00000000000E+00 0. -1.
         -5    1    5    5    0  502  0.50947045360E+02  0.69793006841E+02 -0.50571641141E+02  0.10023096389E+03  0.47000000000E+01 0.  1.
         13    1    6    6    0    0  0.23944438546E+02 -0.45770845585E+01 -0.51537403340E+02  0.57012189779E+02  0.00000000000E+00 0. -1.
        -14    1    6    6    0    0  0.32635332938E+03  0.38092246902E+02 -0.23861054144E+03  0.40606958192E+03  0.00000000000E+00 0.  1.
</event>
<event>
12    1  0.8421768E-002  0.2241085E+03  0.7818608E-02  0.1132305E+00
         21   -1    0    0  501  502  0.00000000000E+00  0.00000000000E+00  0.12262538056E+03  0.12262538056E+03  0.00000000000E+00 0.  1.
         21   -1    0    0  502  503 -0.00000000000E+00 -0.00000000000E+00 -0.58979018419E+03  0.58979018419E+03  0.00000000000E+00 0.  1.
         -6    2    1    2    0  503 -0.14259849078E+03  0.12689910962E+02 -0.43526785995E+03  0.48604851464E+03  0.16214094258E+03 0.  0.
        -24    2    3    3    0    0 -0.13958700971E+03  0.44427543834E+02 -0.26544969978E+03  0.31319989913E+03  0.78563947009E+02 0.  0.
          6    2    1    2  501    0  0.14259849078E+03 -0.12689910962E+02 -0.31896943672E+02  0.22636705011E+03  0.17242175892E+03 0.  0.
         24    2    5    5    0    0  0.12619475944E+03  0.49569663009E+02 -0.75840572048E+01  0.15738485385E+03  0.79562588549E+02 0.  0.
          5    1    5    5  501    0  0.16403731338E+02 -0.62259573971E+02 -0.24312886467E+02  0.68982196262E+02  0.47000000000E+01 0. -1.
        -11    1    6    6    0    0  0.90962541840E+02  0.22777316474E+02  0.30901046594E+02  0.98731275918E+02  0.00000000000E+00 0.  1.
         12    1    6    6    0    0  0.35232217601E+02  0.26792346535E+02 -0.38485103798E+02  0.58653577933E+02  0.00000000000E+00 0. -1.
         -5    1    3    3    0  503 -0.30114810638E+01 -0.31737632872E+02 -0.16981816017E+03  0.17284861550E+03  0.47000000000E+01 0.  1.
         13    1    4    4    0    0  0.83249628118E+01  0.11746856836E+02 -0.17773138872E+02  0.22873087170E+02  0.00000000000E+00 0. -1.
        -14    1    4    4    0    0 -0.14791197253E+03  0.32680686998E+02 -0.24767656091E+03  0.29032681196E+03  0.00000000000E+00 0.  1.
</event>
<event>
12    1  0.8421768E-002  0.2349995E+03  0.7818608E-02  0.1123486E+00
         21   -1    0    0  503  502  0.00000000000E+00  0.00000000000E+00  0.52003753842E+03  0.52003753842E+03  0.00000000000E+00 0. -1.
         21   -1    0    0  501  503 -0.00000000000E+00 -0.00000000000E+00 -0.28523389356E+03  0.28523389356E+03  0.00000000000E+00 0. -1.
          6    2    1    2  501    0 -0.50028547572E+02  0.15110495555E+03 -0.20250300888E+03  0.30882217405E+03  0.17037635814E+03 0.  0.
         24    2    3    3    0    0 -0.71503966864E+02  0.17165587245E+03 -0.18130694417E+03  0.27201324879E+03  0.80873009624E+02 0.  0.
         -6    2    1    2    0  502  0.50028547572E+02 -0.15110495555E+03  0.43730665374E+03  0.49644925793E+03  0.17288491295E+03 0.  0.
        -24    2    5    5    0    0  0.20342706094E+01 -0.15324661691E+03  0.25917398011E+03  0.31189201275E+03  0.81343787695E+02 0.  0.
          5    1    3    3  501    0  0.21475419291E+02 -0.20550916907E+02 -0.21196064709E+02  0.36808925258E+02  0.47000000000E+01 0. -1.
        -13    1    4    4    0    0 -0.88016471772E+01  0.63362808288E+02 -0.18346250835E+02  0.66549976610E+02  0.00000000000E+00 0.  1.
         14    1    4    4    0    0 -0.62702319686E+02  0.10829306416E+03 -0.16296069334E+03  0.20546327218E+03  0.00000000000E+00 0. -1.
         -5    1    5    5    0  502  0.47994276963E+02  0.21416613626E+01  0.17813267363E+03  0.18455724518E+03  0.47000000000E+01 0.  1.
         11    1    6    6    0    0  0.31400061447E+02 -0.74336656942E+02  0.17562356635E+03  0.19327581194E+03  0.00000000000E+00 0. -1.
        -12    1    6    6    0    0 -0.29365790838E+02 -0.78909959966E+02  0.83550413762E+02  0.11861620080E+03  0.00000000000E+00 0.  1.
</event>
<event>
12    1  0.8421768E-002  0.1990647E+03  0.7818608E-02  0.1150696E+00
         21   -1    0    0  501  502  0.00000000000E+00  0.00000000000E+00  0.52863284087E+03  0.52863284087E+03  0.00000000000E+00 0. -1.
         21   -1    0    0  502  503 -0.00000000000E+00 -0.00000000000E+00 -0.47994624881E+03  0.47994624881E+03  0.00000000000E+00 0. -1.
         -6    2    1    2    0  503 -0.33143767256E+02  0.91701833969E+02 -0.43906866168E+03  0.48176606882E+03  0.17265433599E+03 0.  0.
        -24    2    3    3    0    0  0.29015681923E+01  0.11997163603E+03 -0.38310758995E+03  0.40929414691E+03  0.79678483109E+02 0.  0.
          6    2    1    2  501    0  0.33143767256E+02 -0.91701833969E+02  0.48775525375E+03  0.52681302085E+03  0.17354836710E+03 0.  0.
         24    2    5    5    0    0 -0.36384551116E+02 -0.23463768021E+02  0.31540297916E+03  0.32877762691E+03  0.82105448800E+02 0.  0.
          5    1    5    5  501    0  0.69528318372E+02 -0.68238065949E+02  0.17235227459E+03  0.19803539394E+03  0.47000000000E+01 0. -1.
        -13    1    6    6    0    0 -0.41706098812E+02 -0.10600849655E+02  0.64791928615E+02  0.77780271954E+02  0.00000000000E+00 0.  1.
         14    1    6    6    0    0  0.53215476962E+01 -0.12862918366E+02  0.25061105055E+03  0.25099735496E+03  0.00000000000E+00 0. -1.
         -5    1    3    3    0  503 -0.36045335448E+02 -0.28269802058E+02 -0.55961071735E+02  0.72471921913E+02  0.47000000000E+01 0.  1.
         13    1    4    4    0    0  0.13923914763E+02  0.50855206017E+02 -0.27839773027E+03  0.28334682564E+03  0.00000000000E+00 0. -1.
        -14    1    4    4    0    0 -0.11022346571E+02  0.69116430010E+02 -0.10470985968E+03  0.12594732127E+03  0.00000000000E+00 0.  1.
</event>
<event>
12    1  0.8421768E-002  0.1821206E+03  0.7818608E-02  0.1165790E+00
         21   -1    0    0  501  502  0.00000000000E+00  0.00000000000E+00  0.73276136681E+03  0.73276136681E+03  0.00000000000E+00 0.  1.
         21   -1    0    0  502  503 -0.00000000000E+00 -0.00000000000E+00 -0.14636673718E+03  0.14636673718E+03  0.00000000000E+00 0.  1.
         -6    2    1    2    0  503  0.17038644254E+02  0.58344958425E+02 -0.72200176874E+02  0.19581629359E+03  0.17157128467E+03 0.  0.
        -24    2    3    3    0    0 -0.42444162936E+02  0.25965854454E+02  0.43864094458E+01  0.93472725506E+02  0.79007450666E+02 0.  0.
          6    2    1    2  501    0 -0.17038644254E+02 -0.58344958425E+02  0.65859480650E+03  0.68331181040E+03  0.17167836643E+03 0.  0.
         24    2    5    5    0    0 -0.18088046945E+02  0.33805254732E+02  0.28415463546E+03  0.29766910695E+03  0.79956661315E+02 0.  0.
          5    1    5    5  501    0  0.10494026917E+01 -0.92150213157E+02  0.37444017104E+03  0.38564270345E+03  0.47000000000E+01 0. -1.
        -13    1    6    6    0    0 -0.21804698843E+02 -0.22199725470E+02  0.12817652722E+03  0.13189956343E+03  0.00000000000E+00 0.  1.
         14    1    6    6    0    0  0.37166518978E+01  0.56004980202E+02  0.15597810824E+03  0.16576954352E+03  0.00000000000E+00 0. -1.
         -5    1    3    3    0  503  0.59482807189E+02  0.32379103972E+02 -0.76586586320E+02  0.10234356809E+03  0.47000000000E+01 0.  1.
         13    1    4    4    0    0 -0.37277170584E+02  0.14009772106E+02 -0.34359041201E+02  0.52596624164E+02  0.00000000000E+00 0. -1.
        -14    1    4    4    0    0 -0.51669923513E+01  0.11956082347E+02  0.38745450646E+02  0.40876101341E+02  0.00000000000E+00 0.  1.
</event>
<event>
12    1  0.8421768E-002  0.2163668E+03  0.7818608E-02  0.1136957E+00
         21   -1    0    0  503  502  0.00000000000E+00  0.00000000000E+00  0.26702282317E+03  0.26702282317E+03  0.00000000000E+00 0. -1.
         21   -1    0    0  501  503 -0.00000000000E+00 -0.00000000000E+00 -0.25516142010E+03  0.25516142010E+03  0.00000000000E+00 0.  1.
          6    2    1    2  501    0 -0.78223372535E+02  0.10207023895E+03 -0.14139264589E+03  0.25846951804E+03  0.17400397052E+03 0.  0.
         24    2    3    3    0    0 -0.79706405283E+02  0.13561130978E+03 -0.13976609825E+03  0.22452929889E+03  0.78328190702E+02 0.  0.
         -6    2    1    2    0  502  0.78223372535E+02 -0.10207023895E+03  0.15325404896E+03  0.26371472522E+03  0.17181799408E+03 0.  0.
        -24    2    5    5    0    0  0.62311047718E+02  0.30687809771E+01  0.83051096976E+02  0.13620801929E+03  0.88108204641E+02 0.  0.
          5    1    3    3  501    0  0.14830327480E+01 -0.33541070833E+02 -0.16265476388E+01  0.33940219151E+02  0.47000000000E+01 0. -1.
        -11    1    4    4    0    0  0.81260580733E+00  0.57003976359E+02 -0.76595803177E+02  0.95483143608E+02  0.00000000000E+00 0.  1.
         12    1    4    4    0    0 -0.80519011091E+02  0.78607333422E+02 -0.63170295070E+02  0.12904615528E+03  0.00000000000E+00 0. -1.
         -5    1    5    5    0  502  0.15912324817E+02 -0.10513901992E+03  0.70202951981E+02  0.12750670594E+03  0.47000000000E+01 0.  1.
         13    1    6    6    0    0 -0.67431410208E+01  0.30939271007E+02  0.13887334820E+02  0.34576965016E+02  0.00000000000E+00 0. -1.
        -14    1    6    6    0    0  0.69054188739E+02 -0.27870490030E+02  0.69163762155E+02  0.10163105427E+03  0.00000000000E+00 0.  1.
</event>
<event>
12    1  0.8421768E-002  0.1825758E+03  0.7818608E-02  0.1165495E+00
         21   -1    0    0  503  502  0.00000000000E+00  0.00000000000E+00  0.30065040854E+02  0.30065040854E+02  0.00000000000E+00 0. -1.
         21   -1    0    0  501  503 -0.00000000000E+00 -0.00000000000E+00 -0.11995819849E+04  0.11995819849E+04  0.00000000000E+00 0. -1.
          6    2    1    2  501    0 -0.56990818594E+02  0.19867693055E+02 -0.75674819514E+03  0.77830241338E+03  0.17159294040E+03 0.  0.
         24    2    3    3    0    0  0.39288137310E+01 -0.14983373390E+02 -0.18142331749E+03  0.19869340441E+03  0.79528056508E+02 0.  0.
         -6    2    1    2    0  502  0.56990818594E+02 -0.19867693055E+02 -0.41276874893E+03  0.45134461240E+03  0.17231146339E+03 0.  0.
        -24    2    5    5    0    0  0.31626959068E+02  0.53174815047E+02 -0.28054188090E+03  0.29809785716E+03  0.79566073252E+02 0.  0.
          5    1    3    3  501    0 -0.60919632325E+02  0.34851066446E+02 -0.57532487765E+03  0.57960900897E+03  0.47000000000E+01 0. -1.
        -13    1    4    4    0    0 -0.22135436447E+02 -0.18375219848E+02 -0.16545822719E+03  0.16794061806E+03  0.00000000000E+00 0.  1.
         14    1    4    4    0    0  0.26064250178E+02  0.33918464571E+01 -0.15965090298E+02  0.30752786345E+02  0.00000000000E+00 0. -1.
         -5    1    5    5    0  502  0.25363859526E+02 -0.73042508103E+02 -0.13222686804E+03  0.15324675524E+03  0.47000000000E+01 0.  1.
         13    1    6    6    0    0 -0.11570321448E+02  0.11276374573E+02 -0.63169107646E+01  0.17347401060E+02  0.00000000000E+00 0. -1.
        -14    1    6    6    0    0  0.43197280516E+02  0.41898440474E+02 -0.27422497013E+03  0.28075045610E+03  0.00000000000E+00 0.  1.
</event>
<event>
12    1  0.8421768E-002  0.2239239E+03  0.7818608E-02  0.1131152E+00
         21   -1    0    0  503  502  0.00000000000E+00  0.00000000000E+00  0.58436127952E+02  0.58436127952E+02  0.00000000000E+00 0.  1.
         21   -1    0    0  501  503 -0.00000000000E+00 -0.00000000000E+00 -0.13880272682E+04  0.13880272682E+04  0.00000000000E+00 0.  1.
          6    2    1    2  501    0  0.32116267303E+02 -0.13906695139E+03 -0.11139192814E+04  0.11362033676E+04  0.17254232954E+03 0.  0.
         24    2    3    3    0    0 -0.18385485247E+02 -0.31249469121E+02 -0.70527071551E+03  0.71053826815E+03  0.78379161473E+02 0.  0.
         -6    2    1    2    0  502 -0.32116267303E+02  0.13906695139E+03 -0.21567185885E+03  0.31026002855E+03  0.17139388269E+03 0.  0.
        -24    2    5    5    0    0 -0.34530263259E+02  0.45917420885E+02 -0.18914483828E+03  0.21326293978E+03  0.80028513757E+02 0.  0.
          5    1    3    3  501    0  0.50501752550E+02 -0.10781748227E+03 -0.40864856588E+03  0.42566509945E+03  0.47000000000E+01 0. -1.
        -11    1    4    4    0    0  0.22951867174E+02 -0.29868850629E+02 -0.48194306617E+03  0.48341292439E+03  0.00000000000E+00 0.  1.
         12    1    4    4    0    0 -0.41337352421E+02 -0.13806184925E+01 -0.22332764934E+03  0.22712534375E+03  0.00000000000E+00 0. -1.
         -5    1    5    5    0  502  0.24139959556E+01  0.93149530504E+02 -0.26527020569E+02  0.96997088770E+02  0.47000000000E+01 0.  1.
         11    1    6    6    0    0 -0.21049317786E+02  0.68365615332E+02 -0.12572997942E+03  0.14465461923E+03  0.00000000000E+00 0. -1.
        -12    1    6    6    0    0 -0.13480945473E+02 -0.22448194447E+02 -0.63414858855E+02  0.68608320548E+02  0.00000000000E+00 0.  1.
</event>
<event>
12    1  0.8421768E-002  0.2019917E+03  0.7818608E-02  0.1148665E+00
         21   -1    0    0  501  502  0.00000000000E+00  0.00000000000E+00  0.10829742057E+03  0.10829742057E+03  0.00000000000E+00 0.  1.
         21   -1    0    0  502  503 -0.00000000000E+00 -0.00000000000E+00 -0.37980375471E+03  0.37980375471E+03  0.00000000000E+00 0.  1.
         -6    2    1    2    0  503  0.35369468093E+02 -0.10106370099E+03 -0.98657979661E+02  0.22224929875E+03  0.16791808393E+03 0.  0.
        -24    2    3    3    0    0  0.43484500294E+02 -0.59258776633E+02  0.58868524993E+01  0.10926603724E+03  0.80634406358E+02 0.  0.
          6    2    1    2  501    0 -0.35369468093E+02  0.10106370099E+03 -0.17284835448E+03  0.26585187653E+03  0.17127695607E+03 0.  0.
         24    2    5    5    0    0  0.99666713924E+01  0.12243613848E+03 -0.15520245607E+03  0.21250757639E+03  0.77341613030E+02 0.  0.
          5    1    5    5  501    0 -0.45336139486E+02 -0.21372437488E+02 -0.17645898400E+02  0.53344300145E+02  0.47000000000E+01 0. -1.
        -13    1    6    6    0    0 -0.23928950181E+02  0.30183988498E+02 -0.15105356200E+02  0.41374383431E+02  0.00000000000E+00 0.  1.
         14    1    6    6    0    0  0.33895621573E+02  0.92252149984E+02 -0.14009709988E+03  0.17113319296E+03  0.00000000000E+00 0. -1.
         -5    1    3    3    0  503 -0.81150322011E+01 -0.41804924360E+02 -0.10454483216E+03  0.11298326150E+03  0.47000000000E+01 0.  1.
         11    1    4    4    0    0 -0.16060579505E+02  0.89894608652E+01 -0.99517644574E+00  0.18432118621E+02  0.00000000000E+00 0. -1.
        -12    1    4    4    0    0  0.59545079800E+02 -0.68248237499E+02  0.68820289451E+01  0.90833918623E+02  0.00000000000E+00 0.  1.
</event>
<event>
12    1  0.8421768E-002  0.1867788E+03  0.7818608E-02  0.1162016E+00
         21   -1    0    0  503  502  0.00000000000E+00  0.00000000000E+00  0.37457079019E+03  0.37457079019E+03  0.00000000000E+00 0.  1.
         21   -1    0    0  501  503 -0.00000000000E+00 -0.00000000000E+00 -0.95331040390E+02  0.95331040390E+02  0.00000000000E+00 0.  1.
          6    2    1    2  501    0  0.71569183103E+02  0.40989960910E+01  0.95484171124E+02  0.20977022484E+03  0.17247426056E+03 0.  0.
         24    2    3    3    0    0  0.50373230873E+02  0.61938975857E+02  0.25647529493E+02  0.11652872033E+03  0.80915065182E+02 0.  0.
         -6    2    1    2    0  502 -0.71569183103E+02 -0.40989960910E+01  0.18375557868E+03  0.26013160574E+03  0.16959772955E+03 0.  0.
        -24    2    5    5    0    0 -0.65524157320E+02 -0.27681806308E+02  0.20291222132E+03  0.22879858431E+03  0.78203101144E+02 0.  0.
          5    1    3    3  501    0  0.21195952231E+02 -0.57839979766E+02  0.69836641631E+02  0.93241504517E+02  0.47000000000E+01 0. -1.
        -11    1    4    4    0    0  0.56688714591E+02  0.69413942904E+01  0.21462548795E+02  0.61011755567E+02  0.00000000000E+00 0.  1.
         12    1    4    4    0    0 -0.63154837181E+01  0.54997581566E+02  0.41849806985E+01  0.55516964760E+02  0.00000000000E+00 0. -1.
         -5    1    5    5    0  502 -0.60450257835E+01  0.23582810217E+02 -0.19156642642E+02  0.31333021427E+02  0.47000000000E+01 0.  1.
         11    1    6    6    0    0 -0.17020141091E+02 -0.11652077969E+02  0.16211709969E+03  0.16342401946E+03  0.00000000000E+00 0. -1.
        -12    1    6    6    0    0 -0.48504016229E+02 -0.16029728340E+02  0.40795121632E+02  0.65374564855E+02  0.00000000000E+00 0.  1.
</event>
<event>
12    1  0.8421768E-002  0.2412651E+03  0.7818608E-02  0.1119015E+00
         21   -1    0    0  503  502  0.00000000000E+00  0.00000000000E+00  0.49909280166E+03  0.49909280166E+03  0.00000000000E+00 0.  1.
         21   -1    0    0  501  503 -0.00000000000E+00 -0.00000000000E+00 -0.20703152128E+03  0.20703152128E+03  0.00000000000E+00 0. -1.
          6    2    1    2  501    0 -0.15012555105E+03 -0.77577351521E+02 -0.87570439781E+02  0.25631428480E+03  0.17167557812E+03 0.  0.
         24    2    3    3    0    0 -0.16843247398E+03 -0.29678157528E+02 -0.56657024382E+02  0.19625426928E+03  0.77816633661E+02 0.  0.
         -6    2    1    2    0  502  0.15012555105E+03  0.77577351521E+02  0.37963172016E+03  0.44981003814E+03  0.17220017687E+03 0.  0.
        -24    2    5    5    0    0  0.16071003623E+03  0.20368434930E+02  0.26489054675E+03  0.32107574458E+03  0.81731530717E+02 0.  0.
          5    1    3    3  501    0  0.18306922930E+02 -0.47899193993E+02 -0.30913415398E+02  0.60060015517E+02  0.47000000000E+01 0. -1.
        -13    1    4    4    0    0 -0.50160345714E+02 -0.22090542730E+01  0.18439099752E+02  0.53487761241E+02  0.00000000000E+00 0.  1.
         14    1    4    4    0    0 -0.11827212827E+03 -0.27469103255E+02 -0.75096124135E+02  0.14276650804E+03  0.00000000000E+00 0. -1.
         -5    1    5    5    0  502 -0.10584485176E+02  0.57208916591E+02  0.11474117341E+03  0.12873429356E+03  0.47000000000E+01 0.  1.
         11    1    6    6    0    0  0.45330839312E+02  0.39480889351E+02  0.58658562203E+02  0.83990788402E+02  0.00000000000E+00 0. -1.
        -12    1    6    6    0    0  0.11537919692E+03 -0.19112454421E+02  0.20623198455E+03  0.23708495618E+03  0.00000000000E+00 0.  1.
</event>
<event>
12    1  0.8421768E-002  0.2264339E+03  0.7818608E-02  0.1130113E+00
         21   -1    0    0  501  502  0.00000000000E+00  0.00000000000E+00  0.13391485462E+04  0.13391485462E+04  0.00000000000E+00 0.  1.
         21   -1    0    0  502  503 -0.00000000000E+00 -0.00000000000E+00 -0.39955859566E+02  0.39955859566E+02  0.00000000000E+00 0.  1.
         -6    2    1    2    0  503 -0.12863800901E+03 -0.55637577651E+02  0.46888649929E+03  0.51847632854E+03  0.17123047811E+03 0.  0.
        -24    2    3    3    0    0 -0.10218197661E+03 -0.10329049250E+03  0.37457946469E+03  0.40945051178E+03  0.78929487848E+02 0.  0.
          6    2    1    2  501    0  0.12863800901E+03  0.55637577651E+02  0.83030618731E+03  0.86062807719E+03  0.17784556546E+03 0.  0.
         24    2    5    5    0    0  0.14303637473E+03  0.64221319301E+02  0.50527318559E+03  0.53512917433E+03  0.80488873728E+02 0.  0.
          5    1    5    5  501    0 -0.14398365720E+02 -0.85837416499E+01  0.32503300172E+03  0.32549890286E+03  0.47000000000E+01 0. -1.
        -13    1    6    6    0    0  0.11089990232E+03  0.76873775526E+01  0.32485862959E+03  0.34335260787E+03  0.00000000000E+00 0.  1.
         14    1    6    6    0    0  0.32136472410E+02  0.56533941748E+02  0.18041455600E+03  0.19177656647E+03  0.00000000000E+00 0. -1.
         -5    1    3    3    0  503 -0.26456032404E+02  0.47652914846E+02  0.94307034598E+02  0.10902581675E+03  0.47000000000E+01 0.  1.
         13    1    4    4    0    0  0.81480368508E+01 -0.14984839370E+02  0.91286866764E+02  0.92866721483E+02  0.00000000000E+00 0. -1.
        -14    1    4    4    0    0 -0.11033001346E+03 -0.88305653127E+02  0.28329259792E+03  0.31658379030E+03  0.00000000000E+00 0.  1.
</event>
<event>
12    1  0.8421768E-002  0.1910285E+03  0.7818608E-02  0.1157570E+00
         21   -1    0    0  501  502  0.00000000000E+00  0.00000000000E+00  0.17745241672E+03  0.17745241672E+03  0.00000000000E+00 0. -1.
         21   -1    0    0  502  503 -0.00000000000E+00 -0.00000000000E+00 -0.68476765528E+03  0.68476765528E+03  0.00000000000E+00 0. -1.
         -6    2    1    2    0  503  0.79300585336E+02 -0.22223759329E+02 -0.61430078255E+03  0.64327305017E+03  0.17219839521E+03 0.  0.
        -24    2    3    3    0    0  0.34003911667E+02 -0.78191182387E+01 -0.57440912278E+03  0.58104189358E+03  0.80289707615E+02 0.  0.
          6    2    1    2  501    0 -0.79300585336E+02  0.22223759329E+02  0.10698554400E+03  0.21894702183E+03  0.17236418837E+03 0.  0.
         24    2    5    5    0    0 -0.22590899084E+02 -0.17807738902E+02  0.12071951225E+03  0.14803001929E+03  0.80698337580E+02 0.  0.
          5    1    5    5  501    0 -0.56709686252E+02  0.40031498231E+02 -0.13733968252E+02  0.70917002540E+02  0.47000000000E+01 0. -1.
        -13    1    6    6    0    0  0.70685248100E+01  0.14849554843E+02 -0.29670095772E+01  0.16711566888E+02  0.00000000000E+00 0.  1.
         14    1    6    6    0    0 -0.29659423894E+02 -0.32657293746E+02  0.12368652183E+03  0.13131845241E+03  0.00000000000E+00 0. -1.
         -5    1    3    3    0  503  0.45296673669E+02 -0.14404641090E+02 -0.39891659780E+02  0.62231156589E+02  0.47000000000E+01 0.  1.
         13    1    4    4    0    0  0.30163316992E+01 -0.33937515381E+02 -0.11753130429E+03  0.12237017894E+03  0.00000000000E+00 0. -1.
        -14    1    4    4    0    0  0.30987579967E+02  0.26118397142E+02 -0.45687781849E+03  0.45867171464E+03  0.00000000000E+00 0.  1.
</event>
<event>
12    1  0.8421768E-002  0.4930944E+03  0.7818608E-02  0.1015613E+00
         21   -1    0    0  503  502  0.00000000000E+00  0.00000000000E+00  0.82461346636E+03  0.82461346636E+03  0.00000000000E+00 0. -1.
         21   -1    0    0  501  503 -0.00000000000E+00 -0.00000000000E+00 -0.29928631450E+03  0.29928631450E+03  0.00000000000E+00 0. -1.
          6    2    1    2  501    0  0.14454896257E+03 -0.43883560142E+03  0.33208994403E+03  0.59429364468E+03  0.17155208400E+03 0.  0.
         24    2    3    3    0    0  0.49192740465E+02 -0.16171359356E+03  0.21460794900E+03  0.27851915950E+03  0.54269129150E+02 0.  0.
         -6    2    1    2    0  502 -0.14454896257E+03  0.43883560142E+03  0.19323720782E+03  0.52960613618E+03  0.17225258586E+03 0.  0.
        -24    2    5    5    0    0 -0.14605735340E+03  0.43695989523E+03  0.20965952863E+03  0.51235574090E+03  0.79275385639E+02 0.  0.
          5    1    3    3  501    0  0.95356222103E+02 -0.27712200785E+03  0.11748199503E+03  0.31577448518E+03  0.47000000000E+01 0. -1.
        -11    1    4    4    0    0 -0.71220954760E+01 -0.44419780182E+02  0.36408922577E+02  0.57874439596E+02  0.00000000000E+00 0.  1.
         12    1    4    4    0    0  0.56314835941E+02 -0.11729381338E+03  0.17819902642E+03  0.22064471991E+03  0.00000000000E+00 0. -1.
         -5    1    5    5    0  502  0.15083908273E+01  0.18757061912E+01 -0.16422320806E+02  0.17250395278E+02  0.47000000000E+01 0.  1.
         13    1    6    6    0    0 -0.96339788992E+02  0.19793670439E+03  0.12945396972E+03  0.25537937302E+03  0.00000000000E+00 0. -1.
        -14    1    6    6    0    0 -0.49717564404E+02  0.23902319084E+03  0.80205558915E+02  0.25697636788E+03  0.00000000000E+00 0.  1.
</event>
<event>
12    1  0.8421768E-002  0.1938838E+03  0.7818608E-02  0.1156244E+00
         21   -1    0    0  503  502  0.00000000000E+00  0.00000000000E+00  0.35689521011E+03  0.35689521011E+03  0.00000000000E+00 0.  1.
         21   -1    0    0  501  503 -0.00000000000E+00 -0.00000000000E+00 -0.17900076617E+03  0.17900076617E+03  0.00000000000E+00 0.  1.
          6    2    1    2  501    0 -0.10933992717E+02 -0.74739887189E+02 -0.85664976828E+02  0.21196556856E+03  0.17856458514E+03 0.  0.
         24    2    3    3    0    0  0.75060372475E+01 -0.16422161037E+01 -0.10988712648E+03  0.13264276757E+03  0.73891039728E+02 0.  0.
         -6    2    1    2    0  502  0.10933992717E+02  0.74739887189E+02  0.26355942078E+03  0.32393040772E+03  0.17251590603E+03 0.  0.
        -24    2    5    5    0    0 -0.21879981991E+02  0.10202587328E+03  0.24346734679E+03  0.27652720730E+03  0.79391025921E+02 0.  0.
          5    1    3    3  501    0 -0.18440029965E+02 -0.73097671086E+02  0.24222149653E+02  0.79322800991E+02  0.47000000000E+01 0. -1.
        -13    1    4    4    0    0  0.26359021920E+02  0.28324964479E+02 -0.52599664345E+02  0.65297981121E+02  0.00000000000E+00 0.  1.
         14    1    4    4    0    0 -0.18852984672E+02 -0.29967180583E+02 -0.57287462137E+02  0.67344786444E+02  0.00000000000E+00 0. -1.
         -5    1    5    5    0  502  0.32813974708E+02 -0.27285986087E+02  0.20092073988E+02  0.47403200419E+02  0.47000000000E+01 0.  1.
         11    1    6    6    0    0 -0.27857356095E+01 -0.50782573911E+01  0.79740534646E+02  0.79950621552E+02  0.00000000000E+00 0. -1.
        -12    1    6    6    0    0 -0.19094246381E+02  0.10710413067E+03  0.16372681214E+03  0.19657658575E+03  0.00000000000E+00 0.  1.
</event>
<event>
12    1  0.8421768E-002  0.2599334E+03  0.7818608E-02  0.1107527E+00
         21   -1    0    0  501  502  0.00000000000E+00  0.00000000000E+00  0.85775409903E+02  0.85775409903E+02  0.00000000000E+00 0. -1.
         21   -1    0    0  502  503 -0.00000000000E+00 -0.00000000000E+00 -0.81769882282E+03  0.81769882282E+03  0.00000000000E+00 0. -1.
         -6    2    1    2    0  503 -0.10056291697E+03 -0.16595031201E+03 -0.27156193869E+03  0.37591387968E+03  0.17295361247E+03 0.  0.
        -24    2    3    3    0    0 -0.10119161753E+03 -0.17567419534E+03 -0.17831247566E+03  0.28203895477E+03  0.81544262000E+02 0.  0.
          6    2    1    2  501    0  0.10056291697E+03  0.16595031201E+03 -0.46036147423E+03  0.52756035304E+03  0.16951351812E+03 0.  0.
         24    2    5    5    0    0 -0.83927858992E+01  0.36884568828E+02 -0.14723134779E+03  0.17174877744E+03  0.79935364562E+02 0.  0.
          5    1    5    5  501    0  0.10895570287E+03  0.12906574318E+03 -0.31313012643E+03  0.35581157560E+03  0.47000000000E+01 0. -1.
        -13    1    6    6    0    0  0.18796952591E+02  0.12447463903E+02 -0.27472420712E+01  0.22711497602E+02  0.00000000000E+00 0.  1.
         14    1    6    6    0    0 -0.27189738490E+02  0.24437104924E+02 -0.14448410572E+03  0.14903727984E+03  0.00000000000E+00 0. -1.
         -5    1    3    3    0  503  0.62870056024E+00  0.97238833346E+01 -0.93249463030E+02  0.93874924910E+02  0.47000000000E+01 0.  1.
         11    1    4    4    0    0 -0.17291978017E+02 -0.80093032835E+02 -0.31461781173E+02  0.87771009377E+02  0.00000000000E+00 0. -1.
        -12    1    4    4    0    0 -0.83899639510E+02 -0.95581162506E+02 -0.14685069449E+03  0.19426794539E+03  0.00000000000E+00 0.  1.
</event>
<event>
12    1  0.8421768E-002  0.1809906E+03  0.7818608E-02  0.1166942E+00
         21   -1    0    0  501  502  0.00000000000E+00  0.00000000000E+00  0.18253985316E+03  0.18253985316E+03  0.00000000000E+00 0.  1.
         21   -1    0    0  502  503 -0.00000000000E+00 -0.00000000000E+00 -0.23368713282E+03  0.23368713282E+03  0.00000000000E+00 0. -1.
         -6    2    1    2    0  503  0.10268192675E+02 -0.54788640848E+02 -0.12616614287E+03  0.22030500410E+03  0.17178232819E+03 0.  0.
        -24    2    3    3    0    0 -0.15214640311E+02 -0.74652647834E+02 -0.14504827055E+03  0.18258792181E+03  0.80590603015E+02 0.  0.
          6    2    1    2  501    0 -0.10268192675E+02  0.54788640848E+02  0.75018863203E+02  0.19592198188E+03  0.17219280532E+03 0.  0.
         24    2    5    5    0    0  0.55045753902E+02  0.69271483092E+01  0.58449097587E+02  0.11313743491E+03  0.79408826728E+02 0.  0.
          5    1    5    5  501    0 -0.65313946578E+02  0.47861492538E+02  0.16569765616E+02  0.82784546977E+02  0.47000000000E+01 0. -1.
        -13    1    6    6    0    0 -0.12812083893E+02 -0.19421255335E+02  0.20680014219E+02  0.31128726935E+02  0.00000000000E+00 0.  1.
         14    1    6    6    0    0  0.67857837796E+02  0.26348403644E+02  0.37769083368E+02  0.82008707973E+02  0.00000000000E+00 0. -1.
         -5    1    3    3    0  503  0.25482832986E+02  0.19864006986E+02  0.18882127679E+02  0.37717082287E+02  0.47000000000E+01 0.  1.
         13    1    4    4    0    0  0.10412755807E+02 -0.63551356758E+02 -0.14014396584E+03  0.15423207056E+03  0.00000000000E+00 0. -1.
        -14    1    4    4    0    0 -0.25627396118E+02 -0.11101291076E+02 -0.49043047087E+01  0.28355851248E+02  0.00000000000E+00 0.  1.
</event>
<event>
12    1  0.8421768E-002  0.1739729E+03  0.7818608E-02  0.1173853E+00
         21   -1    0    0  503  502  0.00000000000E+00  0.00000000000E+00  0.24651358120E+04  0.24651358120E+04  0.00000000000E+00 0.  1.
         21   -1    0    0  501  503 -0.00000000000E+00 -0.00000000000E+00 -0.14264296986E+02  0.14264296986E+02  0.00000000000E+00 0.  1.
          6    2    1    2  501    0 -0.16119963437E+02 -0.13132382432E+01  0.75899813995E+03  0.77860556432E+03  0.17287819561E+03 0.  0.
         24    2    3    3    0    0 -0.75173553189E+02 -0.15091546573E+02  0.43562461442E+03  0.44956195740E+03  0.80363741626E+02 0.  0.
         -6    2    1    2    0  502  0.16119963437E+02  0.13132382432E+01  0.16918733750E+04  0.17007945446E+04  0.17321947962E+03 0.  0.
        -24    2    5    5    0    0  0.10220691582E+02 -0.66917669846E+02  0.10223673439E+04  0.10277784423E+04  0.80691409714E+02 0.  0.
          5    1    3    3  501    0  0.59053589751E+02  0.13778308330E+02  0.32337352553E+03  0.32904360692E+03  0.47000000000E+01 0. -1.
        -11    1    4    4    0    0 -0.32081044688E+02 -0.47365074077E+02  0.22942162711E+03  0.23644645621E+03  0.00000000000E+00 0.  1.
         12    1    4    4    0    0 -0.43092508500E+02  0.32273527504E+02  0.20620298732E+03  0.21311550119E+03  0.00000000000E+00 0. -1.
         -5    1    5    5    0  502  0.58992718557E+01  0.68230908089E+02  0.66950603118E+03  0.67301610234E+03  0.47000000000E+01 0.  1.
         13    1    6    6    0    0  0.38894006321E+02 -0.55157790599E+02  0.50590611757E+03  0.51038821047E+03  0.00000000000E+00 0. -1.
        -14    1    6    6    0    0 -0.28673314739E+02 -0.11759879247E+02  0.51646122628E+03  0.51739023183E+03  0.00000000000E+00 0.  1.
</event>
<event>
12    1  0.8421768E-002  0.2646244E+03  0.7818608E-02  0.1104462E+00
         21   -1    0    0  501  502  0.00000000000E+00  0.00000000000E+00  0.20457223925E+04  0.20457223925E+04  0.00000000000E+00 0. -1.
         21   -1    0    0  502  503 -0.00000000000E+00 -0.00000000000E+00 -0.40827801281E+02  0.40827801281E+02  0.00000000000E+00 0.  1.
         -6    2    1    2    0  503  0.16926671137E+03 -0.10775616048E+03  0.58193843141E+03  0.63927961888E+03  0.17252096530E+03 0.  0.
        -24    2    3    3    0    0  0.11529202399E+03 -0.14486291473E+02  0.21700703315E+03  0.25874111784E+03  0.79704517985E+02 0.  0.
          6    2    1    2  501    0 -0.16926671137E+03  0.10775616048E+03  0.14229561598E+04  0.14472705749E+04  0.17182920162E+03 0.  0.
         24    2    5    5    0    0 -0.34449158181E+02  0.31556939802E+02  0.29730705210E+03  0.31100911838E+03  0.78438533511E+02 0.  0.
          5    1    5    5  501    0 -0.13481755319E+03  0.76199220674E+02  0.11256491077E+04  0.11362614565E+04  0.47000000000E+01 0. -1.
        -13    1    6    6    0    0 -0.33073490342E+02  0.56919741958E+02  0.20912701589E+03  0.21924374920E+03  0.00000000000E+00 0.  1.
         14    1    6    6    0    0 -0.13756678390E+01 -0.25362802157E+02  0.88180036208E+02  0.91765369180E+02  0.00000000000E+00 0. -1.
         -5    1    3    3    0  503  0.53974687385E+02 -0.93269869003E+02  0.36493139826E+03  0.38053850104E+03  0.47000000000E+01 0.  1.
         13    1    4    4    0    0  0.11893166587E+02  0.96194121430E+01  0.98291910602E+02  0.99475022952E+02  0.00000000000E+00 0. -1.
        -14    1    4    4    0    0  0.10339885740E+03 -0.24105703616E+02  0.11871512255E+03  0.15926609489E+03  0.00000000000E+00 0.  1.
</event>
<event>
12    1  0.8421768E-002  0.2613812E+03  0.7818608E-02  0.1106405E+00
         21   -1    0    0  503  502  0.00000000000E+00  0.00000000000E+00  0.27120628612E+03  0.27120628612E+03  0.00000000000E+00 0. -1.
         21   -1    0    0  501  503 -0.00000000000E+00 -0.00000000000E+00 -0.41539655352E+03  0.41539655352E+03  0.00000000000E+00 0.  1.
          6    2    1    2  501    0  0.26477702431E+02 -0.19519471437E+03 -0.28789188417E+03  0.38884681121E+03  0.17180820810E+03 0.  0.
         24    2    3    3    0    0  0.13779526847E+02 -0.14245419655E+03 -0.95964996604E+02  0.18934536747E+03  0.78481297990E+02 0.  0.
         -6    2    1    2    0  502 -0.26477702431E+02  0.19519471437E+03  0.14370161677E+03  0.29775602843E+03  0.17089895423E+03 0.  0.
        -24    2    5    5    0    0  0.14417383385E+02  0.19569469116E+03  0.13718974831E+03  0.25607686755E+03  0.90829851703E+02 0.  0.
          5    1    3    3  501    0  0.12698175584E+02 -0.52740517829E+02 -0.19192688757E+03  0.19950144374E+03  0.47000000000E+01 0. -1.
        -13    1    4    4    0    0 -0.26425102154E+02 -0.24445746182E+02 -0.83095114734E+01  0.36944938911E+02  0.00000000000E+00 0.  1.
         14    1    4    4    0    0  0.40204629000E+02 -0.11800845036E+03 -0.87655485130E+02  0.15240042856E+03  0.00000000000E+00 0. -1.
         -5    1    5    5    0  502 -0.40895085816E+02 -0.49997678170E+00  0.65118684540E+01  0.41679160877E+02  0.47000000000E+01 0.  1.
         11    1    6    6    0    0  0.41522276475E+02  0.11159946988E+03  0.11372906203E+03  0.16465977248E+03  0.00000000000E+00 0. -1.
        -12    1    6    6    0    0 -0.27104893090E+02  0.84095221274E+02  0.23460686284E+02  0.91417095072E+02  0.00000000000E+00 0.  1.
</event>
<event>
12    1  0.8421768E-002  0.1881970E+03  0.7818608E-02  0.1160385E+00
         21   -1    0    0  501  502  0.00000000000E+00  0.00000000000E+00  0.31261338530E+03  0.31261338530E+03  0.00000000000E+00 0. -1.
         21   -1    0    0  502  503 -0.00000000000E+00 -0.00000000000E+00 -0.30486126367E+03  0.30486126367E+03  0.00000000000E+00 0. -1.
         -6    2    1    2    0  503  0.94097404739E+01 -0.76859955663E+02 -0.24134332167E+03  0.30527817906E+03  0.17015337697E+03 0.  0.
        -24    2    3    3    0    0 -0.49538446310E+02 -0.81954330633E+02 -0.13208551488E+03  0.18093912757E+03  0.78242026248E+02 0.  0.
          6    2    1    2  501    0 -0.94097404739E+01  0.76859955663E+02  0.24909544330E+03  0.31219646990E+03  0.17152871463E+03 0.  0.
         24    2    5    5    0    0 -0.48796668684E+02  0.76952875691E+01  0.74632638205E+02  0.12037769660E+03  0.80501098308E+02 0.  0.
          5    1    5    5  501    0  0.39386928210E+02  0.69164668093E+02  0.17446280510E+03  0.19181877330E+03  0.47000000000E+01 0. -1.
        -11    1    6    6    0    0 -0.14618858640E+02  0.48162717685E+01 -0.16763369478E+02  0.22757813118E+02  0.00000000000E+00 0.  1.
         12    1    6    6    0    0 -0.34177810044E+02  0.28790158006E+01  0.91396007683E+02  0.97619883486E+02  0.00000000000E+00 0. -1.
         -5    1    3    3    0  503  0.58948186784E+02  0.50943749704E+01 -0.10925780679E+03  0.12433905150E+03  0.47000000000E+01 0.  1.
         13    1    4    4    0    0 -0.31853491253E+02  0.17942345228E+01 -0.64204602176E+02  0.71694456711E+02  0.00000000000E+00 0. -1.
        -14    1    4    4    0    0 -0.17684955058E+02 -0.83748565156E+02 -0.67880912704E+02  0.10924467086E+03  0.00000000000E+00 0.  1.
</event>
<event>
12    1  0.8421768E-002  0.2144229E+03  0.7818608E-02  0.1138446E+00
         21   -1    0    0  503  502  0.00000000000E+00  0.00000000000E+00  0.45243741913E+03  0.45243741913E+03  0.00000000000E+00 0. -1.
         21   -1    0    0  501  503 -0.00000000000E+00 -0.00000000000E+00 -0.10646812246E+03  0.10646812246E+03  0.00000000000E+00 0. -1.
          6    2    1    2  501    0  0.28962781906E+02 -0.12101886769E+03  0.23811254103E+03  0.32042902836E+03  0.17462179402E+03 0.  0.
         24    2    3    3    0    0 -0.40550573314E+02 -0.72229052748E+02  0.19331081524E+03  0.22429455364E+03  0.77958902279E+02 0.  0.
         -6    2    1    2    0  502 -0.28962781906E+02  0.12101886769E+03  0.10785675563E+03  0.23847651323E+03  0.17249219854E+03 0.  0.
        -24    2    5    5    0    0  0.21947327157E+02  0.72482681038E+02  0.17761808106E+00  0.10977341582E+03  0.79465382735E+02 0.  0.
          5    1    3    3  501    0  0.69513355221E+02 -0.48789814938E+02  0.44801725787E+02  0.96134474718E+02  0.47000000000E+01 0. -1.
        -11    1    4    4    0    0  0.86772535827E+00  0.14760521283E+02  0.45618205045E+02  0.47954630302E+02  0.00000000000E+00 0.  1.
         12    1    4    4    0    0 -0.41418298673E+02 -0.86989574031E+02  0.14769261020E+03  0.17633992334E+03  0.00000000000E+00 0. -1.
         -5    1    5    5    0  502 -0.50910109064E+02  0.48536186648E+02  0.10767913755E+03  0.12870309741E+03  0.47000000000E+01 0.  1.
         13    1    6    6    0    0  0.40582852923E+02  0.76952930100E+01  0.74342549972E+01  0.41969675162E+02  0.00000000000E+00 0. -1.
        -14    1    6    6    0    0 -0.18635525766E+02  0.64787388028E+02 -0.72566369162E+01  0.67803740660E+02  0.00000000000E+00 0.  1.
</event>
<event>
12    1  0.8421768E-002  0.1827154E+03  0.7818608E-02  0.1165346E+00
         21   -1    0    0  501  502  0.00000000000E+00  0.00000000000E+00  0.88913268854E+03  0.88913268854E+03  0.00000000000E+00 0.  1.
         21   -1    0    0  502  503 -0.00000000000E+00 -0.00000000000E+00 -0.42503111803E+02  0.42503111803E+02  0.00000000000E+00 0. -1.
         -6    2    1    2    0  503  0.55971435709E+02  0.17060320834E+02  0.26288593232E+03  0.32014675825E+03  0.17309268397E+03 0.  0.
        -24    2    3    3    0    0  0.21638012074E+02 -0.33504180856E+02  0.23751650178E+03  0.25380483474E+03  0.80075413304E+02 0.  0.
          6    2    1    2  501    0 -0.55971435709E+02 -0.17060320834E+02  0.58374364442E+03  0.61148904210E+03  0.17244810825E+03 0.  0.
         24    2    5    5    0    0  0.23606147757E+02  0.60867309381E+01  0.41971554728E+03  0.42765301612E+03  0.78304936367E+02 0.  0.
          5    1    5    5  501    0 -0.79577583466E+02 -0.23147051772E+02  0.16402809714E+03  0.18383602598E+03  0.47000000000E+01 0. -1.
        -11    1    6    6    0    0  0.21442292730E+02 -0.79021665526E+01  0.40964280243E+03  0.41027971158E+03  0.00000000000E+00 0.  1.
         12    1    6    6    0    0  0.21638550273E+01  0.13988897491E+02  0.10072744849E+02  0.17373304532E+02  0.00000000000E+00 0. -1.
         -5    1    3    3    0  503  0.34333423635E+02  0.50564501690E+02  0.25369430536E+02  0.66341923513E+02  0.47000000000E+01 0.  1.
         13    1    4    4    0    0  0.27083441843E+01 -0.41612065474E+02  0.49761308761E+02  0.64923701148E+02  0.00000000000E+00 0. -1.
        -14    1    4    4    0    0  0.18929667890E+02  0.81078846175E+01  0.18775519302E+03  0.18888113359E+03  0.00000000000E+00 0.  1.
</event>
<event>
12    1  0.8421768E-002  0.1813990E+03  0.7818608E-02  0.1166472E+00
         21   -1    0    0  503  502  0.00000000000E+00  0.00000000000E+00  0.26359145251E+02  0.26359145251E+02  0.00000000000E+00 0. -1.
         21   -1    0    0  501  503 -0.00000000000E+00 -0.00000000000E+00 -0.12479542278E+04  0.12479542278E+04  0.00000000000E+00 0. -1.
          6    2    1    2  501    0 -0.55947121777E+02  0.69764205309E+01 -0.61495580727E+03  0.64113345585E+03  0.17234474880E+03 0.  0.
         24    2    3    3    0    0  0.14992940340E+02 -0.20443012801E+02 -0.47050510902E+03  0.47781654932E+03  0.79315144514E+02 0.  0.
         -6    2    1    2    0  502  0.55947121777E+02 -0.69764205309E+01 -0.60663927531E+03  0.63317991723E+03  0.17241475098E+03 0.  0.
        -24    2    5    5    0    0  0.62162346888E+02 -0.51847394370E+02 -0.54268513051E+03  0.55466714149E+03  0.81216853573E+02 0.  0.
          5    1    3    3  501    0 -0.70940062117E+02  0.27419433332E+02 -0.14445069825E+03  0.16331690654E+03  0.47000000000E+01 0. -1.
        -13    1    4    4    0    0  0.30127571119E+02 -0.44605846474E+02 -0.27205957917E+03  0.27733331336E+03  0.00000000000E+00 0.  1.
         14    1    4    4    0    0 -0.15134630779E+02  0.24162833673E+02 -0.19844552986E+03  0.20048323596E+03  0.00000000000E+00 0. -1.
         -5    1    5    5    0  502 -0.62152251112E+01  0.44870973840E+02 -0.63954144804E+02  0.78512775738E+02  0.47000000000E+01 0.  1.
         13    1    6    6    0    0  0.62080418787E+02  0.27932025790E+00 -0.31950033824E+03  0.32547584019E+03  0.00000000000E+00 0. -1.
        -14    1    6    6    0    0  0.81928101290E-01 -0.52126714628E+02 -0.22318479227E+03  0.22919130130E+03  0.00000000000E+00 0.  1.
</event>
<event>
12    1  0.8421768E-002  0.1822892E+03  0.7818608E-02  0.1165608E+00
         21   -1    0    0  503  502  0.00000000000E+00  0.00000000000E+00  0.42589413177E+03  0.42589413177E+03  0.00000000000E+00 0. -1.
         21   -1    0    0  501  503 -0.00000000000E+00 -0.00000000000E+00 -0.13241844988E+03  0.13241844988E+03  0.00000000000E+00 0. -1.
          6    2    1    2  501    0  0.34565719202E+02  0.49043234205E+02 -0.32185479378E+02  0.18510876960E+03  0.17213170461E+03 0.  0.
         24    2    3    3    0    0  0.86671484207E+02  0.22819631843E+02 -0.22404998636E+01  0.11937080594E+03  0.78814260757E+02 0.  0.
         -6    2    1    2    0  502 -0.34565719202E+02 -0.49043234205E+02  0.32566116127E+03  0.37320381206E+03  0.17212165932E+03 0.  0.
        -24    2    5    5    0    0  0.88738435856E+01 -0.39075179991E+02  0.73461895449E+02  0.11705362681E+03  0.81849170278E+02 0.  0.
          5    1    3    3  501    0 -0.52105765005E+02  0.26223602362E+02 -0.29944979514E+02  0.65737963657E+02  0.47000000000E+01 0. -1.
        -13    1    4    4    0    0 -0.36650689223E+00  0.29666929465E+02  0.97816234935E+01  0.31240057448E+02  0.00000000000E+00 0.  1.
         14    1    4    4    0    0  0.87037991100E+02 -0.68472976228E+01 -0.12022123357E+02  0.88130748490E+02  0.00000000000E+00 0. -1.
         -5    1    5    5    0  502 -0.43439562788E+02 -0.99680542143E+01  0.25219926582E+03  0.25615018525E+03  0.47000000000E+01 0.  1.
         11    1    6    6    0    0  0.39382653630E+01 -0.60770642776E+02  0.72638122151E+02  0.94788595027E+02  0.00000000000E+00 0. -1.
        -12    1    6    6    0    0  0.49355782226E+01  0.21695462785E+02  0.82377329736E+00  0.22265031783E+02  0.00000000000E+00 0.  1.
</event>
<event>
12    1  0.8421768E-002  0.1782128E+03  0.7818608E-02  0.1171139E+00
         21   -1    0    0  503  502  0.00000000000E+00  0.00000000000E+00  0.21607305946E+04  0.21607305946E+04  0.00000000000E+00 0.  1.
         21   -1    0    0  501  503 -0.00000000000E+00 -0.00000000000E+00 -0.32004082768E+02  0.32004082768E+02  0.00000000000E+00 0.  1.
          6    2    1    2  501    0  0.11240547962E+02 -0.10200891630E+02  0.25475605468E+03  0.31090263988E+03  0.17756518798E+03 0.  0.
         24    2    3    3    0    0  0.14715327893E+02 -0.28563360249E+02  0.27218450264E+03  0.28492004671E+03  0.77862848114E+02 0.  0.
         -6    2    1    2    0  502 -0.11240547962E+02  0.10200891630E+02  0.18739704572E+04  0.18818320375E+04  0.17116113728E+03 0.  0.
        -24    2    5    5    0    0  0.30716356399E+02  0.57314718029E+02  0.14056101714E+04  0.14092185149E+04  0.76996086490E+02 0.  0.
          5    1    3    3  501    0 -0.34747799305E+01  0.18362468620E+02 -0.17428447964E+02  0.25982593170E+02  0.47000000000E+01 0. -1.
        -11    1    4    4    0    0  0.63585017072E+01  0.16218915172E+02  0.19127981989E+03  0.19207147953E+03  0.00000000000E+00 0.  1.
         12    1    4    4    0    0  0.83568261853E+01 -0.44782275421E+02  0.80904682750E+02  0.92848567177E+02  0.00000000000E+00 0. -1.
         -5    1    5    5    0  502 -0.41956904361E+02 -0.47113826399E+02  0.46836028571E+03  0.47261352254E+03  0.47000000000E+01 0.  1.
         11    1    6    6    0    0  0.46503329237E+02  0.43223582841E+02  0.12977544282E+04  0.12993065049E+04  0.00000000000E+00 0. -1.
        -12    1    6    6    0    0 -0.15786972838E+02  0.14091135187E+02  0.10785574323E+03  0.10991201004E+03  0.00000000000E+00 0.  1.
</event>
<event>
12    1  0.8421768E-002  0.1869828E+03  0.7818608E-02  0.1161246E+00
         21   -1    0    0  503  502  0.00000000000E+00  0.00000000000E+00  0.10323399232E+04  0.10323399232E+04  0.00000000000E+00 0.  1.
         21   -1    0    0  501  503 -0.00000000000E+00 -0.00000000000E+00 -0.36573973820E+02  0.36573973820E+02  0.00000000000E+00 0.  1.
          6    2    1    2  501    0  0.69844846612E+02 -0.19406757062E+02  0.35157685094E+03  0.39813661687E+03  0.17219627976E+03 0.  0.
         24    2    3    3    0    0  0.83447357049E+02 -0.68757106855E+02  0.22822958043E+03  0.26450606476E+03  0.78636605807E+02 0.  0.
         -6    2    1    2    0  502 -0.69844846612E+02  0.19406757062E+02  0.64418909840E+03  0.67077728011E+03  0.17235904441E+03 0.  0.
        -24    2    5    5    0    0 -0.79481640792E+02 -0.97940007662E+01  0.62283811937E+03  0.63304789680E+03  0.80056623816E+02 0.  0.
          5    1    3    3  501    0 -0.13602510437E+02  0.49350349793E+02  0.12334727051E+03  0.13363055211E+03  0.47000000000E+01 0. -1.
        -11    1    4    4    0    0  0.34221210196E+02 -0.16274990744E+02  0.17329186172E+02  0.41668540224E+02  0.00000000000E+00 0.  1.
         12    1    4    4    0    0  0.49226146852E+02 -0.52482116111E+02  0.21090039426E+03  0.22283752454E+03  0.00000000000E+00 0. -1.
         -5    1    5    5    0  502  0.96367941802E+01  0.29200757828E+02  0.21350979030E+02  0.37729383315E+02  0.47000000000E+01 0.  1.
         13    1    6    6    0    0 -0.33243777912E+02 -0.43788765616E+02  0.26573734366E+03  0.27136495828E+03  0.00000000000E+00 0. -1.
        -14    1    6    6    0    0 -0.46237862880E+02  0.33994764849E+02  0.35710077571E+03  0.36168293852E+03  0.00000000000E+00 0.  1.
</event>
<event>
12    1  0.8421768E-002  0.1886014E+03  0.7818608E-02  0.1161279E+00
         21   -1    0    0  501  502  0.00000000000E+00  0.00000000000E+00  0.67101043327E+03  0.67101043327E+03  0.00000000000E+00 0.  1.
         21   -1    0    0  502  503 -0.00000000000E+00 -0.00000000000E+00 -0.82023752086E+02  0.82023752086E+02  0.00000000000E+00 0.  1.
         -6    2    1    2    0  503 -0.40782378530E+02 -0.62434559330E+02  0.60207814242E+02  0.19162740879E+03  0.16593615129E+03 0.  0.
        -24    2    3    3    0    0 -0.39477443840E+02 -0.38435253919E+01  0.89000764812E+02  0.12616187500E+03  0.80140135423E+02 0.  0.
          6    2    1    2  501    0  0.40782378530E+02  0.62434559330E+02  0.52877886694E+03  0.56140677657E+03  0.17323164276E+03 0.  0.
         24    2    5    5    0    0  0.59381437589E+02  0.39748368825E+02  0.52007313919E+03  0.53044764329E+03  0.76108765658E+02 0.  0.
          5    1    5    5  501    0 -0.18599059059E+02  0.22686190505E+02  0.87057277509E+01  0.30959133276E+02  0.47000000000E+01 0. -1.
        -11    1    6    6    0    0  0.14070403101E+02 -0.21353088621E+02  0.19055805962E+03  0.19226623396E+03  0.00000000000E+00 0.  1.
         12    1    6    6    0    0  0.45311034489E+02  0.61101457446E+02  0.32951507958E+03  0.33818140933E+03  0.00000000000E+00 0. -1.
         -5    1    3    3    0  503 -0.13049346907E+01 -0.58591033938E+02 -0.28792950570E+02  0.65465533794E+02  0.47000000000E+01 0.  1.
         11    1    4    4    0    0  0.23343503381E+02 -0.87255865649E+01  0.36225680619E+02  0.43969932309E+02  0.00000000000E+00 0. -1.
        -12    1    4    4    0    0 -0.62820947220E+02  0.48820611729E+01  0.52775084193E+02  0.82191942686E+02  0.00000000000E+00 0.  1.
</event>
<event>
12    1  0.8421768E-002  0.2309863E+03  0.7818608E-02  0.1126057E+00
         21   -1    0    0  503  502  0.00000000000E+00  0.00000000000E+00  0.73709434598E+03  0.73709434598E+03  0.00000000000E+00 0. -1.
         21   -1    0    0  501  503 -0.00000000000E+00 -0.00000000000E+00 -0.13280604784E+03  0.13280604784E+03  0.00000000000E+00 0.  1.
          6    2    1    2  501    0  0.14533482329E+03 -0.48169981348E+02  0.80721211190E+01  0.23050348859E+03  0.17211664983E+03 0.  0.
         24    2    3    3    0    0  0.41276612986E+02 -0.76463467968E+02 -0.13799444694E+02  0.12037135019E+03  0.82148746550E+02 0.  0.
         -6    2    1    2    0  502 -0.14533482329E+03  0.48169981348E+02  0.59621617702E+03  0.63939690523E+03  0.17295119172E+03 0.  0.
        -24    2    5    5    0    0 -0.22329509098E+02 -0.16986138717E+02  0.15981163183E+03  0.18130669101E+03  0.80902550347E+02 0.  0.
          5    1    3    3  501    0  0.10405821031E+03  0.28293486620E+02  0.21871565813E+02  0.11013213840E+03  0.47000000000E+01 0. -1.
        -13    1    4    4    0    0  0.48625552549E+02 -0.18919970722E+02 -0.29940443516E+02  0.60156793555E+02  0.00000000000E+00 0.  1.
         14    1    4    4    0    0 -0.73489395634E+01 -0.57543497246E+02  0.16140998822E+02  0.60214556637E+02  0.00000000000E+00 0. -1.
         -5    1    5    5    0  502 -0.12300531419E+03  0.65156120065E+02  0.43640454519E+03  0.45809021422E+03  0.47000000000E+01 0.  1.
         13    1    6    6    0    0 -0.17599198450E+01  0.28683690449E+02  0.95858086817E+02  0.10007309441E+03  0.00000000000E+00 0. -1.
        -14    1    6    6    0    0 -0.20569589253E+02 -0.45669829166E+02  0.63953545014E+02  0.81233596609E+02  0.00000000000E+00 0.  1.
</event>
<event>
12    1  0.8421768E-002  0.1902877E+03  0.7818608E-02  0.1159832E+00
         21   -1    0    0  503  502  0.00000000000E+00  0.00000000000E+00  0.23278720767E+03  0.23278720767E+03  0.00000000000E+00 0. -1.
         21   -1    0    0  501  503 -0.00000000000E+00 -0.00000000000E+00 -0.20144399273E+03  0.20144399273E+03  0.00000000000E+00 0. -1.
          6    2    1    2  501    0  0.10986079900E+02  0.85695956561E+02 -0.94465158347E+02  0.20611468524E+03  0.16153979821E+03 0.  0.
         24    2    3    3    0    0 -0.30226321932E+02  0.14241751087E+01 -0.20818784465E+02  0.86757768389E+02  0.78599171605E+02 0.  0.
         -6    2    1    2    0  502 -0.10986079900E+02 -0.85695956561E+02  0.12580837329E+03  0.22811651516E+03  0.16954322981E+03 0.  0.
        -24    2    5    5    0    0  0.52651976989E+02 -0.29549392889E+02  0.36959278227E+02  0.10515924376E+03  0.77762979622E+02 0.  0.
          5    1    3    3  501    0  0.41212401831E+02  0.84271781452E+02 -0.73646373882E+02  0.11935691685E+03  0.47000000000E+01 0. -1.
        -11    1    4    4    0    0 -0.30378012800E+00 -0.54005883587E+01 -0.46454708209E+02  0.46768563713E+02  0.00000000000E+00 0.  1.
         12    1    4    4    0    0 -0.29922541804E+02  0.68247634675E+01  0.25635923744E+02  0.39989204675E+02  0.00000000000E+00 0. -1.
         -5    1    5    5    0  502 -0.63638056889E+02 -0.56146563672E+02  0.88849095059E+02  0.12295727140E+03  0.47000000000E+01 0.  1.
         13    1    6    6    0    0  0.73968358775E+01 -0.48726868294E+02  0.19406118153E+02  0.52968087529E+02  0.00000000000E+00 0. -1.
        -14    1    6    6    0    0  0.45255141112E+02  0.19177475405E+02  0.17553160074E+02  0.52191156229E+02  0.00000000000E+00 0.  1.
</event>
<event>
12    1  0.8421768E-002  0.2047739E+03  0.7818608E-02  0.1148222E+00
         21   -1    0    0  503  502  0.00000000000E+00  0.00000000000E+00  0.15505576327E+03  0.15505576327E+03  0.00000000000E+00 0.  1.
         21   -1    0    0  501  503 -0.00000000000E+00 -0.00000000000E+00 -0.49595088023E+03  0.49595088023E+03  0.00000000000E+00 0.  1.
          6    2    1    2  501    0 -0.86153375535E+00  0.87850233534E+02 -0.39456898032E+03  0.43931525873E+03  0.17203142313E+03 0.  0.
         24    2    3    3    0    0 -0.49274929564E+02  0.21527606867E+02 -0.11463835611E+03  0.14755201212E+03  0.75750822086E+02 0.  0.
         -6    2    1    2    0  502  0.86153375535E+00 -0.87850233534E+02  0.53673863364E+02  0.21169138477E+03  0.18497014084E+03 0.  0.
        -24    2    5    5    0    0  0.25630530903E+02  0.22396091990E+01 -0.25092764222E+02  0.89396844395E+02  0.81854804427E+02 0.  0.
          5    1    3    3  501    0  0.48413395809E+02  0.66322626666E+02 -0.27993062421E+03  0.29176324661E+03  0.47000000000E+01 0. -1.
        -13    1    4    4    0    0 -0.47002841779E+02  0.20374422554E+01 -0.11854962292E+03  0.12754384110E+03  0.00000000000E+00 0.  1.
         14    1    4    4    0    0 -0.22720877849E+01  0.19490164612E+02  0.39112668120E+01  0.20008171020E+02  0.00000000000E+00 0. -1.
         -5    1    5    5    0  502 -0.24768997147E+02 -0.90089842733E+02  0.78766627586E+02  0.12229454037E+03  0.47000000000E+01 0.  1.
         13    1    6    6    0    0 -0.18832128149E+02  0.19804960877E+02  0.11036572061E+02  0.29473572040E+02  0.00000000000E+00 0. -1.
        -14    1    6    6    0    0  0.44462659052E+02 -0.17565351678E+02 -0.36129336283E+02  0.59923272355E+02  0.00000000000E+00 0.  1.
</event>
<event>
12    1  0.8421768E-002  0.1817751E+03  0.7818608E-02  0.1166316E+00
         21   -1    0    0  503  502  0.00000000000E+00  0.00000000000E+00  0.18517926301E+03  0.18517926301E+03  0.00000000000E+00 0. -1.
         21   -1    0    0  501  503 -0.00000000000E+00 -0.00000000000E+00 -0.19151366295E+03  0.19151366295E+03  0.00000000000E+00 0. -1.
          6    2    1    2  501    0  0.42147457044E+02  0.47550543928E+02 -0.54062424943E+02  0.18964420408E+03  0.17030770971E+03 0.  0.
         24    2    3    3    0    0  0.82091102026E+02  0.61556035217E+02 -0.15813979678E+02  0.13240189345E+03  0.82171071138E+02 0.  0.
         -6    2    1    2    0  502 -0.42147457044E+02 -0.47550543928E+02  0.47728025005E+02  0.18704872189E+03  0.16932748633E+03 0.  0.
        -24    2    5    5    0    0  0.14450730745E+02 -0.56085498090E+02 -0.51542499007E+01  0.10897935977E+03  0.92171187732E+02 0.  0.
          5    1    3    3  501    0 -0.39943644982E+02 -0.14005491289E+02 -0.38248445265E+02  0.57242310627E+02  0.47000000000E+01 0. -1.
        -13    1    4    4    0    0  0.33636840644E+01  0.47531974181E+02 -0.21409659905E+02  0.52239606404E+02  0.00000000000E+00 0.  1.
         14    1    4    4    0    0  0.78727417962E+02  0.14024061036E+02  0.55956802277E+01  0.80162287044E+02  0.00000000000E+00 0. -1.
         -5    1    5    5    0  502 -0.56598187789E+02  0.85349541618E+01  0.52882274906E+02  0.78069362126E+02  0.47000000000E+01 0.  1.
         11    1    6    6    0    0 -0.34306422476E+02 -0.25337227593E+02  0.18734867350E+02  0.46582195954E+02  0.00000000000E+00 0. -1.
        -12    1    6    6    0    0  0.48757153221E+02 -0.30748270496E+02 -0.23889117251E+02  0.62397163812E+02  0.00000000000E+00 0.  1.
</event>
<event>
12    1  0.8421768E-002  0.1838449E+03  0.7818608E-02  0.1164151E+00
         21   -1    0    0  501  502  0.00000000000E+00  0.00000000000E+00  0.44789616469E+03  0.44789616469E+03  0.00000000000E+00 0.  1.
         21   -1    0    0  502  503 -0.00000000000E+00 -0.00000000000E+00 -0.94938017594E+02  0.94938017594E+02  0.00000000000E+00 0. -1.
         -6    2    1    2    0  503  0.55934770815E+02  0.33845972878E+02  0.29954266146E+03  0.35146090553E+03  0.17182756942E+03 0.  0.
        -24    2    3    3    0    0  0.94629532851E+02 -0.21883718175E+01  0.17524995385E+03  0.21630719388E+03  0.84360644507E+02 0.  0.
          6    2    1    2  501    0 -0.55934770815E+02 -0.33845972878E+02  0.53415485629E+02  0.19137327675E+03  0.17174477716E+03 0.  0.
         24    2    5    5    0    0 -0.13491715211E+02 -0.70086904797E+02 -0.14121886041E+02  0.10363386322E+03  0.73799385745E+02 0.  0.
          5    1    5    5  501    0 -0.42443055605E+02  0.36240931918E+02  0.67537371670E+02  0.87739413535E+02  0.47000000000E+01 0. -1.
        -11    1    6    6    0    0  0.22004319517E+02  0.38366701946E+00  0.47241658962E+01  0.22508998672E+02  0.00000000000E+00 0.  1.
         12    1    6    6    0    0 -0.35496034728E+02 -0.70470571816E+02 -0.18846051937E+02  0.81124864543E+02  0.00000000000E+00 0. -1.
         -5    1    3    3    0  503 -0.38694762035E+02  0.36034344696E+02  0.12429270761E+03  0.13515371165E+03  0.47000000000E+01 0.  1.
         11    1    4    4    0    0  0.19022684367E+02  0.37021503417E+02  0.57394469893E+02  0.70898373818E+02  0.00000000000E+00 0. -1.
        -12    1    4    4    0    0  0.75606848483E+02 -0.39209875234E+02  0.11785548396E+03  0.14540882006E+03  0.00000000000E+00 0.  1.
</event>
<event>
12    1  0.8421768E-002  0.2258707E+03  0.7818608E-02  0.1129669E+00
         21   -1    0    0  503  502  0.00000000000E+00  0.00000000000E+00  0.46589404648E+03  0.46589404648E+03  0.00000000000E+00 0. -1.
         21   -1    0    0  501  503 -0.00000000000E+00 -0.00000000000E+00 -0.35932310081E+03  0.35932310081E+03  0.00000000000E+00 0. -1.
          6    2    1    2  501    0 -0.22814000512E+02  0.14472315906E+03 -0.29089991935E+03  0.36829383770E+03  0.17190787188E+03 0.  0.
         24    2    3    3    0    0  0.38696623241E+02  0.91641935932E+02 -0.67794749428E+02  0.13080872252E+03  0.51177346206E+02 0.  0.
         -6    2    1    2    0  502  0.22814000512E+02 -0.14472315906E+03  0.39747086503E+03  0.45692330959E+03  0.17126164460E+03 0.  0.
        -24    2    5    5    0    0 -0.11216902705E+01 -0.17159203247E+03  0.35940132607E+03  0.40432831508E+03  0.69763811516E+02 0.  0.
          5    1    3    3  501    0 -0.61510623753E+02  0.53081223132E+02 -0.22310516993E+03  0.23748511518E+03  0.47000000000E+01 0. -1.
        -13    1    4    4    0    0  0.79335281441E+01  0.67719302548E+02 -0.24235604276E+02  0.72361656428E+02  0.00000000000E+00 0.  1.
         14    1    4    4    0    0  0.30763095097E+02  0.23922633385E+02 -0.43559145152E+02  0.58447066089E+02  0.00000000000E+00 0. -1.
         -5    1    5    5    0  502  0.23935690783E+02  0.26868873405E+02  0.38069538963E+02  0.52594994516E+02  0.47000000000E+01 0.  1.
         11    1    6    6    0    0  0.30900299729E+02 -0.68289303743E+02  0.17792736163E+03  0.19307098059E+03  0.00000000000E+00 0. -1.
        -12    1    6    6    0    0 -0.32021990000E+02 -0.10330272873E+03  0.18147396444E+03  0.21125733449E+03  0.00000000000E+00 0.  1.
</event>
<event>
12    1  0.8421768E-002  0.2131299E+03  0.7818608E-02  0.1139359E+00
         21   -1    0    0  501  502  0.00000000000E+00  0.00000000000E+00  0.83633311569E+02  0.83633311569E+02  0.00000000000E+00 0. -1.
         21   -1    0    0  502  503 -0.00000000000E+00 -0.00000000000E+00 -0.80337091344E+03  0.80337091344E+03  0.00000000000E+00 0.  1.
         -6    2    1    2    0  503 -0.77686460341E+02  0.96883391535E+02 -0.61457776701E+03  0.65048456434E+03  0.17321304532E+03 0.  0.
        -24    2    3    3    0    0 -0.93591741119E+02  0.86034334507E+02 -0.30290167321E+03  0.33817901293E+03  0.80338660899E+02 0.  0.
          6    2    1    2  501    0  0.77686460341E+02 -0.96883391535E+02 -0.10515983486E+03  0.23651966066E+03  0.17164318028E+03 0.  0.
         24    2    5    5    0    0  0.23330179807E+02 -0.12277492684E+03 -0.54478728100E+02  0.15768032139E+03  0.79228605875E+02 0.  0.
          5    1    5    5  501    0  0.54356280534E+02  0.25891535306E+02 -0.50681106758E+02  0.78839339268E+02  0.47000000000E+01 0. -1.
        -11    1    6    6    0    0  0.74543964783E+01 -0.36714360092E+02 -0.59180211232E+02  0.70041485315E+02  0.00000000000E+00 0.  1.
         12    1    6    6    0    0  0.15875783329E+02 -0.86060566750E+02  0.47014831317E+01  0.87638836078E+02  0.00000000000E+00 0. -1.
         -5    1    3    3    0  503  0.15905280778E+02  0.10849057028E+02 -0.31167609380E+03  0.31230555141E+03  0.47000000000E+01 0.  1.
         13    1    4    4    0    0 -0.70087617531E+02  0.60810648430E+02 -0.28418215893E+03  0.29894766858E+03  0.00000000000E+00 0. -1.
        -14    1    4    4    0    0 -0.23504123588E+02  0.25223686076E+02 -0.18719514276E+02  0.39231344351E+02  0.00000000000E+00 0.  1.
</event>
<event>
12    1  0.8421768E-002  0.1774605E+03  0.7818608E-02  0.1170600E+00
         21   -1    0    0  501  502  0.00000000000E+00  0.00000000000E+00  0.40204680372E+02  0.40204680372E+02  0.00000000000E+00 0.  1.
         21   -1    0    0  502  503 -0.00000000000E+00 -0.00000000000E+00 -0.81116649317E+03  0.81116649317E+03  0.00000000000E+00 0.  1.
         -6    2    1    2    0  503 -0.22584401291E+02  0.35454169130E+02 -0.47333300224E+03  0.50550604197E+03  0.17240990161E+03 0.  0.
        -24    2    3    3    0    0  0.19140791703E+02  0.80792891491E+02 -0.30492807788E+03  0.32612125994E+03  0.80498958289E+02 0.  0.
          6    2    1    2  501    0  0.22584401291E+02 -0.35454169130E+02 -0.29762881056E+03  0.34586513157E+03  0.17109274406E+03 0.  0.
         24    2    5    5    0    0 -0.43406172011E+02 -0.41225985733E+02 -0.23001328401E+03  0.25109161701E+03  0.80976611703E+02 0.  0.
          5    1    5    5  501    0  0.65990573302E+02  0.57718166029E+01 -0.67615526555E+02  0.94773514565E+02  0.47000000000E+01 0. -1.
        -11    1    6    6    0    0 -0.51917871323E+02 -0.57737302946E+02 -0.14948206585E+03  0.16844568717E+03  0.00000000000E+00 0.  1.
         12    1    6    6    0    0  0.85116993119E+01  0.16511317213E+02 -0.80531218155E+02  0.82645929838E+02  0.00000000000E+00 0. -1.
         -5    1    3    3    0  503 -0.41725192994E+02 -0.45338722361E+02 -0.16840492436E+03  0.17938478203E+03  0.47000000000E+01 0.  1.
         13    1    4    4    0    0 -0.60356439260E+01  0.76773964232E-01  0.30392583646E+01  0.67581050044E+01  0.00000000000E+00 0. -1.
        -14    1    4    4    0    0  0.25176435629E+02  0.80716117526E+02 -0.30796733624E+03  0.31936315494E+03  0.00000000000E+00 0.  1.
</event>
<event>
12    1  0.8421768E-002  0.2093001E+03  0.7818608E-02  0.1142284E+00
         21   -1    0    0  501  502  0.00000000000E+00  0.00000000000E+00  0.57833052986E+03  0.57833052986E+03  0.00000000000E+00 0. -1.
         21   -1    0    0  502  503 -0.00000000000E+00 -0.00000000000E+00 -0.12311480787E+03  0.12311480787E+03  0.00000000000E+00 0. -1.
         -6    2    1    2    0  503 -0.23875254020E+02  0.11796275207E+03  0.96578274560E+01  0.20952282984E+03  0.17123464592E+03 0.  0.
        -24    2    3    3    0    0 -0.73839546656E+02  0.47409886097E+02  0.20068777554E+02  0.12231838432E+03  0.82819414157E+02 0.  0.
          6    2    1    2  501    0  0.23875254020E+02 -0.11796275207E+03  0.44555789454E+03  0.49192250789E+03  0.17023712213E+03 0.  0.
         24    2    5    5    0    0 -0.34575930025E+02 -0.11856345669E+03  0.34680427562E+03  0.37706925799E+03  0.81579602449E+02 0.  0.
          5    1    5    5  501    0  0.58451184045E+02  0.60070462004E+00  0.98753618921E+02  0.11485324990E+03  0.47000000000E+01 0. -1.
        -11    1    6    6    0    0  0.10643600883E+00 -0.33102705404E+02  0.22803504843E+02  0.40197018133E+02  0.00000000000E+00 0.  1.
         12    1    6    6    0    0 -0.34682366034E+02 -0.85460751283E+02  0.32400077078E+03  0.33687223986E+03  0.00000000000E+00 0. -1.
         -5    1    3    3    0  503  0.49964292636E+02  0.70552865970E+02 -0.10410950098E+02  0.87204445512E+02  0.47000000000E+01 0.  1.
         11    1    4    4    0    0 -0.36826894059E+02  0.28078685471E+02 -0.31466862874E+02  0.55989250423E+02  0.00000000000E+00 0. -1.
        -12    1    4    4    0    0 -0.37012652597E+02  0.19331200626E+02  0.51535640427E+02  0.66329133902E+02  0.00000000000E+00 0.  1.
</event>
<event>
12    1  0.8421768E-002  0.1731632E+03  0.7818608E-02  0.1174770E+00
         21   -1    0    0  503  502  0.00000000000E+00  0.00000000000E+00  0.51715889325E+02  0.51715889325E+02  0.00000000000E+00 0. -1.
         21   -1    0    0  501  503 -0.00000000000E+00 -0.00000000000E+00 -0.86023462322E+03  0.86023462322E+03  0.00000000000E+00 0. -1.
          6    2    1    2  501    0 -0.16843858179E+02 -0.23353404938E+01 -0.66625874553E+03  0.68839394184E+03  0.17232624233E+03 0.  0.
         24    2    3    3    0    0 -0.14499733807E+02  0.16373694765E+02 -0.66439692010E+03  0.66887268898E+03  0.74088234315E+02 0.  0.
         -6    2    1    2    0  502  0.16843858179E+02  0.23353404938E+01 -0.14225998837E+03  0.22355657071E+03  0.17161138261E+03 0.  0.
        -24    2    5    5    0    0  0.64461724943E+01 -0.36908165991E+02 -0.13785311647E+02  0.88738184619E+02  0.79250645017E+02 0.  0.
          5    1    3    3  501    0 -0.23441243724E+01 -0.18709035259E+02 -0.18618254311E+01  0.19521252862E+02  0.47000000000E+01 0. -1.
        -11    1    4    4    0    0  0.23295883662E+02  0.26331110615E+02 -0.22368788362E+03  0.22643386421E+03  0.00000000000E+00 0.  1.
         12    1    4    4    0    0 -0.37795617469E+02 -0.99574158499E+01 -0.44070903648E+03  0.44243882477E+03  0.00000000000E+00 0. -1.
         -5    1    5    5    0  502  0.10397685685E+02  0.39243506485E+02 -0.12847467672E+03  0.13481838609E+03  0.47000000000E+01 0.  1.
         13    1    6    6    0    0 -0.27828837333E+02  0.20447721029E+01  0.12498459945E+02  0.30575100675E+02  0.00000000000E+00 0. -1.
        -14    1    6    6    0    0  0.34275009828E+02 -0.38952938094E+02 -0.26283771592E+02  0.58163083944E+02  0.00000000000E+00 0.  1.
</event>
<event>
12    1  0.8421768E-002  0.1823518E+03  0.7818608E-02  0.1165967E+00
         21   -1    0    0  501  502  0.00000000000E+00  0.00000000000E+00  0.25212208773E+03  0.25212208773E+03  0.00000000000E+00 0.  1.
         21   -1    0    0  502  503 -0.00000000000E+00 -0.00000000000E+00 -0.13955442314E+03  0.13955442314E+03  0.00000000000E+00 0.  1.
         -6    2    1    2    0  503  0.44200859030E+02  0.35162570738E+02  0.69877656983E+01  0.18248562735E+03  0.17338411981E+03 0.  0.
        -24    2    3    3    0    0  0.65355514954E+02 -0.33100774135E+02 -0.11330797333E+02  0.10855955975E+03  0.79308173984E+02 0.  0.
          6    2    1    2  501    0 -0.44200859030E+02 -0.35162570738E+02  0.10557989889E+03  0.20919088352E+03  0.17153305331E+03 0.  0.
         24    2    5    5    0    0 -0.97692973573E+02 -0.39736443548E+02  0.74040645300E+02  0.14674778023E+03  0.70213900448E+02 0.  0.
          5    1    5    5  501    0  0.53492114542E+02  0.45738728099E+01  0.31539253595E+02  0.62443103286E+02  0.47000000000E+01 0. -1.
        -13    1    6    6    0    0 -0.16287265817E+02  0.61068971641E+01 -0.10860947732E+02  0.20506813658E+02  0.00000000000E+00 0.  1.
         14    1    6    6    0    0 -0.81405707756E+02 -0.45843340712E+02  0.84901593032E+02  0.12624096658E+03  0.00000000000E+00 0. -1.
         -5    1    3    3    0  503 -0.21154655924E+02  0.68263344873E+02  0.18318563031E+02  0.73926067608E+02  0.47000000000E+01 0.  1.
         13    1    4    4    0    0 -0.45949343101E+01  0.29206461416E+01 -0.27669940273E+02  0.28200517547E+02  0.00000000000E+00 0. -1.
        -14    1    4    4    0    0  0.69950449264E+02 -0.36021420277E+02  0.16339142940E+02  0.80359042199E+02  0.00000000000E+00 0.  1.
</event>
<event>
12    1  0.8421768E-002  0.2427034E+03  0.7818608E-02  0.1118081E+00
         21   -1    0    0  503  502  0.00000000000E+00  0.00000000000E+00  0.17277886355E+04  0.17277886355E+04  0.00000000000E+00 0. -1.
         21   -1    0    0  501  503 -0.00000000000E+00 -0.00000000000E+00 -0.39101295967E+02  0.39101295967E+02  0.00000000000E+00 0. -1.
          6    2    1    2  501    0 -0.12392845645E+03 -0.11783099393E+03  0.52539572720E+03  0.57854977095E+03  0.17157144826E+03 0.  0.
         24    2    3    3    0    0 -0.15473909082E+03 -0.10864332577E+03  0.48637391956E+03  0.52777083921E+03  0.78961450304E+02 0.  0.
         -6    2    1    2    0  502  0.12392845645E+03  0.11783099393E+03  0.11632916124E+04  0.11883401606E+04  0.17222821002E+03 0.  0.
        -24    2    5    5    0    0  0.64533068684E+02  0.38642756008E+02  0.90762395705E+03  0.91413835697E+03  0.78802974087E+02 0.  0.
          5    1    3    3  501    0  0.30810634374E+02 -0.91876681583E+01  0.39021807641E+02  0.50778931737E+02  0.47000000000E+01 0. -1.
        -11    1    4    4    0    0 -0.92291996833E+02 -0.63621231925E+02  0.38180215273E+03  0.39791752620E+03  0.00000000000E+00 0.  1.
         12    1    4    4    0    0 -0.62447093992E+02 -0.45022093843E+02  0.10457176683E+03  0.12985331301E+03  0.00000000000E+00 0. -1.
         -5    1    5    5    0  502  0.59395387767E+02  0.79188237918E+02  0.25566765532E+03  0.27420180359E+03  0.47000000000E+01 0.  1.
         13    1    6    6    0    0  0.57455602510E+02  0.95601318060E+01  0.29009940043E+03  0.29588883810E+03  0.00000000000E+00 0. -1.
        -14    1    6    6    0    0  0.70774661738E+01  0.29082624202E+02  0.61752455662E+03  0.61824951887E+03  0.00000000000E+00 0.  1.
</event>
<event>
12    1  0.8421768E-002  0.2049629E+03  0.7818608E-02  0.1148107E+00
         21   -1    0    0  501  502  0.00000000000E+00  0.00000000000E+00  0.17874752570E+03  0.17874752570E+03  0.00000000000E+00 0.  1.
         21   -1    0    0  502  503 -0.00000000000E+00 -0.00000000000E+00 -0.28004756135E+03  0.28004756135E+03  0.00000000000E+00 0.  1.
         -6    2    1    2    0  503 -0.24326844390E+02  0.88207086202E+02 -0.15414619486E+03  0.24712907679E+03  0.17011597747E+03 0.  0.
        -24    2    3    3    0    0  0.32419506730E+02  0.10079048955E+03 -0.12577355455E+03  0.18227857853E+03  0.78719412905E+02 0.  0.
          6    2    1    2  501    0  0.24326844390E+02 -0.88207086202E+02  0.52846159213E+02  0.21166601026E+03  0.18340528330E+03 0.  0.
         24    2    5    5    0    0  0.24690361296E+02 -0.32011263307E+02 -0.42874440607E+02  0.10056863907E+03  0.81495389976E+02 0.  0.
          5    1    5    5  501    0 -0.36351690634E+00 -0.56195822895E+02  0.95720599819E+02  0.11109737119E+03  0.47000000000E+01 0. -1.
        -11    1    6    6    0    0  0.45682458494E+02  0.70828239725E+01 -0.17344450452E+02  0.49374926542E+02  0.00000000000E+00 0.  1.
         12    1    6    6    0    0 -0.20992097198E+02 -0.39094087280E+02 -0.25529990155E+02  0.51193712527E+02  0.00000000000E+00 0. -1.
         -5    1    3    3    0  503 -0.56746351120E+02 -0.12583403352E+02 -0.28372640313E+02  0.64850498253E+02  0.47000000000E+01 0.  1.
         11    1    4    4    0    0 -0.41581701550E+01 -0.12325990044E+02 -0.11068417656E+02  0.17080113554E+02  0.00000000000E+00 0. -1.
        -12    1    4    4    0    0  0.36577676885E+02  0.11311647960E+03 -0.11470513689E+03  0.16519846498E+03  0.00000000000E+00 0.  1.
</event>
<event>
12    1  0.8421768E-002  0.1957429E+03  0.7818608E-02  0.1156393E+00
         21   -1    0    0  501  502  0.00000000000E+00  0.00000000000E+00  0.93950615366E+03  0.93950615366E+03  0.00000000000E+00 0.  1.
         21   -1    0    0  502  503 -0.00000000000E+00 -0.00000000000E+00 -0.52750747409E+02  0.52750747409E+02  0.00000000000E+00 0.  1.
         -6    2    1    2    0  503  0.81456787901E+02  0.36846358452E+02  0.17023454591E+03  0.24948005963E+03  0.15895797277E+03 0.  0.
        -24    2    3    3    0    0  0.90183365078E+02  0.26629274976E+02  0.18926738303E+03  0.22571283781E+03  0.79258975854E+02 0.  0.
          6    2    1    2  501    0 -0.81456787901E+02 -0.36846358452E+02  0.71652086034E+03  0.74277684144E+03  0.17413336971E+03 0.  0.
         24    2    5    5    0    0 -0.77547801037E+02 -0.97401608325E+01  0.70341134267E+03  0.71205265583E+03  0.78249188504E+02 0.  0.
          5    1    5    5  501    0 -0.39089868641E+01 -0.27106197620E+02  0.13109517676E+02  0.30724185610E+02  0.47000000000E+01 0. -1.
        -13    1    6    6    0    0 -0.19221078294E+02 -0.40340607712E+02  0.27454762641E+03  0.27816040992E+03  0.00000000000E+00 0.  1.
         14    1    6    6    0    0 -0.58326722743E+02  0.30600446879E+02  0.42886371626E+03  0.43389224591E+03  0.00000000000E+00 0. -1.
         -5    1    3    3    0  503 -0.87265771773E+01  0.10217083477E+02 -0.19032837119E+02  0.23767221815E+02  0.47000000000E+01 0.  1.
         13    1    4    4    0    0  0.44139305665E+02  0.40074586902E+02  0.15690543167E+03  0.16784982964E+03  0.00000000000E+00 0. -1.
        -14    1    4    4    0    0  0.46044059413E+02 -0.13445311926E+02  0.32361951353E+02  0.57863008178E+02  0.00000000000E+00 0.  1.
</event>
<event>
12    1  0.8421768E-002  0.1832436E+03  0.7818608E-02  0.1164950E+00
         21   -1    0    0  501  502  0.00000000000E+00  0.00000000000E+00  0.39767650419E+03  0.39767650419E+03  0.00000000000E+00 0.  1.
         21   -1    0    0  502  503 -0.00000000000E+00 -0.00000000000E+00 -0.25071484930E+03  0.25071484930E+03  0.00000000000E+00 0. -1.
         -6    2    1    2    0  503  0.53515949694E+02  0.30733606664E+02 -0.19085202623E+03  0.26458024621E+03  0.17253897914E+03 0.  0.
        -24    2    3    3    0    0  0.83947272037E+02  0.34594026694E+02 -0.19868529096E+03  0.23257371159E+03  0.79817261987E+02 0.  0.
          6    2    1    2  501    0 -0.53515949694E+02 -0.30733606664E+02  0.33781368111E+03  0.38381110728E+03  0.17141870223E+03 0.  0.
         24    2    5    5    0    0  0.38225574755E+02 -0.24861518179E+02  0.16909168551E+03  0.19161279685E+03  0.77744299835E+02 0.  0.
          5    1    5    5  501    0 -0.91741524449E+02 -0.58720884851E+01  0.16872199560E+03  0.19219831043E+03  0.47000000000E+01 0. -1.
        -11    1    6    6    0    0  0.19275779235E+02 -0.52295490442E+02  0.11944965503E+03  0.13181272349E+03  0.00000000000E+00 0.  1.
         12    1    6    6    0    0  0.18949795519E+02  0.27433972263E+02  0.49642030473E+02  0.59800073359E+02  0.00000000000E+00 0. -1.
         -5    1    3    3    0  503 -0.30431322342E+02 -0.38604200294E+01  0.78332647372E+01  0.32006534626E+02  0.47000000000E+01 0.  1.
         13    1    4    4    0    0  0.46952498150E+02  0.22987867534E+02 -0.31682334619E+02  0.61128957648E+02  0.00000000000E+00 0. -1.
        -14    1    4    4    0    0  0.36994773887E+02  0.11606159159E+02 -0.16700295634E+03  0.17144475394E+03  0.00000000000E+00 0.  1.
</event>
<event>
12    1  0.8421768E-002  0.1875803E+03  0.7818608E-02  0.1161297E+00
         21   -1    0    0  503  502  0.00000000000E+00  0.00000000000E+00  0.36134822772E+03  0.36134822772E+03  0.00000000000E+00 0. -1.
         21   -1    0    0  501  503 -0.00000000000E+00 -0.00000000000E+00 -0.10899888270E+03  0.10899888270E+03  0.00000000000E+00 0. -1.
          6    2    1    2  501    0 -0.18270987717E+02 -0.71063249065E+02  0.43996859451E+02  0.18999535096E+03  0.16964284655E+03 0.  0.
         24    2    3    3    0    0  0.40142916055E+02 -0.86290027397E+02  0.30723540922E+02  0.12800898216E+03  0.79905825884E+02 0.  0.
         -6    2    1    2    0  502  0.18270987717E+02  0.71063249065E+02  0.20835248557E+03  0.28035175946E+03  0.17263411143E+03 0.  0.
        -24    2    5    5    0    0  0.81531449507E+01  0.28864893992E+02  0.21883662570E+03  0.23546212694E+03  0.81567693343E+02 0.  0.
          5    1    3    3  501    0 -0.58413903773E+02  0.15226778332E+02  0.13273318529E+02  0.61986368801E+02  0.47000000000E+01 0. -1.
        -11    1    4    4    0    0 -0.55274269683E+01  0.12287739137E+02  0.11423879849E+02  0.17664824166E+02  0.00000000000E+00 0.  1.
         12    1    4    4    0    0  0.45670343024E+02 -0.98577766534E+02  0.19299661072E+02  0.11034415800E+03  0.00000000000E+00 0. -1.
         -5    1    5    5    0  502  0.10117842767E+02  0.42198355073E+02 -0.10484140135E+02  0.44889632516E+02  0.47000000000E+01 0.  1.
         11    1    6    6    0    0 -0.28675851555E+02  0.30431740886E+02  0.65130153131E+02  0.77397236143E+02  0.00000000000E+00 0. -1.
        -12    1    6    6    0    0  0.36828996506E+02 -0.15668468934E+01  0.15370647257E+03  0.15806489080E+03  0.00000000000E+00 0.  1.
</event>
<event>
12    1  0.8421768E-002  0.2187997E+03  0.7818608E-02  0.1136651E+00
         21   -1    0    0  503  502  0.00000000000E+00  0.00000000000E+00  0.99562235084E+02  0.99562235084E+02  0.00000000000E+00 0. -1.
         21   -1    0    0  501  503 -0.00000000000E+00 -0.00000000000E+00 -0.46066620684E+03  0.46066620684E+03  0.00000000000E+00 0. -1.
          6    2    1    2  501    0  0.60674971925E+02  0.10262670763E+03 -0.19739463017E+03  0.29468282482E+03  0.18346562045E+03 0.  0.
         24    2    3    3    0    0  0.71208759802E+02  0.82082589334E+02 -0.47714499264E+02  0.14315971413E+03  0.80061172651E+02 0.  0.
         -6    2    1    2    0  502 -0.60674971925E+02 -0.10262670763E+03 -0.16370934158E+03  0.26554561710E+03  0.17175573616E+03 0.  0.
        -24    2    5    5    0    0 -0.82961689849E+02 -0.33680685881E+02 -0.14941894369E+03  0.19154185245E+03  0.79656951509E+02 0.  0.
          5    1    3    3  501    0 -0.10533787876E+02  0.20544118291E+02 -0.14968013091E+03  0.15152311069E+03  0.47000000000E+01 0. -1.
        -13    1    4    4    0    0 -0.13712153716E+02  0.68927601127E+01  0.74182249985E+01  0.17045919266E+02  0.00000000000E+00 0.  1.
         14    1    4    4    0    0  0.84920913518E+02  0.75189829221E+02 -0.55132724263E+02  0.12611379487E+03  0.00000000000E+00 0. -1.
         -5    1    5    5    0  502  0.22286717923E+02 -0.68946021744E+02 -0.14290397890E+02  0.74003764647E+02  0.47000000000E+01 0.  1.
         11    1    6    6    0    0 -0.33519808168E+02 -0.56227397421E+02 -0.79120493644E+02  0.10268958211E+03  0.00000000000E+00 0. -1.
        -12    1    6    6    0    0 -0.49441881681E+02  0.22546711540E+02 -0.70298450047E+02  0.88852270339E+02  0.00000000000E+00 0.  1.
</event>
<event>
12    1  0.8421768E-002  0.2375204E+03  0.7818608E-02  0.1121705E+00
         21   -1    0    0  503  502  0.00000000000E+00  0.00000000000E+00  0.16587257308E+03  0.16587257308E+03  0.00000000000E+00 0. -1.
         21   -1    0    0  501  503 -0.00000000000E+00 -0.00000000000E+00 -0.37162359232E+03  0.37162359232E+03  0.00000000000E+00 0. -1.
          6    2    1    2  501    0 -0.85586970225E+02  0.13800770492E+03 -0.18399470373E+03  0.30044965531E+03  0.17333403672E+03 0.  0.
         24    2    3    3    0    0 -0.39694963865E+02  0.21917705749E+02 -0.26264894839E+02  0.99243922867E+02  0.84281881468E+02 0.  0.
         -6    2    1    2    0  502  0.85586970225E+02 -0.13800770492E+03 -0.21756315506E+02  0.23704651008E+03  0.17130806924E+03 0.  0.
        -24    2    5    5    0    0  0.80824686802E+02 -0.15852109447E+03 -0.50236476378E+02  0.20131573822E+03  0.79641418295E+02 0.  0.
          5    1    3    3  501    0 -0.45892006360E+02  0.11608999917E+03 -0.15772980889E+03  0.20120573244E+03  0.47000000000E+01 0. -1.
        -13    1    4    4    0    0 -0.50428010367E+02 -0.77696845760E+01 -0.39984278826E+02  0.64823566557E+02  0.00000000000E+00 0.  1.
         14    1    4    4    0    0  0.10733046502E+02  0.29687390325E+02  0.13719383987E+02  0.34420356310E+02  0.00000000000E+00 0. -1.
         -5    1    5    5    0  502  0.47622834229E+01  0.20513389552E+02  0.28480160872E+02  0.35730771859E+02  0.47000000000E+01 0.  1.
         13    1    6    6    0    0  0.27659821449E+02 -0.12626553505E+03 -0.51441012570E+02  0.13911947685E+03  0.00000000000E+00 0. -1.
        -14    1    6    6    0    0  0.53164865353E+02 -0.32255559422E+02  0.12045361921E+01  0.62196261375E+02  0.00000000000E+00 0.  1.
</event>
<event>
12    1  0.8421768E-002  0.1814191E+03  0.7818608E-02  0.1166995E+00
         21   -1    0    0  501  502  0.00000000000E+00  0.00000000000E+00  0.48692302137E+03  0.48692302137E+03  0.00000000000E+00 0. -1.
         21   -1    0    0  502  503 -0.00000000000E+00 -0.00000000000E+00 -0.67096672341E+02  0.67096672341E+02  0.00000000000E+00 0.  1.
         -6    2    1    2    0  503  0.35287712662E+02 -0.41574042094E+02  0.19088877135E+03  0.26334655285E+03  0.17302965130E+03 0.  0.
        -24    2    3    3    0    0  0.79037879450E+02 -0.10610411064E+02  0.77871643950E+02  0.13817553133E+03  0.81663439294E+02 0.  0.
          6    2    1    2  501    0 -0.35287712662E+02  0.41574042094E+02  0.22893757767E+03  0.29067314086E+03  0.17060139714E+03 0.  0.
         24    2    5    5    0    0 -0.67481044708E+01  0.83029106704E+02  0.20554906438E+03  0.23497624533E+03  0.77614744273E+02 0.  0.
          5    1    5    5  501    0 -0.28539608191E+02 -0.41455064609E+02  0.23388513296E+02  0.55696895530E+02  0.47000000000E+01 0. -1.
        -13    1    6    6    0    0  0.27228364196E+02  0.42995022595E+01  0.60358008587E+02  0.66354794379E+02  0.00000000000E+00 0.  1.
         14    1    6    6    0    0 -0.33976468667E+02  0.78729604444E+02  0.14519105579E+03  0.16862145095E+03  0.00000000000E+00 0. -1.
         -5    1    3    3    0  503 -0.43750166788E+02 -0.30963631031E+02  0.11301712740E+03  0.12517102152E+03  0.47000000000E+01 0.  1.
         13    1    4    4    0    0  0.33982348347E+02  0.31814763241E+02  0.55340106722E+02  0.72315327361E+02  0.00000000000E+00 0. -1.
        -14    1    4    4    0    0  0.45055531103E+02 -0.42425174304E+02  0.22531537227E+02  0.65860203974E+02  0.00000000000E+00 0.  1.
</event>
<event>
12    1  0.8421768E-002  0.1913332E+03  0.7818608E-02  0.1157556E+00
         21   -1    0    0  503  502  0.00000000000E+00  0.00000000000E+00  0.38242635843E+03  0.38242635843E+03  0.00000000000E+00 0. -1.
         21   -1    0    0  501  503 -0.00000000000E+00 -0.00000000000E+00 -0.11472734995E+03  0.11472734995E+03  0.00000000000E+00 0. -1.
          6    2    1    2  501    0 -0.25670701381E+01  0.80702711695E+02  0.31350719881E+02  0.19388462372E+03  0.17346141402E+03 0.  0.
         24    2    3    3    0    0  0.64025182769E+02  0.67901393400E+02  0.24111600203E+02  0.12552603427E+03  0.80408909714E+02 0.  0.
         -6    2    1    2    0  502  0.25670701381E+01 -0.80702711695E+02  0.23634828860E+03  0.30326908466E+03  0.17202356427E+03 0.  0.
        -24    2    5    5    0    0 -0.32093896653E+02 -0.47857559718E+02  0.23544483293E+03  0.25527853497E+03  0.80078067156E+02 0.  0.
          5    1    3    3  501    0 -0.66592252907E+02  0.12801318294E+02  0.72391196777E+01  0.68358589446E+02  0.47000000000E+01 0. -1.
        -13    1    4    4    0    0 -0.16055634113E+02  0.14887750639E+02  0.19591607229E+02  0.29381279408E+02  0.00000000000E+00 0.  1.
         14    1    4    4    0    0  0.80080816882E+02  0.53013642762E+02  0.45199929743E+01  0.96144754864E+02  0.00000000000E+00 0. -1.
         -5    1    5    5    0  502  0.34660966791E+02 -0.32845151976E+02  0.90345566571E+00  0.47990549688E+02  0.47000000000E+01 0.  1.
         13    1    6    6    0    0  0.16938478307E+02  0.12367833755E+02  0.52237224051E+02  0.56290344960E+02  0.00000000000E+00 0. -1.
        -14    1    6    6    0    0 -0.49032374959E+02 -0.60225393474E+02  0.18320760888E+03  0.19898819001E+03  0.00000000000E+00 0.  1.
</event>
<event>
12    1  0.8421768E-002  0.2072346E+03  0.7818608E-02  0.1144235E+00
         21   -1    0    0  503  502  0.00000000000E+00  0.00000000000E+00  0.27203696157E+03  0.27203696157E+03  0.00000000000E+00 0. -1.
         21   -1    0    0  501  503 -0.00000000000E+00 -0.00000000000E+00 -0.22234243507E+03  0.22234243507E+03  0.00000000000E+00 0. -1.
          6    2    1    2  501    0 -0.38004590414E+02  0.11046677428E+03 -0.11012615496E+03  0.23267569993E+03  0.16841304647E+03 0.  0.
         24    2    3    3    0    0  0.18099604925E+02  0.84263785588E+02 -0.16334093241E+02  0.12018873094E+03  0.82161713609E+02 0.  0.
         -6    2    1    2    0  502  0.38004590414E+02 -0.11046677428E+03  0.15982068147E+03  0.26170369671E+03  0.17116926574E+03 0.  0.
        -24    2    5    5    0    0  0.58565696437E+02 -0.61273506967E+02  0.29213835614E+02  0.12055492833E+03  0.80595651863E+02 0.  0.
          5    1    3    3  501    0 -0.56104195339E+02  0.26202988691E+02 -0.93792061719E+02  0.11248696899E+03  0.47000000000E+01 0.  1.
        -13    1    4    4    0    0  0.26295214807E+02  0.84932709369E+02  0.12881153978E+02  0.89838341315E+02  0.00000000000E+00 0.  1.
         14    1    4    4    0    0 -0.81956098824E+01 -0.66892378075E+00 -0.29215247219E+02  0.30350389625E+02  0.00000000000E+00 0. -1.
         -5    1    5    5    0  502 -0.20561106023E+02 -0.49193267312E+02  0.13060684586E+03  0.14114876838E+03  0.47000000000E+01 0.  1.
         13    1    6    6    0    0  0.18719729957E+01 -0.32968558766E+02  0.44458288144E+02  0.55380226929E+02  0.00000000000E+00 0. -1.
        -14    1    6    6    0    0  0.56693723442E+02 -0.28304948201E+02 -0.15244452531E+02  0.65174701405E+02  0.00000000000E+00 0.  1.
</event>
<event>
12    1  0.8421768E-002  0.1867144E+03  0.7818608E-02  0.1161571E+00
         21   -1    0    0  503  502  0.00000000000E+00  0.00000000000E+00  0.31603063461E+02  0.31603063461E+02  0.00000000000E+00 0.  1.
         21   -1    0    0  501  503 -0.00000000000E+00 -0.00000000000E+00 -0.11209218941E+04  0.11209218941E+04  0.00000000000E+00 0.  1.
          6    2    1    2  501    0  0.17168155127E+02  0.70239131629E+02 -0.62359929246E+03  0.65095186480E+03  0.17214520491E+03 0.  0.
         24    2    3    3    0    0  0.25303098192E+02  0.11184604127E+03 -0.52864222105E+03  0.54685456590E+03  0.80234248552E+02 0.  0.
         -6    2    1    2    0  502 -0.17168155127E+02 -0.70239131629E+02 -0.46571953817E+03  0.50157309275E+03  0.17161759226E+03 0.  0.
        -24    2    5    5    0    0  0.51683090997E+02 -0.21489243698E+02 -0.21095931619E+03  0.23316685890E+03  0.82036708320E+02 0.  0.
          5    1    3    3  501    0 -0.81349430652E+01 -0.41606909642E+02 -0.94957071409E+02  0.10409729890E+03  0.47000000000E+01 0. -1.
        -13    1    4    4    0    0 -0.27726431724E+02  0.23494998985E+02 -0.11721630435E+03  0.12272095175E+03  0.00000000000E+00 0.  1.
         14    1    4    4    0    0  0.53029529916E+02  0.88351042287E+02 -0.41142591670E+03  0.42413361415E+03  0.00000000000E+00 0. -1.
         -5    1    5    5    0  502 -0.68851246123E+02 -0.48749887931E+02 -0.25476022198E+03  0.26840623385E+03  0.47000000000E+01 0.  1.
         11    1    6    6    0    0 -0.19303772152E+02 -0.91561852188E-01 -0.83589585791E+02  0.85789643056E+02  0.00000000000E+00 0. -1.
        -12    1    6    6    0    0  0.70986863148E+02 -0.21397681846E+02 -0.12736973040E+03  0.14737721584E+03  0.00000000000E+00 0.  1.
</event>
<event>
12    1  0.8421768E-002  0.2440006E+03  0.7818608E-02  0.1117297E+00
         21   -1    0    0  501  502  0.00000000000E+00  0.00000000000E+00  0.18498025696E+03  0.18498025696E+03  0.00000000000E+00 0. -1.
         21   -1    0    0  502  503 -0.00000000000E+00 -0.00000000000E+00 -0.33689262418E+03  0.33689262418E+03  0.00000000000E+00 0. -1.
         -6    2    1    2    0  503 -0.17186937586E+03  0.53409057025E+01 -0.13326918478E+03  0.27802330385E+03  0.17311462745E+03 0.  0.
        -24    2    3    3    0    0 -0.76566154102E+02  0.35426846313E+01 -0.14461361760E+03  0.18191542783E+03  0.79405276398E+02 0.  0.
          6    2    1    2  501    0  0.17186937586E+03 -0.53409057025E+01 -0.18643182439E+02  0.24384957729E+03  0.17189368942E+03 0.  0.
         24    2    5    5    0    0  0.38457881041E+02  0.44845439923E+02 -0.23348917722E+02  0.10115574357E+03  0.78722235760E+02 0.  0.
          5    1    5    5  501    0  0.13341149482E+03 -0.50186345625E+02  0.47057352833E+01  0.14269383372E+03  0.47000000000E+01 0. -1.
        -11    1    6    6    0    0  0.36788800219E+02  0.67854094587E+01 -0.44055293243E+02  0.57795557492E+02  0.00000000000E+00 0.  1.
         12    1    6    6    0    0  0.16690808212E+01  0.38060030464E+02  0.20706375521E+02  0.43360186081E+02  0.00000000000E+00 0. -1.
         -5    1    3    3    0  503 -0.95303221755E+02  0.17982210712E+01  0.11344432818E+02  0.96107876013E+02  0.47000000000E+01 0.  1.
         13    1    4    4    0    0 -0.29454162797E+02  0.38516514135E+02 -0.44170950341E+02  0.65590719017E+02  0.00000000000E+00 0. -1.
        -14    1    4    4    0    0 -0.47111991305E+02 -0.34973829503E+02 -0.10044266726E+03  0.11632470882E+03  0.00000000000E+00 0.  1.
</event>
<event>
12    1  0.8421768E-002  0.2117610E+03  0.7818608E-02  0.1140188E+00
         21   -1    0    0  501  502  0.00000000000E+00  0.00000000000E+00  0.22680314459E+03  0.22680314459E+03  0.00000000000E+00 0. -1.
         21   -1    0    0  502  503 -0.00000000000E+00 -0.00000000000E+00 -0.72813472668E+03  0.72813472668E+03  0.00000000000E+00 0. -1.
         -6    2    1    2    0  503 -0.61894332275E+02  0.10696147664E+03 -0.65820868252E+03  0.69143430454E+03  0.17196238510E+03 0.  0.
        -24    2    3    3    0    0 -0.11962988878E+02  0.65244675081E+02 -0.58338782936E+03  0.59216859720E+03  0.76956528841E+02 0.  0.
          6    2    1    2  501    0  0.61894332275E+02 -0.10696147664E+03  0.15687710044E+03  0.26350356673E+03  0.17190706555E+03 0.  0.
         24    2    5    5    0    0  0.43872292202E+02 -0.14733257577E+02  0.15551551418E+02  0.93721827059E+02  0.80000520086E+02 0.  0.
          5    1    5    5  501    0  0.18022040073E+02 -0.92228219067E+02  0.14132554902E+03  0.16978173967E+03  0.47000000000E+01 0. -1.
        -13    1    6    6    0    0  0.56420591877E+02  0.71703851549E+01  0.30344756383E+02  0.64463182135E+02  0.00000000000E+00 0.  1.
         14    1    6    6    0    0 -0.12548299675E+02 -0.21903642732E+02 -0.14793204965E+02  0.29258644924E+02  0.00000000000E+00 0. -1.
         -5    1    3    3    0  503 -0.49931343396E+02  0.41716801563E+02 -0.74820853164E+02  0.99265707342E+02  0.47000000000E+01 0.  1.
         11    1    4    4    0    0 -0.21378801459E+02 -0.45731920823E+01 -0.56339940269E+02  0.60433071303E+02  0.00000000000E+00 0. -1.
        -12    1    4    4    0    0  0.94158125806E+01  0.69817867163E+02 -0.52704788909E+03  0.53173552589E+03  0.00000000000E+00 0.  1.
</event>
<event>
12    1  0.8421768E-002  0.1909516E+03  0.7818608E-02  0.1157710E+00
         21   -1    0    0  501  502  0.00000000000E+00  0.00000000000E+00  0.17783302788E+03  0.17783302788E+03  0.00000000000E+00 0.  1.
         21   -1    0    0  502  503 -0.00000000000E+00 -0.00000000000E+00 -0.20498828723E+03  0.20498828723E+03  0.00000000000E+00 0.  1.
         -6    2    1    2    0  503 -0.73463483300E+02 -0.32863790846E+02 -0.46604606965E+01  0.19100843149E+03  0.17316347444E+03 0.  0.
        -24    2    3    3    0    0  0.99536947674E+01  0.14273987843E+02  0.33282765043E+02  0.87847517595E+02  0.79414237578E+02 0.  0.
          6    2    1    2  501    0  0.73463483300E+02  0.32863790846E+02 -0.22494798653E+02  0.19181288361E+03  0.17265356708E+03 0.  0.
         24    2    5    5    0    0 -0.27528827165E+02  0.47975480912E+01 -0.12421516339E+02  0.86405475084E+02  0.80813113191E+02 0.  0.
          5    1    5    5  501    0  0.10099231047E+03  0.28066242755E+02 -0.10073282313E+02  0.10540740853E+03  0.47000000000E+01 0. -1.
        -11    1    6    6    0    0 -0.61296725933E+01  0.38801615392E+02 -0.22108762272E+02  0.45076996487E+02  0.00000000000E+00 0.  1.
         12    1    6    6    0    0 -0.21399154572E+02 -0.34004067301E+02  0.96872459325E+01  0.41328478597E+02  0.00000000000E+00 0. -1.
         -5    1    3    3    0  503 -0.83417178068E+02 -0.47137778689E+02 -0.37943225740E+02  0.10316091390E+03  0.47000000000E+01 0.  1.
         11    1    4    4    0    0  0.53097459744E+01  0.23863003671E+02 -0.21184240752E+02  0.32348236471E+02  0.00000000000E+00 0. -1.
        -12    1    4    4    0    0  0.46439487930E+01 -0.95890158284E+01  0.54467005795E+02  0.55499281124E+02  0.00000000000E+00 0.  1.
</event>
<event>
12    1  0.8421768E-002  0.3767243E+03  0.7818608E-02  0.1052243E+00
         21   -1    0    0  501  502  0.00000000000E+00  0.00000000000E+00  0.91071207065E+03  0.91071207065E+03  0.00000000000E+00 0.  1.
         21   -1    0    0  502  503 -0.00000000000E+00 -0.00000000000E+00 -0.17657019370E+03  0.17657019370E+03  0.00000000000E+00 0. -1.
         -6    2    1    2    0  503  0.21440750709E+03 -0.25794203237E+03  0.17938421831E+03  0.41725284082E+03  0.17151257749E+03 0.  0.
        -24    2    3    3    0    0  0.57916752439E+02 -0.15703792525E+03  0.52661237216E+02  0.19197124135E+03  0.77874844584E+02 0.  0.
          6    2    1    2  501    0 -0.21440750709E+03  0.25794203237E+03  0.55475765864E+03  0.67002942353E+03  0.16934785921E+03 0.  0.
         24    2    5    5    0    0 -0.11302696908E+03  0.75145630797E+02  0.32112626184E+03  0.35650389429E+03  0.74504959799E+02 0.  0.
          5    1    5    5  501    0 -0.10138053801E+03  0.18279640157E+03  0.23363139680E+03  0.31352552924E+03  0.47000000000E+01 0. -1.
        -13    1    6    6    0    0 -0.11601671650E+03  0.84773452294E+02  0.28763295125E+03  0.32152625299E+03  0.00000000000E+00 0.  1.
         14    1    6    6    0    0  0.29897474149E+01 -0.96278214979E+01  0.33493310593E+02  0.34977641299E+02  0.00000000000E+00 0. -1.
         -5    1    3    3    0  503  0.15649075465E+03 -0.10090410711E+03  0.12672298110E+03  0.22528159947E+03  0.47000000000E+01 0.  1.
         13    1    4    4    0    0  0.68314951729E+02 -0.13045227032E+03  0.64883536071E+02  0.16091799376E+03  0.00000000000E+00 0. -1.
        -14    1    4    4    0    0 -0.10398199290E+02 -0.26585654930E+02 -0.12222298856E+02  0.31053247590E+02  0.00000000000E+00 0.  1.
</event>
<event>
12    1  0.8421768E-002  0.2210976E+03  0.7818608E-02  0.1133337E+00
         21   -1    0    0  503  502  0.00000000000E+00  0.00000000000E+00  0.30584809382E+03  0.30584809382E+03  0.00000000000E+00 0. -1.
         21   -1    0    0  501  503 -0.00000000000E+00 -0.00000000000E+00 -0.25503259010E+03  0.25503259010E+03  0.00000000000E+00 0. -1.
          6    2    1    2  501    0  0.10020935054E+03 -0.96589324388E+02 -0.14692697351E+03  0.26425593888E+03  0.16991837501E+03 0.  0.
         24    2    3    3    0    0  0.12591486228E+03 -0.57554228156E+02 -0.69495284371E+02  0.17368956237E+03  0.78558435593E+02 0.  0.
         -6    2    1    2    0  502 -0.10020935054E+03  0.96589324388E+02  0.19774247722E+03  0.29662474504E+03  0.17179272555E+03 0.  0.
        -24    2    5    5    0    0 -0.66629444266E+02  0.44274717244E+02  0.32476953792E+02  0.11999175984E+03  0.83327885318E+02 0.  0.
          5    1    3    3  501    0 -0.25705511743E+02 -0.39035096231E+02 -0.77431689136E+02  0.90566376510E+02  0.47000000000E+01 0. -1.
        -11    1    4    4    0    0  0.44539294917E+02  0.11276319622E+02 -0.45038648886E+02  0.64338045272E+02  0.00000000000E+00 0.  1.
         12    1    4    4    0    0  0.81375567365E+02 -0.68830547779E+02 -0.24456635485E+02  0.10935151709E+03  0.00000000000E+00 0. -1.
         -5    1    5    5    0  502 -0.33579906272E+02  0.52314607144E+02  0.16526552343E+03  0.17663298520E+03  0.47000000000E+01 0.  1.
         11    1    6    6    0    0 -0.49375329273E+02 -0.50723957858E+01  0.44148059566E+02  0.66428183049E+02  0.00000000000E+00 0. -1.
        -12    1    6    6    0    0 -0.17254114993E+02  0.49347113029E+02 -0.11671105774E+02  0.53563576790E+02  0.00000000000E+00 0.  1.
</event>
<event>
12    1  0.8421768E-002  0.2125252E+03  0.7818608E-02  0.1141422E+00
         21   -1    0    0  501  502  0.00000000000E+00  0.00000000000E+00  0.13368625152E+03  0.13368625152E+03  0.00000000000E+00 0.  1.
         21   -1    0    0  502  503 -0.00000000000E+00 -0.00000000000E+00 -0.54423768678E+03  0.54423768678E+03  0.00000000000E+00 0.  1.
         -6    2    1    2    0  503  0.12481876553E+03 -0.10160746221E+02 -0.41847846067E+03  0.46525097410E+03  0.16016017565E+03 0.  0.
        -24    2    3    3    0    0  0.10969473701E+03  0.48819519775E+02 -0.31113233864E+03  0.34174920111E+03  0.74651881931E+02 0.  0.
          6    2    1    2  501    0 -0.12481876553E+03  0.10160746221E+02  0.79270254075E+01  0.21267296420E+03  0.17170901833E+03 0.  0.
         24    2    5    5    0    0 -0.23801765661E+02  0.55526610332E+02 -0.26138908975E+01  0.10133700053E+03  0.81318059169E+02 0.  0.
          5    1    5    5  501    0 -0.10101699987E+03 -0.45365864111E+02  0.10540916305E+02  0.11133596367E+03  0.47000000000E+01 0. -1.
        -13    1    6    6    0    0 -0.24571164405E+02  0.41764883312E+02  0.35981102643E+02  0.60354679567E+02  0.00000000000E+00 0.  1.
         14    1    6    6    0    0  0.76939874370E+00  0.13761727020E+02 -0.38594993541E+02  0.40982320961E+02  0.00000000000E+00 0. -1.
         -5    1    3    3    0  503  0.15124028522E+02 -0.58980265996E+02 -0.10734612203E+03  0.12350177299E+03  0.47000000000E+01 0.  1.
         13    1    4    4    0    0  0.18154875230E+02  0.46374753761E+02 -0.11143245001E+03  0.12205493925E+03  0.00000000000E+00 0. -1.
        -14    1    4    4    0    0  0.91539861780E+02  0.24447660145E+01 -0.19969988863E+03  0.21969426186E+03  0.00000000000E+00 0.  1.
</event>
<event>
12    1  0.8421768E-002  0.3273641E+03  0.7818608E-02  0.1072369E+00
         21   -1    0    0  503  502  0.00000000000E+00  0.00000000000E+00  0.15751344984E+04  0.15751344984E+04  0.00000000000E+00 0.  1.
         21   -1    0    0  501  503 -0.00000000000E+00 -0.00000000000E+00 -0.74195735952E+02  0.74195735952E+02  0.00000000000E+00 0. -1.
          6    2    1    2  501    0  0.11678658288E+03 -0.25273341495E+03  0.51015987444E+03  0.60586962579E+03  0.17117716259E+03 0.  0.
         24    2    3    3    0    0  0.14240908412E+02 -0.91142109281E+02  0.28072278859E+03  0.30705391037E+03  0.83469349350E+02 0.  0.
         -6    2    1    2    0  502 -0.11678658288E+03  0.25273341495E+03  0.99077888805E+03  0.10434606086E+04  0.17220322800E+03 0.  0.
        -24    2    5    5    0    0 -0.62064193633E+02  0.15461582978E+03  0.38077823410E+03  0.42318285774E+03  0.79584223111E+02 0.  0.
          5    1    3    3  501    0  0.10254567446E+03 -0.16159130567E+03  0.22943708585E+03  0.29881571542E+03  0.47000000000E+01 0. -1.
        -11    1    4    4    0    0 -0.71471384464E+00 -0.52969903570E+02  0.50429917503E+02  0.73140263053E+02  0.00000000000E+00 0.  1.
         12    1    4    4    0    0  0.14955622256E+02 -0.38172205712E+02  0.23029287109E+03  0.23391364732E+03  0.00000000000E+00 0. -1.
         -5    1    5    5    0  502 -0.54722389243E+02  0.98117585175E+02  0.61000065394E+03  0.62027775086E+03  0.47000000000E+01 0.  1.
         11    1    6    6    0    0 -0.17440251237E+01  0.66285045908E+02  0.79742481307E+02  0.10370926796E+03  0.00000000000E+00 0. -1.
        -12    1    6    6    0    0 -0.60320168510E+02  0.88330783868E+02  0.30103575280E+03  0.31947358978E+03  0.00000000000E+00 0.  1.
</event>
<event>
12    1  0.8421768E-002  0.2035044E+03  0.7818608E-02  0.1147085E+00
         21   -1    0    0  503  502  0.00000000000E+00  0.00000000000E+00  0.92535164913E+02  0.92535164913E+02  0.00000000000E+00 0. -1.
         21   -1    0    0  501  503 -0.00000000000E+00 -0.00000000000E+00 -0.45800173825E+03  0.45800173825E+03  0.00000000000E+00 0.  1.
          6    2    1    2  501    0 -0.78124076344E+02 -0.74790980141E+02 -0.23022050868E+03  0.30727107155E+03  0.17238609798E+03 0.  0.
         24    2    3    3    0    0  0.54669862964E+00 -0.70660567425E+02 -0.62741527018E+02  0.12212936786E+03  0.77368395439E+02 0.  0.
         -6    2    1    2    0  502  0.78124076344E+02  0.74790980141E+02 -0.13524606465E+03  0.24326583161E+03  0.17084994824E+03 0.  0.
        -24    2    5    5    0    0  0.99741821324E+02  0.67080661944E+02 -0.44127253492E+02  0.14918340153E+03  0.76552117294E+02 0.  0.
          5    1    3    3  501    0 -0.78670774974E+02 -0.41304127159E+01 -0.16747898167E+03  0.18514170369E+03  0.47000000000E+01 0. -1.
        -13    1    4    4    0    0 -0.13929461732E+02 -0.62582555980E+02 -0.77046179531E+02  0.10023332778E+03  0.00000000000E+00 0.  1.
         14    1    4    4    0    0  0.14476160361E+02 -0.80780114447E+01  0.14304652513E+02  0.21896040081E+02  0.00000000000E+00 0. -1.
         -5    1    5    5    0  502 -0.21617744980E+02  0.77103181968E+01 -0.91118811156E+02  0.94082430088E+02  0.47000000000E+01 0.  1.
         11    1    6    6    0    0  0.83343694236E+02  0.35660664802E+02 -0.61667195502E+02  0.10963894100E+03  0.00000000000E+00 0. -1.
        -12    1    6    6    0    0  0.16398127089E+02  0.31419997142E+02  0.17539942010E+02  0.39544460524E+02  0.00000000000E+00 0.  1.
</event>
<event>
12    1  0.8421768E-002  0.2259985E+03  0.7818608E-02  0.1129732E+00
         21   -1    0    0  501  502  0.00000000000E+00  0.00000000000E+00  0.52019622432E+02  0.52019622432E+02  0.00000000000E+00 0.  1.
         21   -1    0    0  502  503 -0.00000000000E+00 -0.00000000000E+00 -0.18200735035E+04  0.18200735035E+04  0.00000000000E+00 0.  1.
         -6    2    1    2    0  503 -0.50614472640E+02  0.13588974538E+03 -0.15228944161E+04  0.15395722501E+04  0.17334204101E+03 0.  0.
        -24    2    3    3    0    0 -0.26667268666E+02  0.83456544239E+01 -0.37698576080E+03  0.38632912749E+03  0.79694025750E+02 0.  0.
          6    2    1    2  501    0  0.50614472640E+02 -0.13588974538E+03 -0.24515946505E+03  0.33252087583E+03  0.17157832562E+03 0.  0.
         24    2    5    5    0    0  0.88142479467E+02 -0.11657668598E+03 -0.13611543647E+03  0.21549935761E+03  0.80952706462E+02 0.  0.
          5    1    5    5  501    0 -0.37528006827E+02 -0.19313059394E+02 -0.10904402857E+03  0.11702151822E+03  0.47000000000E+01 0. -1.
        -13    1    6    6    0    0  0.57036506632E+02 -0.12241034210E+03 -0.10440695147E+03  0.17069934521E+03  0.00000000000E+00 0.  1.
         14    1    6    6    0    0  0.31105972835E+02  0.58336561136E+01 -0.31708485005E+02  0.44800012399E+02  0.00000000000E+00 0. -1.
         -5    1    3    3    0  503 -0.23947203974E+02  0.12754409095E+03 -0.11459086553E+04  0.11532431226E+04  0.47000000000E+01 0.  1.
         13    1    4    4    0    0  0.26827518787E+02  0.82262284852E+00 -0.77651255402E+02  0.82159052685E+02  0.00000000000E+00 0. -1.
        -14    1    4    4    0    0 -0.53494787453E+02  0.75230315754E+01 -0.29933450539E+03  0.30417007481E+03  0.00000000000E+00 0.  1.
</event>
<event>
12    1  0.8421768E-002  0.1878470E+03  0.7818608E-02  0.1160646E+00
         21   -1    0    0  501  502  0.00000000000E+00  0.00000000000E+00  0.64263242062E+03  0.64263242062E+03  0.00000000000E+00 0.  1.
         21   -1    0    0  502  503 -0.00000000000E+00 -0.00000000000E+00 -0.18281271399E+03  0.18281271399E+03  0.00000000000E+00 0. -1.
         -6    2    1    2    0  503 -0.66424160293E+02 -0.34872823915E+02 -0.11551964445E+03  0.22052499184E+03  0.17221556507E+03 0.  0.
        -24    2    3    3    0    0 -0.17454766585E+02 -0.54032609445E+02 -0.13166137434E+03  0.16531861226E+03  0.82288117666E+02 0.  0.
          6    2    1    2  501    0  0.66424160293E+02  0.34872823915E+02  0.57533935108E+03  0.60492014277E+03  0.17112780988E+03 0.  0.
         24    2    5    5    0    0 -0.16752165962E+02 -0.23702694086E+02  0.25151920679E+03  0.26546327010E+03  0.79789620983E+02 0.  0.
          5    1    5    5  501    0  0.83176326255E+02  0.58575518001E+02  0.32382014429E+03  0.33945687268E+03  0.47000000000E+01 0. -1.
        -13    1    6    6    0    0 -0.85876812623E+00 -0.34836813801E+02  0.24077179573E+03  0.24328049387E+03  0.00000000000E+00 0.  1.
         14    1    6    6    0    0 -0.15893397836E+02  0.11134119715E+02  0.10747411050E+02  0.22182776221E+02  0.00000000000E+00 0. -1.
         -5    1    3    3    0  503 -0.48969393708E+02  0.19159785530E+02  0.16141729884E+02  0.55206379571E+02  0.47000000000E+01 0.  1.
         13    1    4    4    0    0  0.10552173055E+02  0.93118378878E+00 -0.90593504971E+02  0.91210737319E+02  0.00000000000E+00 0. -1.
        -14    1    4    4    0    0 -0.28006939640E+02 -0.54963793234E+02 -0.41067869366E+02  0.74107874945E+02  0.00000000000E+00 0.  1.
</event>
<event>
12    1  0.8421768E-002  0.2066521E+03  0.7818608E-02  0.1144421E+00
         21   -1    0    0  501  502  0.00000000000E+00  0.00000000000E+00  0.72973179409E+02  0.72973179409E+02  0.00000000000E+00 0. -1.
         21   -1    0    0  502  503 -0.00000000000E+00 -0.00000000000E+00 -0.68167299169E+03  0.68167299169E+03  0.00000000000E+00 0.  1.
         -6    2    1    2    0  503 -0.11037284938E+03 -0.27324729848E+02 -0.44753499469E+03  0.49257899755E+03  0.17151586111E+03 0.  0.
        -24    2    3    3    0    0 -0.41395471085E+02 -0.78800763499E+02 -0.27203081622E+03  0.29705031060E+03  0.79466827687E+02 0.  0.
          6    2    1    2  501    0  0.11037284938E+03  0.27324729848E+02 -0.16116481759E+03  0.26206717355E+03  0.17255810117E+03 0.  0.
         24    2    5    5    0    0  0.10274868450E+03  0.73275730276E+02 -0.84155291457E+02  0.17194403864E+03  0.80969219650E+02 0.  0.
          5    1    5    5  501    0  0.76241648884E+01 -0.45951000427E+02 -0.77009526129E+02  0.90123134905E+02  0.47000000000E+01 0. -1.
        -11    1    6    6    0    0  0.15164552061E+02  0.48284916961E+02 -0.58429696020E+02  0.77300881121E+02  0.00000000000E+00 0.  1.
         12    1    6    6    0    0  0.87584132436E+02  0.24990813315E+02 -0.25725595436E+02  0.94643157519E+02  0.00000000000E+00 0. -1.
         -5    1    3    3    0  503 -0.68977378300E+02  0.51476033650E+02 -0.17550417848E+03  0.19552868695E+03  0.47000000000E+01 0.  1.
         13    1    4    4    0    0 -0.64432602212E+02 -0.64379395696E+02 -0.22490156174E+03  0.24264578977E+03  0.00000000000E+00 0. -1.
        -14    1    4    4    0    0  0.23037131127E+02 -0.14421367803E+02 -0.47129254477E+02  0.54404520836E+02  0.00000000000E+00 0.  1.
</event>
<event>
12    1  0.8421768E-002  0.2265388E+03  0.7818608E-02  0.1129129E+00
         21   -1    0    0  503  502  0.00000000000E+00  0.00000000000E+00  0.99611020559E+02  0.99611020559E+02  0.00000000000E+00 0. -1.
         21   -1    0    0  501  503 -0.00000000000E+00 -0.00000000000E+00 -0.82365702847E+03  0.82365702847E+03  0.00000000000E+00 0. -1.
          6    2    1    2  501    0  0.14672777238E+03 -0.88946611800E+01 -0.64461303407E+03  0.68320672337E+03  0.17215489822E+03 0.  0.
         24    2    3    3    0    0  0.68040169432E+02 -0.53384625877E+02 -0.24622841741E+03  0.27466848941E+03  0.85644396186E+02 0.  0.
         -6    2    1    2    0  502 -0.14672777238E+03  0.88946611800E+01 -0.79432973846E+02  0.24006132566E+03  0.17237078802E+03 0.  0.
        -24    2    5    5    0    0 -0.11754099679E+03  0.18600815182E+02 -0.12136153778E+03  0.18784857082E+03  0.79978662515E+02 0.  0.
          5    1    3    3  501    0  0.78687602944E+02  0.44489964697E+02 -0.39838461666E+03  0.40853823396E+03  0.47000000000E+01 0. -1.
        -13    1    4    4    0    0  0.34461220091E+02  0.10860090085E+02 -0.31161781576E+02  0.47713455941E+02  0.00000000000E+00 0.  1.
         14    1    4    4    0    0  0.33578949341E+02 -0.64244715963E+02 -0.21506663583E+03  0.22695503347E+03  0.00000000000E+00 0. -1.
         -5    1    5    5    0  502 -0.29186775589E+02 -0.97061540015E+01  0.41928563930E+02  0.52212754840E+02  0.47000000000E+01 0.  1.
         13    1    6    6    0    0 -0.77300904888E+02  0.70623072079E+01 -0.23014292249E+02  0.80962730483E+02  0.00000000000E+00 0. -1.
        -14    1    6    6    0    0 -0.40240091899E+02  0.11538507974E+02 -0.98347245527E+02  0.10688584034E+03  0.00000000000E+00 0.  1.
</event>
<event>
12    1  0.8421768E-002  0.2017615E+03  0.7818608E-02  0.1148490E+00
         21   -1    0    0  503  502  0.00000000000E+00  0.00000000000E+00  0.16887447855E+03  0.16887447855E+03  0.00000000000E+00 0. -1.
         21   -1    0    0  501  503 -0.00000000000E+00 -0.00000000000E+00 -0.25053130959E+03  0.25053130959E+03  0.00000000000E+00 0. -1.
          6    2    1    2  501    0 -0.46060016950E+02 -0.94979723307E+02 -0.84228268143E+02  0.21762786860E+03  0.17065993975E+03 0.  0.
         24    2    3    3    0    0  0.15110029916E+02 -0.80296645640E+02 -0.24643538775E+01  0.11435737388E+03  0.79972943022E+02 0.  0.
         -6    2    1    2    0  502  0.46060016950E+02  0.94979723307E+02  0.25714370966E+01  0.20177791954E+03  0.17194488514E+03 0.  0.
        -24    2    5    5    0    0  0.98241778043E+02  0.63015979283E+02 -0.12437262693E+02  0.13859589526E+03  0.73699905576E+02 0.  0.
          5    1    3    3  501    0 -0.61170046866E+02 -0.14683077667E+02 -0.81763914266E+02  0.10327049472E+03  0.47000000000E+01 0. -1.
        -11    1    4    4    0    0  0.92255342032E+01 -0.11170601952E+01  0.27857403936E+02  0.29366532974E+02  0.00000000000E+00 0.  1.
         12    1    4    4    0    0  0.58844957127E+01 -0.79179585445E+02 -0.30321757814E+02  0.84990840906E+02  0.00000000000E+00 0. -1.
         -5    1    5    5    0  502 -0.52181761093E+02  0.31963744024E+02  0.15008699790E+02  0.63182024281E+02  0.47000000000E+01 0.  1.
         13    1    6    6    0    0  0.27946000793E+02  0.60369553453E+02  0.29405766150E+01  0.66589105230E+02  0.00000000000E+00 0. -1.
        -14    1    6    6    0    0  0.70295777250E+02  0.26464258299E+01 -0.15377839308E+02  0.72006790031E+02  0.00000000000E+00 0.  1.
</event>
<event>
12    1  0.8421768E-002  0.1920794E+03  0.7818608E-02  0.1156724E+00
         21   -1    0    0  503  502  0.00000000000E+00  0.00000000000E+00  0.33938265268E+03  0.33938265268E+03  0.00000000000E+00 0. -1.
         21   -1    0    0  501  503 -0.00000000000E+00 -0.00000000000E+00 -0.12892091436E+03  0.12892091436E+03  0.00000000000E+00 0. -1.
          6    2    1    2  501    0  0.67666571202E+02 -0.52025620027E+02  0.11667249907E+02  0.19187318295E+03  0.17144609537E+03 0.  0.
         24    2    3    3    0    0 -0.10774791572E+02 -0.50265766798E+02 -0.32489374280E+02  0.10171752901E+03  0.81536205589E+02 0.  0.
         -6    2    1    2    0  502 -0.67666571202E+02  0.52025620027E+02  0.19879448842E+03  0.27643038409E+03  0.17207288755E+03 0.  0.
        -24    2    5    5    0    0 -0.18306840184E+02  0.46235576280E+02  0.20527740498E+03  0.22609127544E+03  0.80657193887E+02 0.  0.
          5    1    3    3  501    0  0.78441362774E+02 -0.17598532298E+01  0.44156624187E+02  0.90155653937E+02  0.47000000000E+01 0. -1.
        -11    1    4    4    0    0 -0.22154915948E+02  0.34289547404E+01  0.16746458568E+02  0.27982885945E+02  0.00000000000E+00 0.  1.
         12    1    4    4    0    0  0.11380124375E+02 -0.53694721538E+02 -0.49235832847E+02  0.73734643066E+02  0.00000000000E+00 0. -1.
         -5    1    5    5    0  502 -0.49359731018E+02  0.57900437472E+01 -0.64829165596E+01  0.50339108652E+02  0.47000000000E+01 0.  1.
         11    1    6    6    0    0 -0.38365691648E+02  0.50537026889E+02  0.19055310079E+03  0.20083924318E+03  0.00000000000E+00 0. -1.
        -12    1    6    6    0    0  0.20058851464E+02 -0.43014506083E+01  0.14724304189E+02  0.25252032260E+02  0.00000000000E+00 0.  1.
</event>
<event>
12    1  0.8421768E-002  0.1937114E+03  0.7818608E-02  0.1155255E+00
         21   -1    0    0  503  502  0.00000000000E+00  0.00000000000E+00  0.20423425122E+03  0.20423425122E+03  0.00000000000E+00 0. -1.
         21   -1    0    0  501  503 -0.00000000000E+00 -0.00000000000E+00 -0.18667749080E+03  0.18667749080E+03  0.00000000000E+00 0. -1.
          6    2    1    2  501    0 -0.58126486630E+02 -0.66644314901E+02 -0.17492468296E+02  0.19449956909E+03  0.17234831817E+03 0.  0.
         24    2    3    3    0    0 -0.81578579984E+02 -0.41900532753E+01  0.20901361034E+02  0.11738464441E+03  0.81668026745E+02 0.  0.
         -6    2    1    2    0  502  0.58126486630E+02  0.66644314901E+02  0.35049228715E+02  0.19641217293E+03  0.17184044950E+03 0.  0.
        -24    2    5    5    0    0 -0.11141043639E+01  0.37066855318E+02  0.77805699868E+02  0.11745345231E+03  0.79789683137E+02 0.  0.
          5    1    3    3  501    0  0.23452093354E+02 -0.62454261626E+02 -0.38393829330E+02  0.77114924681E+02  0.47000000000E+01 0. -1.
        -11    1    4    4    0    0  0.11706620731E+02  0.52593224760E+01 -0.12437166652E+02  0.17871445274E+02  0.00000000000E+00 0.  1.
         12    1    4    4    0    0 -0.93285200716E+02 -0.94493757513E+01  0.33338527687E+02  0.99513199140E+02  0.00000000000E+00 0. -1.
         -5    1    5    5    0  502  0.59240590994E+02  0.29577459583E+02 -0.42756471153E+02  0.78958720622E+02  0.47000000000E+01 0.  1.
         13    1    6    6    0    0  0.27510856109E+02  0.35558216246E+02  0.13329513143E+02  0.46892535302E+02  0.00000000000E+00 0. -1.
        -14    1    6    6    0    0 -0.28624960473E+02  0.15086390717E+01  0.64476186725E+02  0.70560917004E+02  0.00000000000E+00 0.  1.
</event>
<event>
12    1  0.8421768E-002  0.3967099E+03  0.7818608E-02  0.1045621E+00
         21   -1    0    0  503  502  0.00000000000E+00  0.00000000000E+00  0.15656978973E+04  0.15656978973E+04  0.00000000000E+00 0.  1.
         21   -1    0    0  501  503 -0.00000000000E+00 -0.00000000000E+00 -0.10156456945E+03  0.10156456945E+03  0.00000000000E+00 0.  1.
          6    2    1    2  501    0 -0.19240117287E+03 -0.29347971400E+03  0.58087974237E+03  0.69900854746E+03  0.16746080279E+03 0.  0.
         24    2    3    3    0    0 -0.17382173264E+03 -0.29337346462E+03  0.45936221171E+03  0.57598900777E+03  0.66840938343E+02 0.  0.
         -6    2    1    2    0  502  0.19240117287E+03  0.29347971400E+03  0.88325358552E+03  0.96825391933E+03  0.18501405925E+03 0.  0.
        -24    2    5    5    0    0  0.15414976600E+03  0.11803362605E+03  0.56909746964E+03  0.60636905498E+03  0.78213896778E+02 0.  0.
          5    1    3    3  501    0 -0.18579440231E+02 -0.10624937961E+00  0.12151753066E+03  0.12301953969E+03  0.47000000000E+01 0. -1.
        -13    1    4    4    0    0 -0.11662770151E+03 -0.24548814964E+03  0.37856856055E+03  0.46602640205E+03  0.00000000000E+00 0.  1.
         14    1    4    4    0    0 -0.57194031129E+02 -0.47885314985E+02  0.80793651164E+02  0.10996260572E+03  0.00000000000E+00 0. -1.
         -5    1    5    5    0  502  0.38251406869E+02  0.17544608795E+03  0.31415611588E+03  0.36188486436E+03  0.47000000000E+01 0.  1.
         11    1    6    6    0    0  0.57932550708E+02  0.37638504179E+02  0.10543959736E+03  0.12605691619E+03  0.00000000000E+00 0. -1.
        -12    1    6    6    0    0  0.96217215290E+02  0.80395121873E+02  0.46365787227E+03  0.48031213878E+03  0.00000000000E+00 0.  1.
</event>
<event>
12    1  0.8421768E-002  0.1886210E+03  0.7818608E-02  0.1159851E+00
         21   -1    0    0  501  502  0.00000000000E+00  0.00000000000E+00  0.65436780095E+02  0.65436780095E+02  0.00000000000E+00 0. -1.
         21   -1    0    0  502  503 -0.00000000000E+00 -0.00000000000E+00 -0.54717838741E+03  0.54717838741E+03  0.00000000000E+00 0. -1.
         -6    2    1    2    0  503  0.59278774372E+02 -0.46545546309E+02 -0.27125803145E+03  0.33039186969E+03  0.17290866651E+03 0.  0.
        -24    2    3    3    0    0  0.10198824721E+03 -0.57429618464E+02 -0.22662706153E+03  0.26749055354E+03  0.80570513045E+02 0.  0.
          6    2    1    2  501    0 -0.59278774372E+02  0.46545546309E+02 -0.21048357586E+03  0.28222329781E+03  0.17223876785E+03 0.  0.
         24    2    5    5    0    0 -0.88122837698E+02  0.48450919390E+02 -0.92780327020E+02  0.16093127325E+03  0.84720478716E+02 0.  0.
          5    1    5    5  501    0  0.28844063326E+02 -0.19053730817E+01 -0.11770324884E+03  0.12129202456E+03  0.47000000000E+01 0. -1.
        -11    1    6    6    0    0  0.12037169947E+02  0.22166917833E+02 -0.32402401639E+02  0.41063138439E+02  0.00000000000E+00 0.  1.
         12    1    6    6    0    0 -0.10016000765E+03  0.26284001558E+02 -0.60377925382E+02  0.11986813481E+03  0.00000000000E+00 0. -1.
         -5    1    3    3    0  503 -0.42709472834E+02  0.10884072155E+02 -0.44630969926E+02  0.62901316146E+02  0.47000000000E+01 0.  1.
         11    1    4    4    0    0  0.64297167835E+02 -0.17771702455E+02 -0.19071655249E+03  0.20204643673E+03  0.00000000000E+00 0. -1.
        -12    1    4    4    0    0  0.37691079371E+02 -0.39657916009E+02 -0.35910509034E+02  0.65444116813E+02  0.00000000000E+00 0.  1.
</event>
