<event>
12    1  0.8196217E-002  0.2530907E+03  0.7818608E-02  0.1112975E+00
         21   -1    0    0  503  502  0.00000000000E+00  0.00000000000E+00  0.25524269708E+03  0.25524269708E+03  0.00000000000E+00 0.  1.
         21   -1    0    0  501  503 -0.00000000000E+00 -0.00000000000E+00 -0.24566442162E+03  0.24566442162E+03  0.00000000000E+00 0. -1.
          6    2    1    2  501    0  0.71290960940E+02 -0.17069758019E+03 -0.29716399958E+02  0.24478414129E+03  0.15753141402E+03 0.  0.
         24    2    3    3    0    0  0.86056797740E+02 -0.18683200666E+03 -0.25555164848E+02  0.22202989923E+03  0.79575363966E+02 0.  0.
         -6    2    1    2    0  502 -0.71290960940E+02  0.17069758019E+03  0.39294675412E+02  0.25612297741E+03  0.17272765571E+03 0.  0.
        -24    2    5    5    0    0 -0.51278421422E+02  0.19418458104E+03  0.15592858837E+02  0.21693105151E+03  0.80491091701E+02 0.  0.
          5    1    3    3  501    0 -0.14765836800E+02  0.16134426471E+02 -0.41612351107E+01  0.22754242058E+02  0.47000000000E+01 0. -1.
        -13    1    4    4    0    0  0.39051812287E+02 -0.38888381216E+02  0.22503360261E+02  0.59529416758E+02  0.00000000000E+00 0.  1.
         14    1    4    4    0    0  0.47004985453E+02 -0.14794362545E+03 -0.48058525109E+02  0.16250048247E+03  0.00000000000E+00 0. -1.
         -5    1    5    5    0  502 -0.20012539518E+02 -0.23487000850E+02  0.23701816575E+02  0.39191925901E+02  0.47000000000E+01 0.  1.
         13    1    6    6    0    0 -0.43563071253E+02  0.46907205136E+02  0.25979049992E+02  0.69086453875E+02  0.00000000000E+00 0. -1.
        -14    1    6    6    0    0 -0.77153501695E+01  0.14727737591E+03 -0.10386191155E+02  0.14784459763E+03  0.00000000000E+00 0.  1.
</event>
<event>
12    1  0.8196217E-002  0.2144800E+03  0.7818608E-02  0.1138635E+00
         21   -1    0    0  503  502  0.00000000000E+00  0.00000000000E+00  0.86319040110E+03  0.86319040110E+03  0.00000000000E+00 0.  1.
         21   -1    0    0  501  503 -0.00000000000E+00 -0.00000000000E+00 -0.55278026079E+02  0.55278026079E+02  0.00000000000E+00 0.  1.
          6    2    1    2  501    0  0.59803645075E+02 -0.10706321206E+03  0.30490884202E+03  0.37278822008E+03  0.17596206339E+03 0.  0.
         24    2    3    3    0    0  0.10034882756E+03 -0.10242375287E+03  0.19428931992E+03  0.25478735113E+03  0.81288019530E+02 0.  0.
         -6    2    1    2    0  502 -0.59803645075E+02  0.10706321206E+03  0.50300353301E+03  0.54568020710E+03  0.17238134138E+03 0.  0.
        -24    2    5    5    0    0 -0.19586907861E+01  0.23118403546E+02  0.36311292114E+03  0.37252061913E+03  0.79889430658E+02 0.  0.
          5    1    3    3  501    0 -0.40545182484E+02 -0.46394591964E+01  0.11061952209E+03  0.11800086895E+03  0.47000000000E+01 0. -1.
        -13    1    4    4    0    0  0.16929595304E+02 -0.44584742678E+02  0.11960984490E+03  0.12876694248E+03  0.00000000000E+00 0.  1.
         14    1    4    4    0    0  0.83419232255E+02 -0.57839010190E+02  0.74679475018E+02  0.12602040866E+03  0.00000000000E+00 0. -1.
         -5    1    5    5    0  502 -0.57844954289E+02  0.83944808517E+02  0.13989061187E+03  0.17315958796E+03  0.47000000000E+01 0.  1.
         13    1    6    6    0    0  0.28768931277E+02  0.38848517243E+02  0.22792674882E+03  0.23299669853E+03  0.00000000000E+00 0. -1.
        -14    1    6    6    0    0 -0.30727622063E+02 -0.15730113697E+02  0.13518617232E+03  0.13952392061E+03  0.00000000000E+00 0.  1.
</event>
<event>
12    1  0.8196217E-002  0.2057116E+03  0.7818608E-02  0.1148482E+00
         21   -1    0    0  503  502  0.00000000000E+00  0.00000000000E+00  0.15422604447E+03  0.15422604447E+03  0.00000000000E+00 0. -1.
         21   -1    0    0  501  503 -0.00000000000E+00 -0.00000000000E+00 -0.26687573672E+03  0.26687573672E+03  0.00000000000E+00 0. -1.
          6    2    1    2  501    0  0.11422072118E+01 -0.75720181295E+02 -0.10591318966E+02  0.20598407169E+03  0.19126529026E+03 0.  0.
         24    2    3    3    0    0 -0.19614293883E+02  0.28589142773E+02 -0.38868686396E+02  0.95834323915E+02  0.80444908161E+02 0.  0.
         -6    2    1    2    0  502 -0.11422072118E+01  0.75720181295E+02 -0.10205837328E+03  0.21511770950E+03  0.17356516613E+03 0.  0.
        -24    2    5    5    0    0 -0.29592846563E+02  0.11085992447E+03 -0.95584442559E+02  0.16920211075E+03  0.79544385098E+02 0.  0.
          5    1    3    3  501    0  0.20756501095E+02 -0.10430932407E+03  0.28277367430E+02  0.11014974777E+03  0.47000000000E+01 0. -1.
        -13    1    4    4    0    0 -0.30897333309E+02  0.40427136478E+02  0.29136229610E+01  0.50965554722E+02  0.00000000000E+00 0.  1.
         14    1    4    4    0    0  0.11283039425E+02 -0.11837993704E+02 -0.41782309357E+02  0.44868769193E+02  0.00000000000E+00 0. -1.
         -5    1    5    5    0  502  0.28450639351E+02 -0.35139743176E+02 -0.64739307183E+01  0.45915598754E+02  0.47000000000E+01 0.  1.
         13    1    6    6    0    0 -0.42038746384E+02  0.70776251584E+02 -0.23194897548E+02  0.85525068009E+02  0.00000000000E+00 0. -1.
        -14    1    6    6    0    0  0.12445899821E+02  0.40083672888E+02 -0.72389545011E+02  0.83677042738E+02  0.00000000000E+00 0.  1.
</event>
<event>
12    1  0.8196217E-002  0.2746137E+03  0.7818608E-02  0.1098740E+00
         21   -1    0    0  501  502  0.00000000000E+00  0.00000000000E+00  0.71063885082E+03  0.71063885082E+03  0.00000000000E+00 0.  1.
         21   -1    0    0  502  503 -0.00000000000E+00 -0.00000000000E+00 -0.13827927135E+03  0.13827927135E+03  0.00000000000E+00 0. -1.
         -6    2    1    2    0  503 -0.20280344354E+03  0.68570436022E+02  0.81052306149E+02  0.28632522301E+03  0.17199277773E+03 0.  0.
        -24    2    3    3    0    0 -0.11747308900E+03 -0.21436707896E+02  0.75758454372E+02  0.16209692419E+03  0.79225061298E+02 0.  0.
          6    2    1    2  501    0  0.20280344354E+03 -0.68570436022E+02  0.49130727332E+03  0.56259289916E+03  0.17116305666E+03 0.  0.
         24    2    5    5    0    0  0.17495347110E+03 -0.53987098095E+02  0.25324267240E+03  0.32241559191E+03  0.79351364010E+02 0.  0.
          5    1    5    5  501    0  0.27849972439E+02 -0.14583337926E+02  0.23806460092E+03  0.24017730726E+03  0.47000000000E+01 0. -1.
        -11    1    6    6    0    0  0.26874748188E+02 -0.71653389395E+01  0.10166470636E+03  0.10540069588E+03  0.00000000000E+00 0.  1.
         12    1    6    6    0    0  0.14807872291E+03 -0.46821759156E+02  0.15157796604E+03  0.21701489603E+03  0.00000000000E+00 0. -1.
         -5    1    3    3    0  503 -0.85330354538E+02  0.90007143918E+02  0.52938517770E+01  0.12422829882E+03  0.47000000000E+01 0.  1.
         11    1    4    4    0    0 -0.31627104392E+02  0.15607702631E+02 -0.84515388234E+01  0.36267101099E+02  0.00000000000E+00 0. -1.
        -12    1    4    4    0    0 -0.85845984606E+02 -0.37044410527E+02  0.84209993195E+02  0.12582982309E+03  0.00000000000E+00 0.  1.
</event>
<event>
12    1  0.8196217E-002  0.2483427E+03  0.7818608E-02  0.1114590E+00
         21   -1    0    0  503  502  0.00000000000E+00  0.00000000000E+00  0.15723844896E+03  0.15723844896E+03  0.00000000000E+00 0. -1.
         21   -1    0    0  501  503 -0.00000000000E+00 -0.00000000000E+00 -0.43222063563E+03  0.43222063563E+03  0.00000000000E+00 0.  1.
          6    2    1    2  501    0 -0.10352072429E+03 -0.14539860612E+03 -0.22931413994E+03  0.33695234380E+03  0.17057142842E+03 0.  0.
         24    2    3    3    0    0 -0.76290714398E+02 -0.17397421203E+03 -0.17950662255E+03  0.27322701540E+03  0.79643423126E+02 0.  0.
         -6    2    1    2    0  502  0.10352072429E+03  0.14539860612E+03 -0.45668046731E+02  0.25250674079E+03  0.17267538513E+03 0.  0.
        -24    2    5    5    0    0  0.28218588198E+02  0.47561329743E+02  0.40532540441E+02  0.10185756031E+03  0.75324013109E+02 0.  0.
          5    1    3    3  501    0 -0.27230009891E+02  0.28575605907E+02 -0.49807517385E+02  0.63725328400E+02  0.47000000000E+01 0. -1.
        -11    1    4    4    0    0 -0.53651647966E+02 -0.35812711393E+02 -0.72282360672E+02  0.96880283294E+02  0.00000000000E+00 0.  1.
         12    1    4    4    0    0 -0.22639066432E+02 -0.13816150064E+03 -0.10722426188E+03  0.17634673210E+03  0.00000000000E+00 0. -1.
         -5    1    5    5    0  502  0.75302136091E+02  0.97837276381E+02 -0.86200587172E+02  0.15064918048E+03  0.47000000000E+01 0.  1.
         11    1    6    6    0    0  0.54151802104E+02  0.33600252943E+02  0.24119444709E+02  0.68140606704E+02  0.00000000000E+00 0. -1.
        -12    1    6    6    0    0 -0.25933213906E+02  0.13961076800E+02  0.16413095732E+02  0.33716953605E+02  0.00000000000E+00 0.  1.
</event>
<event>
12    1  0.8196217E-002  0.3254693E+03  0.7818608E-02  0.1073330E+00
         21   -1    0    0  501  502  0.00000000000E+00  0.00000000000E+00  0.68945746868E+03  0.68945746868E+03  0.00000000000E+00 0. -1.
         21   -1    0    0  502  503 -0.00000000000E+00 -0.00000000000E+00 -0.23153977720E+03  0.23153977720E+03  0.00000000000E+00 0.  1.
         -6    2    1    2    0  503 -0.27481289554E+03  0.12916066435E+02  0.49762675718E+03  0.59461133551E+03  0.17390025453E+03 0.  0.
        -24    2    3    3    0    0 -0.27836024662E+03  0.40301159571E+02  0.47884591854E+03  0.56088690926E+03  0.78689903539E+02 0.  0.
          6    2    1    2  501    0  0.27481289554E+03 -0.12916066435E+02 -0.39709065700E+02  0.32638591038E+03  0.17106139327E+03 0.  0.
         24    2    5    5    0    0  0.28201068706E+03 -0.34394626972E+02 -0.53044128447E+02  0.29968290186E+03  0.79266286189E+02 0.  0.
          5    1    5    5  501    0 -0.71977915161E+01  0.21478560537E+02  0.13335062747E+02  0.26703008518E+02  0.47000000000E+01 0. -1.
        -11    1    6    6    0    0  0.12857559344E+03  0.22095832890E+02 -0.35731197138E+02  0.13526502692E+03  0.00000000000E+00 0.  1.
         12    1    6    6    0    0  0.15343509362E+03 -0.56490459862E+02 -0.17312931310E+02  0.16441787494E+03  0.00000000000E+00 0. -1.
         -5    1    3    3    0  503  0.35473510738E+01 -0.27385093136E+02  0.18780838641E+02  0.33724426248E+02  0.47000000000E+01 0.  1.
         11    1    4    4    0    0 -0.14509765662E+03  0.34709476154E+02  0.32277385176E+03  0.35558548490E+03  0.00000000000E+00 0. -1.
        -12    1    4    4    0    0 -0.13326258999E+03  0.55916834174E+01  0.15607206678E+03  0.20530142436E+03  0.00000000000E+00 0.  1.
</event>
<event>
12    1  0.8196217E-002  0.1732826E+03  0.7818608E-02  0.1176530E+00
         21   -1    0    0  503  502  0.00000000000E+00  0.00000000000E+00  0.61149613471E+03  0.61149613471E+03  0.00000000000E+00 0.  1.
         21   -1    0    0  501  503 -0.00000000000E+00 -0.00000000000E+00 -0.47205403572E+02  0.47205403572E+02  0.00000000000E+00 0.  1.
          6    2    1    2  501    0  0.13057387431E+02 -0.11703938052E+02  0.31572068737E+03  0.36014777255E+03  0.17239312081E+03 0.  0.
         24    2    3    3    0    0 -0.54631330512E+02 -0.29972992691E+02  0.16254191238E+03  0.19162077767E+03  0.80097981191E+02 0.  0.
         -6    2    1    2    0  502 -0.13057387431E+02  0.11703938052E+02  0.24857004377E+03  0.29855376573E+03  0.16443785101E+03 0.  0.
        -24    2    5    5    0    0  0.22541694880E+02  0.56428753607E+02  0.12100792217E+03  0.15869030140E+03  0.82748790265E+02 0.  0.
          5    1    3    3  501    0  0.67688717942E+02  0.18269054639E+02  0.15317877499E+03  0.16852699488E+03  0.47000000000E+01 0. -1.
        -13    1    4    4    0    0 -0.23484991581E+02 -0.29260535935E+02  0.15512188159E+03  0.15959486816E+03  0.00000000000E+00 0.  1.
         14    1    4    4    0    0 -0.31146338931E+02 -0.71245675592E+00  0.74200307883E+01  0.32025909516E+02  0.00000000000E+00 0. -1.
         -5    1    5    5    0  502 -0.35599082311E+02 -0.44724815556E+02  0.12756212160E+03  0.13986346433E+03  0.47000000000E+01 0.  1.
         11    1    6    6    0    0  0.16422881086E+02 -0.18809992243E+02  0.45612131608E+02  0.51999936358E+02  0.00000000000E+00 0. -1.
        -12    1    6    6    0    0  0.61188137938E+01  0.75238745851E+02  0.75395790558E+02  0.10669036504E+03  0.00000000000E+00 0.  1.
</event>
<event>
12    1  0.8196217E-002  0.2499666E+03  0.7818608E-02  0.1113357E+00
         21   -1    0    0  501  502  0.00000000000E+00  0.00000000000E+00  0.11829233406E+03  0.11829233406E+03  0.00000000000E+00 0. -1.
         21   -1    0    0  502  503 -0.00000000000E+00 -0.00000000000E+00 -0.56492212368E+03  0.56492212368E+03  0.00000000000E+00 0. -1.
         -6    2    1    2    0  503 -0.15092977567E+02  0.18026747090E+03 -0.13566596021E+03  0.28423852010E+03  0.17222695641E+03 0.  0.
        -24    2    3    3    0    0  0.23864285862E+02  0.77514561300E+02  0.38526256896E+01  0.10657773485E+03  0.69035928968E+02 0.  0.
          6    2    1    2  501    0  0.15092977567E+02 -0.18026747090E+03 -0.31096382941E+03  0.39897593763E+03  0.17250836667E+03 0.  0.
         24    2    5    5    0    0 -0.14199289129E+01 -0.20256789579E+03 -0.29368350898E+03  0.36595042469E+03  0.81449010318E+02 0.  0.
          5    1    5    5  501    0  0.16512906480E+02  0.22300424890E+02 -0.17280320429E+02  0.33025512938E+02  0.47000000000E+01 0. -1.
        -11    1    6    6    0    0 -0.26692349879E+02 -0.53505428110E+02 -0.44687987285E+02  0.74648031367E+02  0.00000000000E+00 0.  1.
         12    1    6    6    0    0  0.25272420967E+02 -0.14906246768E+03 -0.24899552170E+03  0.29130239333E+03  0.00000000000E+00 0. -1.
         -5    1    3    3    0  503 -0.38957263429E+02  0.10275290960E+03 -0.13951858590E+03  0.17766078525E+03  0.47000000000E+01 0.  1.
         13    1    4    4    0    0  0.18540965142E+02  0.90541492553E+02  0.39502038218E+01  0.92504774863E+02  0.00000000000E+00 0. -1.
        -14    1    4    4    0    0  0.53233207199E+01 -0.13026931254E+02 -0.97578132282E-01  0.14072959990E+02  0.00000000000E+00 0.  1.
</event>
<event>
12    1  0.8196217E-002  0.3489660E+03  0.7818608E-02  0.1063077E+00
         21   -1    0    0  503  502  0.00000000000E+00  0.00000000000E+00  0.18731634977E+04  0.18731634977E+04  0.00000000000E+00 0. -1.
         21   -1    0    0  501  503 -0.00000000000E+00 -0.00000000000E+00 -0.10999278839E+03  0.10999278839E+03  0.00000000000E+00 0.  1.
          6    2    1    2  501    0 -0.46655939943E+02  0.30006409305E+03  0.15164326782E+04  0.15560672589E+04  0.17193606376E+03 0.  0.
         24    2    3    3    0    0 -0.16833872524E+02  0.73328932149E+02  0.68487931380E+03  0.69362811510E+03  0.79998600241E+02 0.  0.
         -6    2    1    2    0  502  0.46655939943E+02 -0.30006409305E+03  0.24673803112E+03  0.42708902720E+03  0.17120205749E+03 0.  0.
        -24    2    5    5    0    0 -0.13485096057E+02 -0.23797280701E+03  0.13377353941E+03  0.28476777651E+03  0.79902578167E+02 0.  0.
          5    1    3    3  501    0 -0.29822067419E+02  0.22673516090E+03  0.83155336437E+03  0.86243914376E+03  0.47000000000E+01 0. -1.
        -13    1    4    4    0    0  0.29404781006E+02  0.16418620412E+02  0.14922200372E+03  0.15297522230E+03  0.00000000000E+00 0.  1.
         14    1    4    4    0    0 -0.46238653530E+02  0.56910311738E+02  0.53565731008E+03  0.54065289281E+03  0.00000000000E+00 0. -1.
         -5    1    5    5    0  502  0.60141036001E+02 -0.62091286031E+02  0.11296449171E+03  0.14232125069E+03  0.47000000000E+01 0.  1.
         11    1    6    6    0    0 -0.22974026956E+02 -0.15474386051E+03  0.12556356609E+03  0.20059829862E+03  0.00000000000E+00 0. -1.
        -12    1    6    6    0    0  0.94889308989E+01 -0.83228946507E+02  0.82099733174E+01  0.84169477889E+02  0.00000000000E+00 0.  1.
</event>
<event>
12    1  0.8196217E-002  0.1756910E+03  0.7818608E-02  0.1172256E+00
         21   -1    0    0  501  502  0.00000000000E+00  0.00000000000E+00  0.48758034957E+02  0.48758034957E+02  0.00000000000E+00 0. -1.
         21   -1    0    0  502  503 -0.00000000000E+00 -0.00000000000E+00 -0.93967440409E+03  0.93967440409E+03  0.00000000000E+00 0. -1.
         -6    2    1    2    0  503  0.29629478183E+02  0.27892403560E+02 -0.72992414847E+03  0.75077067469E+03  0.17091357845E+03 0.  0.
        -24    2    3    3    0    0  0.26214036718E+02 -0.41557650507E+02 -0.54418877668E+03  0.55239050032E+03  0.81114894669E+02 0.  0.
          6    2    1    2  501    0 -0.29629478183E+02 -0.27892403560E+02 -0.16099222066E+03  0.23766176435E+03  0.17002566562E+03 0.  0.
         24    2    5    5    0    0  0.37759966362E+02 -0.47578325643E+02 -0.12033936465E+03  0.15639911939E+03  0.79307059786E+02 0.  0.
          5    1    5    5  501    0 -0.67389444545E+02  0.19685922082E+02 -0.40652856007E+02  0.81262644960E+02  0.47000000000E+01 0. -1.
        -11    1    6    6    0    0  0.14066827030E+02  0.59841399418E+01 -0.88351798745E+02  0.89664518596E+02  0.00000000000E+00 0.  1.
         12    1    6    6    0    0  0.23693139332E+02 -0.53562465585E+02 -0.31987565903E+02  0.66734600795E+02  0.00000000000E+00 0. -1.
         -5    1    3    3    0  503  0.34154414649E+01  0.69450054068E+02 -0.18573537179E+03  0.19838017437E+03  0.47000000000E+01 0.  1.
         11    1    4    4    0    0 -0.71216779436E+01  0.15459344408E+01 -0.36562626882E+03  0.36569888797E+03  0.00000000000E+00 0. -1.
        -12    1    4    4    0    0  0.33335714662E+02 -0.43103584948E+02 -0.17856250786E+03  0.18669161235E+03  0.00000000000E+00 0.  1.
</event>
<event>
12    1  0.8196217E-002  0.1844974E+03  0.7818608E-02  0.1163760E+00
         21   -1    0    0  503  502  0.00000000000E+00  0.00000000000E+00  0.74179030483E+02  0.74179030483E+02  0.00000000000E+00 0.  1.
         21   -1    0    0  501  503 -0.00000000000E+00 -0.00000000000E+00 -0.68253772764E+03  0.68253772764E+03  0.00000000000E+00 0. -1.
          6    2    1    2  501    0  0.61986182356E+02 -0.22445656492E+02 -0.52255095885E+03  0.55416494368E+03  0.17231710860E+03 0.  0.
         24    2    3    3    0    0  0.27492294205E+02 -0.53863907541E+02 -0.16704608315E+03  0.19558058616E+03  0.81793795663E+02 0.  0.
         -6    2    1    2    0  502 -0.61986182356E+02  0.22445656492E+02 -0.85807738308E+02  0.20255181444E+03  0.17122551002E+03 0.  0.
        -24    2    5    5    0    0 -0.52458683793E+02 -0.31085665352E+01 -0.12331741084E+03  0.15593789938E+03  0.79673508483E+02 0.  0.
          5    1    3    3  501    0  0.34493888151E+02  0.31418251049E+02 -0.35550487570E+03  0.35858435753E+03  0.47000000000E+01 0. -1.
        -13    1    4    4    0    0  0.26207064510E+01 -0.23588165043E+02 -0.15162832012E+03  0.15347448353E+03  0.00000000000E+00 0.  1.
         14    1    4    4    0    0  0.24871587754E+02 -0.30275742498E+02 -0.15417763025E+02  0.42106102621E+02  0.00000000000E+00 0. -1.
         -5    1    5    5    0  502 -0.95274985631E+01  0.25554223027E+02  0.37509672536E+02  0.46613915060E+02  0.47000000000E+01 0.  1.
         13    1    6    6    0    0 -0.54227648568E+02  0.90720640209E+01 -0.13055449644E+03  0.14165950994E+03  0.00000000000E+00 0. -1.
        -14    1    6    6    0    0  0.17689647748E+01 -0.12180630556E+02  0.72370855960E+01  0.14278389441E+02  0.00000000000E+00 0.  1.
</event>
<event>
12    1  0.8196217E-002  0.3814731E+03  0.7818608E-02  0.1050431E+00
         21   -1    0    0  501  502  0.00000000000E+00  0.00000000000E+00  0.17142364593E+03  0.17142364593E+03  0.00000000000E+00 0.  1.
         21   -1    0    0  502  503 -0.00000000000E+00 -0.00000000000E+00 -0.10936961195E+04  0.10936961195E+04  0.00000000000E+00 0.  1.
         -6    2    1    2    0  503 -0.26956184432E+02  0.33912460093E+03 -0.16107295271E+03  0.41368189350E+03  0.17162774273E+03 0.  0.
        -24    2    3    3    0    0 -0.31175402896E+02  0.30853813215E+03 -0.18590364327E+03  0.37378218083E+03  0.94790660891E+02 0.  0.
          6    2    1    2  501    0  0.26956184432E+02 -0.33912460093E+03 -0.76119952083E+03  0.85143787190E+03  0.17259666383E+03 0.  0.
         24    2    5    5    0    0  0.55595434552E+02 -0.30177434808E+03 -0.54644352682E+03  0.63153454087E+03  0.77953440006E+02 0.  0.
          5    1    5    5  501    0 -0.28639250121E+02 -0.37350252849E+02 -0.21475599401E+03  0.21990333103E+03  0.47000000000E+01 0. -1.
        -13    1    6    6    0    0  0.47587154051E+02 -0.15392419065E+03 -0.21630933424E+03  0.26971637284E+03  0.00000000000E+00 0.  1.
         14    1    6    6    0    0  0.80082805011E+01 -0.14785015744E+03 -0.33013419258E+03  0.36181816804E+03  0.00000000000E+00 0. -1.
         -5    1    3    3    0  503  0.42192184644E+01  0.30586468787E+02  0.24830690559E+02  0.39899712667E+02  0.47000000000E+01 0.  1.
         13    1    4    4    0    0  0.26047944522E+02  0.92784889453E+02 -0.86261007860E+02  0.12933867404E+03  0.00000000000E+00 0. -1.
        -14    1    4    4    0    0 -0.57223347418E+02  0.21575324269E+03 -0.99642635405E+02  0.24444350679E+03  0.00000000000E+00 0.  1.
</event>
<event>
12    1  0.8196217E-002  0.1795782E+03  0.7818608E-02  0.1168279E+00
         21   -1    0    0  501  502  0.00000000000E+00  0.00000000000E+00  0.80744760537E+02  0.80744760537E+02  0.00000000000E+00 0. -1.
         21   -1    0    0  502  503 -0.00000000000E+00 -0.00000000000E+00 -0.45087501339E+03  0.45087501339E+03  0.00000000000E+00 0. -1.
         -6    2    1    2    0  503 -0.40177554001E+02 -0.31167510080E+02 -0.27554802265E+03  0.32889975336E+03  0.17222858486E+03 0.  0.
        -24    2    3    3    0    0 -0.22094447546E+01  0.37435722811E+02 -0.10957363182E+03  0.14527630907E+03  0.87706956375E+02 0.  0.
          6    2    1    2  501    0  0.40177554001E+02  0.31167510080E+02 -0.94582230199E+02  0.20272002057E+03  0.17194173123E+03 0.  0.
         24    2    5    5    0    0 -0.21919342557E+02  0.28342718179E+02  0.35781937413E+01  0.86437765515E+02  0.78580637468E+02 0.  0.
          5    1    5    5  501    0  0.62096896558E+02  0.28247919014E+01 -0.98160423940E+02  0.11628225505E+03  0.47000000000E+01 0. -1.
        -13    1    6    6    0    0  0.19911324487E+02  0.36266628568E+02  0.11915143355E+02  0.43054614522E+02  0.00000000000E+00 0.  1.
         14    1    6    6    0    0 -0.41830667044E+02 -0.79239103887E+01 -0.83369496139E+01  0.43383150993E+02  0.00000000000E+00 0. -1.
         -5    1    3    3    0  503 -0.37968109246E+02 -0.68603232892E+02 -0.16597439083E+03  0.18362344429E+03  0.47000000000E+01 0.  1.
         11    1    4    4    0    0 -0.43748022591E+02  0.80784095374E+01 -0.49174134217E+02  0.66311730917E+02  0.00000000000E+00 0. -1.
        -12    1    4    4    0    0  0.41538577836E+02  0.29357313274E+02 -0.60399497606E+02  0.78964578150E+02  0.00000000000E+00 0.  1.
</event>
<event>
12    1  0.8196217E-002  0.3057088E+03  0.7818608E-02  0.1083116E+00
         21   -1    0    0  501  502  0.00000000000E+00  0.00000000000E+00  0.46974262357E+03  0.46974262357E+03  0.00000000000E+00 0.  1.
         21   -1    0    0  502  503 -0.00000000000E+00 -0.00000000000E+00 -0.20590669697E+03  0.20590669697E+03  0.00000000000E+00 0. -1.
         -6    2    1    2    0  503  0.17369362994E+03 -0.18442524064E+03  0.54085445734E+02  0.30490261392E+03  0.16080491929E+03 0.  0.
        -24    2    3    3    0    0  0.91121072827E+02 -0.42087611412E+02  0.55799294452E+02  0.14027195104E+03  0.80549624707E+02 0.  0.
          6    2    1    2  501    0 -0.17369362994E+03  0.18442524064E+03  0.20975048087E+03  0.37074670662E+03  0.17110146048E+03 0.  0.
         24    2    5    5    0    0 -0.18293841597E+02  0.29776806404E+02  0.56477317984E+02  0.10320234602E+03  0.78991859943E+02 0.  0.
          5    1    5    5  501    0 -0.15539978834E+03  0.15464843424E+03  0.15327316288E+03  0.26754436060E+03  0.47000000000E+01 0. -1.
        -13    1    6    6    0    0 -0.22746559973E+02  0.53935067643E+02  0.51866357811E+02  0.78208161881E+02  0.00000000000E+00 0.  1.
         14    1    6    6    0    0  0.44527183761E+01 -0.24158261239E+02  0.46109601731E+01  0.24994184138E+02  0.00000000000E+00 0. -1.
         -5    1    3    3    0  503  0.82572557114E+02 -0.14233762923E+03 -0.17138487179E+01  0.16463066288E+03  0.47000000000E+01 0.  1.
         11    1    4    4    0    0  0.76556812836E+02  0.74650097917E+01  0.30312664027E+02  0.82677261464E+02  0.00000000000E+00 0. -1.
        -12    1    4    4    0    0  0.14564259991E+02 -0.49552621204E+02  0.25486630424E+02  0.57594689578E+02  0.00000000000E+00 0.  1.
</event>
<event>
12    1  0.8196217E-002  0.2009849E+03  0.7818608E-02  0.1148935E+00
         21   -1    0    0  503  502  0.00000000000E+00  0.00000000000E+00  0.98362620670E+03  0.98362620670E+03  0.00000000000E+00 0. -1.
         21   -1    0    0  501  503 -0.00000000000E+00 -0.00000000000E+00 -0.47603085939E+02  0.47603085939E+02  0.00000000000E+00 0. -1.
          6    2    1    2  501    0 -0.82701119169E+02  0.63756654689E+02  0.27672815367E+03  0.34201372494E+03  0.17172807249E+03 0.  0.
         24    2    3    3    0    0 -0.31758166727E+02 -0.22500877197E+02  0.18754547119E+03  0.20780796103E+03  0.80597607134E+02 0.  0.
         -6    2    1    2    0  502  0.82701119169E+02 -0.63756654689E+02  0.65929496709E+03  0.68921556770E+03  0.17159212979E+03 0.  0.
        -24    2    5    5    0    0  0.22050231297E+02  0.27511917871E+02  0.35414666425E+03  0.36495323677E+03  0.80795339616E+02 0.  0.
          5    1    3    3  501    0 -0.50942952443E+02  0.86257531886E+02  0.89182682482E+02  0.13420576390E+03  0.47000000000E+01 0. -1.
        -11    1    4    4    0    0 -0.30717255511E+02  0.20090516318E+02  0.13635127141E+03  0.14120498521E+03  0.00000000000E+00 0.  1.
         12    1    4    4    0    0 -0.10409112152E+01 -0.42591393514E+02  0.51194199781E+02  0.66602975826E+02  0.00000000000E+00 0. -1.
         -5    1    5    5    0  502  0.60650887872E+02 -0.91268572560E+02  0.30514830284E+03  0.32426233094E+03  0.47000000000E+01 0.  1.
         13    1    6    6    0    0  0.43793015733E+02 -0.85491219899E+00  0.11335217867E+03  0.12152067936E+03  0.00000000000E+00 0. -1.
        -14    1    6    6    0    0 -0.21742784435E+02  0.28366830070E+02  0.24079448557E+03  0.24343255741E+03  0.00000000000E+00 0.  1.
</event>
<event>
12    1  0.8196217E-002  0.2021396E+03  0.7818608E-02  0.1148096E+00
         21   -1    0    0  503  502  0.00000000000E+00  0.00000000000E+00  0.99150811607E+02  0.99150811607E+02  0.00000000000E+00 0.  1.
         21   -1    0    0  501  503 -0.00000000000E+00 -0.00000000000E+00 -0.59671424169E+03  0.59671424169E+03  0.00000000000E+00 0.  1.
          6    2    1    2  501    0  0.63611784283E+02  0.84569881448E+02 -0.44337790736E+03  0.48728265909E+03  0.17222629638E+03 0.  0.
         24    2    3    3    0    0  0.69083112227E+02  0.10901510738E+03 -0.25080148717E+03  0.29302697162E+03  0.79414419964E+02 0.  0.
         -6    2    1    2    0  502 -0.63611784283E+02 -0.84569881448E+02 -0.54185522720E+02  0.20858239421E+03  0.17138267227E+03 0.  0.
        -24    2    5    5    0    0 -0.10010044348E+03 -0.30157379961E+02 -0.55428051392E+02  0.14288782483E+03  0.80094289762E+02 0.  0.
          5    1    3    3  501    0 -0.54713279440E+01 -0.24445225932E+02 -0.19257642019E+03  0.19425568747E+03  0.47000000000E+01 0. -1.
        -11    1    4    4    0    0  0.58265319174E+02  0.20542693295E+02 -0.11593418457E+03  0.13136812710E+03  0.00000000000E+00 0.  1.
         12    1    4    4    0    0  0.10817793054E+02  0.88472414084E+02 -0.13486730260E+03  0.16165884451E+03  0.00000000000E+00 0. -1.
         -5    1    5    5    0  502  0.36488659197E+02 -0.54412501487E+02  0.12425286716E+01  0.65694569377E+02  0.47000000000E+01 0.  1.
         13    1    6    6    0    0 -0.25195249207E+02  0.88267637167E+01  0.16990599277E+02  0.31644791106E+02  0.00000000000E+00 0. -1.
        -14    1    6    6    0    0 -0.74905194274E+02 -0.38984143678E+02 -0.72418650669E+02  0.11124303372E+03  0.00000000000E+00 0.  1.
</event>
<event>
12    1  0.8196217E-002  0.1851774E+03  0.7818608E-02  0.1162944E+00
         21   -1    0    0  503  502  0.00000000000E+00  0.00000000000E+00  0.11362202033E+03  0.11362202033E+03  0.00000000000E+00 0.  1.
         21   -1    0    0  501  503 -0.00000000000E+00 -0.00000000000E+00 -0.46229477476E+03  0.46229477476E+03  0.00000000000E+00 0.  1.
          6    2    1    2  501    0 -0.68534074077E+02 -0.12190118380E+02 -0.34414767619E+03  0.39068414468E+03  0.17132121754E+03 0.  0.
         24    2    3    3    0    0 -0.58638291388E+02 -0.64934765296E+02 -0.17870586744E+03  0.21669274726E+03  0.85819500671E+02 0.  0.
         -6    2    1    2    0  502  0.68534074077E+02  0.12190118380E+02 -0.45250782353E+01  0.18523265042E+03  0.17159586286E+03 0.  0.
        -24    2    5    5    0    0  0.35997979275E+01  0.62018865252E+02 -0.41753841073E+01  0.10324742907E+03  0.82360789117E+02 0.  0.
          5    1    3    3  501    0 -0.98957826897E+01  0.52744646916E+02 -0.16544180875E+03  0.17399139742E+03  0.47000000000E+01 0. -1.
        -13    1    4    4    0    0 -0.37100733144E+02 -0.78609958519E+02 -0.16773686024E+03  0.18892232335E+03  0.00000000000E+00 0.  1.
         14    1    4    4    0    0 -0.21537558244E+02  0.13675193223E+02 -0.10969007200E+02  0.27770423903E+02  0.00000000000E+00 0. -1.
         -5    1    5    5    0  502  0.64934276150E+02 -0.49828746872E+02 -0.34969412797E+00  0.81985221351E+02  0.47000000000E+01 0.  1.
         13    1    6    6    0    0  0.31667354454E+02 -0.17517306443E+00 -0.13412289013E+02  0.34391009295E+02  0.00000000000E+00 0. -1.
        -14    1    6    6    0    0 -0.28067556527E+02  0.62194038316E+02  0.92369049062E+01  0.68856419771E+02  0.00000000000E+00 0.  1.
</event>
<event>
12    1  0.8196217E-002  0.2244041E+03  0.7818608E-02  0.1130716E+00
         21   -1    0    0  503  502  0.00000000000E+00  0.00000000000E+00  0.10001245618E+04  0.10001245618E+04  0.00000000000E+00 0. -1.
         21   -1    0    0  501  503 -0.00000000000E+00 -0.00000000000E+00 -0.14560779879E+03  0.14560779879E+03  0.00000000000E+00 0.  1.
          6    2    1    2  501    0  0.11894557849E+03  0.81146946811E+02 -0.36450697501E+02  0.22693955686E+03  0.17158097651E+03 0.  0.
         24    2    3    3    0    0  0.13583412405E+03  0.34325967897E+02  0.75316558707E+01  0.16035153658E+03  0.77631875635E+02 0.  0.
         -6    2    1    2    0  502 -0.11894557849E+03 -0.81146946811E+02  0.89096746048E+03  0.91879280369E+03  0.17211717768E+03 0.  0.
        -24    2    5    5    0    0 -0.59618766939E+02 -0.73070573647E+02  0.80126416521E+03  0.81084064042E+03  0.80898551248E+02 0.  0.
          5    1    3    3  501    0 -0.16888545555E+02  0.46820978914E+02 -0.43982353371E+02  0.66588020286E+02  0.47000000000E+01 0. -1.
        -11    1    4    4    0    0  0.11693482399E+03  0.51483686720E+02 -0.11830263642E+02  0.12831320352E+03  0.00000000000E+00 0.  1.
         12    1    4    4    0    0  0.18899300060E+02 -0.17157718823E+02  0.19361919513E+02  0.32038333059E+02  0.00000000000E+00 0. -1.
         -5    1    5    5    0  502 -0.59326811554E+02 -0.80763731642E+01  0.89703295268E+02  0.10795216327E+03  0.47000000000E+01 0.  1.
         11    1    6    6    0    0 -0.73952495019E+02 -0.59830148237E+02  0.74964870351E+03  0.75565984201E+03  0.00000000000E+00 0. -1.
        -12    1    6    6    0    0  0.14333728080E+02 -0.13240425410E+02  0.51615461701E+02  0.55180798402E+02  0.00000000000E+00 0.  1.
</event>
<event>
12    1  0.8196217E-002  0.1807565E+03  0.7818608E-02  0.1167399E+00
         21   -1    0    0  503  502  0.00000000000E+00  0.00000000000E+00  0.39868350825E+02  0.39868350825E+02  0.00000000000E+00 0. -1.
         21   -1    0    0  501  503 -0.00000000000E+00 -0.00000000000E+00 -0.81685496386E+03  0.81685496386E+03  0.00000000000E+00 0. -1.
          6    2    1    2  501    0  0.13708704229E+02 -0.52978866720E+02 -0.35927127958E+03  0.40157606245E+03  0.17085898487E+03 0.  0.
         24    2    3    3    0    0  0.45617270921E+02 -0.80109234931E+02 -0.17953563492E+03  0.21696510539E+03  0.79639109870E+02 0.  0.
         -6    2    1    2    0  502 -0.13708704229E+02  0.52978866720E+02 -0.41771533346E+03  0.45514725224E+03  0.17227371396E+03 0.  0.
        -24    2    5    5    0    0 -0.37123202815E+02  0.66752448988E+02 -0.41294192455E+03  0.42716822893E+03  0.78215350958E+02 0.  0.
          5    1    3    3  501    0 -0.31908566692E+02  0.27130368211E+02 -0.17973564465E+03  0.18461095706E+03  0.47000000000E+01 0. -1.
        -11    1    4    4    0    0  0.49550874474E+02 -0.14280191101E+02 -0.51150312949E+02  0.72633102190E+02  0.00000000000E+00 0.  1.
         12    1    4    4    0    0 -0.39336035525E+01 -0.65829043830E+02 -0.12838532198E+03  0.14433200320E+03  0.00000000000E+00 0. -1.
         -5    1    5    5    0  502  0.23414498586E+02 -0.13773582267E+02 -0.47734089094E+01  0.27979023306E+02  0.47000000000E+01 0.  1.
         13    1    6    6    0    0  0.21129430157E+02  0.22336756828E+02 -0.69447581896E+02  0.75949655401E+02  0.00000000000E+00 0. -1.
        -14    1    6    6    0    0 -0.58252632973E+02  0.44415692160E+02 -0.34349434265E+03  0.35121857353E+03  0.00000000000E+00 0.  1.
</event>
<event>
12    1  0.8196217E-002  0.1898146E+03  0.7818608E-02  0.1158686E+00
         21   -1    0    0  503  502  0.00000000000E+00  0.00000000000E+00  0.29126695348E+03  0.29126695348E+03  0.00000000000E+00 0.  1.
         21   -1    0    0  501  503 -0.00000000000E+00 -0.00000000000E+00 -0.12397128176E+03  0.12397128176E+03  0.00000000000E+00 0.  1.
          6    2    1    2  501    0  0.21402384556E+02 -0.79109645931E+02  0.71377000683E+02  0.20279120819E+03  0.17121098022E+03 0.  0.
         24    2    3    3    0    0 -0.12091483869E+02  0.57998320950E+01 -0.14141702995E+02  0.77623331484E+02  0.75136887030E+02 0.  0.
         -6    2    1    2    0  502 -0.21402384556E+02  0.79109645931E+02  0.95918671037E+02  0.21244702704E+03  0.17092966302E+03 0.  0.
        -24    2    5    5    0    0  0.41776478126E+02  0.88007677138E+02  0.59395776672E+02  0.13878051184E+03  0.79003460809E+02 0.  0.
          5    1    3    3  501    0  0.33493868425E+02 -0.84909478026E+02  0.85518703679E+02  0.12516787671E+03  0.47000000000E+01 0. -1.
        -13    1    4    4    0    0  0.19363674859E+02 -0.24007556702E+02  0.30694637260E+01  0.30995746328E+02  0.00000000000E+00 0.  1.
         14    1    4    4    0    0 -0.31455158729E+02  0.29807388797E+02 -0.17211166721E+02  0.46627585156E+02  0.00000000000E+00 0. -1.
         -5    1    5    5    0  502 -0.63178862682E+02 -0.88980312064E+01  0.36522894365E+02  0.73666515201E+02  0.47000000000E+01 0.  1.
         11    1    6    6    0    0 -0.15872902486E+02 -0.18124532657E+01 -0.12495015042E+01  0.16024833046E+02  0.00000000000E+00 0. -1.
        -12    1    6    6    0    0  0.57649380611E+02  0.89820130403E+02  0.60645278176E+02  0.12275567879E+03  0.00000000000E+00 0.  1.
</event>
<event>
12    1  0.8196217E-002  0.2717220E+03  0.7818608E-02  0.1100410E+00
         21   -1    0    0  501  502  0.00000000000E+00  0.00000000000E+00  0.12968831966E+04  0.12968831966E+04  0.00000000000E+00 0. -1.
         21   -1    0    0  502  503 -0.00000000000E+00 -0.00000000000E+00 -0.64494445158E+02  0.64494445158E+02  0.00000000000E+00 0.  1.
         -6    2    1    2    0  503  0.61152409448E+01  0.21001315194E+03  0.37977742820E+03  0.46651514527E+03  0.17106304580E+03 0.  0.
        -24    2    3    3    0    0 -0.38164771941E+02  0.13345043677E+03  0.32522388715E+03  0.36249232213E+03  0.79778054195E+02 0.  0.
          6    2    1    2  501    0 -0.61152409448E+01 -0.21001315194E+03  0.85261132327E+03  0.89486249652E+03  0.17230757077E+03 0.  0.
         24    2    5    5    0    0 -0.68325839888E+02 -0.10186397704E+03  0.42008383757E+03  0.44467529263E+03  0.78873284943E+02 0.  0.
          5    1    5    5  501    0  0.62210598943E+02 -0.10814917490E+03  0.43252748571E+03  0.45018720389E+03  0.47000000000E+01 0. -1.
        -13    1    6    6    0    0 -0.63946842182E+02 -0.24929910568E+02  0.20744945033E+03  0.21850852045E+03  0.00000000000E+00 0.  1.
         14    1    6    6    0    0 -0.43789977053E+01 -0.76934066469E+02  0.21263438724E+03  0.22616677218E+03  0.00000000000E+00 0. -1.
         -5    1    3    3    0  503  0.44280012886E+02  0.76562715163E+02  0.54553541043E+02  0.10402282314E+03  0.47000000000E+01 0.  1.
         11    1    4    4    0    0 -0.18682725286E+02  0.13356639286E+03  0.24224895315E+03  0.27726085340E+03  0.00000000000E+00 0. -1.
        -12    1    4    4    0    0 -0.19482046656E+02 -0.11595608976E+00  0.82974934003E+02  0.85231468722E+02  0.00000000000E+00 0.  1.
</event>
<event>
12    1  0.8196217E-002  0.2114400E+03  0.7818608E-02  0.1140692E+00
         21   -1    0    0  503  502  0.00000000000E+00  0.00000000000E+00  0.22651954994E+03  0.22651954994E+03  0.00000000000E+00 0. -1.
         21   -1    0    0  501  503 -0.00000000000E+00 -0.00000000000E+00 -0.19810305845E+03  0.19810305845E+03  0.00000000000E+00 0. -1.
          6    2    1    2  501    0 -0.10993551943E+03  0.55781183093E+02 -0.70498579571E+01  0.21022870014E+03  0.17014419487E+03 0.  0.
         24    2    3    3    0    0 -0.14335451248E+03  0.15686358222E+02 -0.25587389353E+02  0.15463954519E+03  0.49619515907E+02 0.  0.
         -6    2    1    2    0  502  0.10993551943E+03 -0.55781183093E+02  0.35466349441E+02  0.21439390824E+03  0.17178337268E+03 0.  0.
        -24    2    5    5    0    0  0.90716085418E+02  0.29467928002E+02  0.17270763982E+02  0.12500729338E+03  0.78935272062E+02 0.  0.
          5    1    3    3  501    0  0.33418993056E+02  0.40094824871E+02  0.18537531396E+02  0.55589154955E+02  0.47000000000E+01 0. -1.
        -13    1    4    4    0    0 -0.45627114038E+02 -0.53541101873E+01  0.12584771149E+02  0.47632725055E+02  0.00000000000E+00 0.  1.
         14    1    4    4    0    0 -0.97727398446E+02  0.21040468410E+02 -0.38172160502E+02  0.10700682013E+03  0.00000000000E+00 0. -1.
         -5    1    5    5    0  502  0.19219434010E+02 -0.85249111095E+02  0.18195585459E+02  0.89386614861E+02  0.47000000000E+01 0.  1.
         13    1    6    6    0    0  0.62567802986E+02 -0.20344974429E+02  0.16307530772E+02  0.67783357212E+02  0.00000000000E+00 0. -1.
        -14    1    6    6    0    0  0.28148282432E+02  0.49812902430E+02  0.96323320982E+00  0.57223936169E+02  0.00000000000E+00 0.  1.
</event>
<event>
12    1  0.8196217E-002  0.1761283E+03  0.7818608E-02  0.1171855E+00
         21   -1    0    0  503  502  0.00000000000E+00  0.00000000000E+00  0.40170560132E+03  0.40170560132E+03  0.00000000000E+00 0.  1.
         21   -1    0    0  501  503 -0.00000000000E+00 -0.00000000000E+00 -0.27134677408E+03  0.27134677408E+03  0.00000000000E+00 0.  1.
          6    2    1    2  501    0  0.30963298739E+02 -0.20414434927E+01 -0.21983611547E+03  0.28106044546E+03  0.17234895699E+03 0.  0.
         24    2    3    3    0    0  0.79741136930E+02 -0.27005953635E+02 -0.17448325856E+03  0.20977597384E+03  0.80458568401E+02 0.  0.
         -6    2    1    2    0  502 -0.30963298739E+02  0.20414434927E+01  0.35019494271E+03  0.39199192994E+03  0.17337324443E+03 0.  0.
        -24    2    5    5    0    0 -0.71281436240E+02  0.26318299965E+02  0.16351268784E+03  0.19941136952E+03  0.85175108703E+02 0.  0.
          5    1    3    3  501    0 -0.48777838191E+02  0.24964510142E+02 -0.45352856905E+02  0.71284471624E+02  0.47000000000E+01 0. -1.
        -13    1    4    4    0    0  0.16263385399E+02  0.20464150234E+02 -0.90904562493E+02  0.94588152702E+02  0.00000000000E+00 0.  1.
         14    1    4    4    0    0  0.63477751530E+02 -0.47470103869E+02 -0.83578696072E+02  0.11518782113E+03  0.00000000000E+00 0. -1.
         -5    1    5    5    0  502  0.40318137501E+02 -0.24276856473E+02  0.18668225487E+03  0.19258056043E+03  0.47000000000E+01 0.  1.
         11    1    6    6    0    0  0.85203199359E+01  0.20056316999E+01 -0.59114139472E+01  0.10562349416E+02  0.00000000000E+00 0. -1.
        -12    1    6    6    0    0 -0.79801756176E+02  0.24312668265E+02  0.16942410179E+03  0.18884902010E+03  0.00000000000E+00 0.  1.
</event>
<event>
12    1  0.8196217E-002  0.2004083E+03  0.7818608E-02  0.1149707E+00
         21   -1    0    0  503  502  0.00000000000E+00  0.00000000000E+00  0.74557510907E+03  0.74557510907E+03  0.00000000000E+00 0. -1.
         21   -1    0    0  501  503 -0.00000000000E+00 -0.00000000000E+00 -0.65230300624E+02  0.65230300624E+02  0.00000000000E+00 0. -1.
          6    2    1    2  501    0  0.78514078133E+02  0.65224768355E+02  0.16909035943E+03  0.26221179797E+03  0.17246665322E+03 0.  0.
         24    2    3    3    0    0  0.63956465946E+02 -0.25243650233E+02  0.10664027696E+03  0.15122278214E+03  0.82270953294E+02 0.  0.
         -6    2    1    2    0  502 -0.78514078133E+02 -0.65224768355E+02  0.51125444902E+03  0.54859361173E+03  0.17074867001E+03 0.  0.
        -24    2    5    5    0    0 -0.52960484777E+02 -0.10379912025E+03  0.44824816762E+03  0.47028110791E+03  0.81601656689E+02 0.  0.
          5    1    3    3  501    0  0.14557612186E+02  0.90468418588E+02  0.62450082474E+02  0.11098901583E+03  0.47000000000E+01 0. -1.
        -13    1    4    4    0    0  0.40448309067E+02 -0.36765945506E+02  0.11188428492E+03  0.12452266327E+03  0.00000000000E+00 0.  1.
         14    1    4    4    0    0  0.23508156880E+02  0.11522295273E+02 -0.52440079659E+01  0.26700118872E+02  0.00000000000E+00 0. -1.
         -5    1    5    5    0  502 -0.25553593355E+02  0.38574351892E+02  0.63006281400E+02  0.78312503811E+02  0.47000000000E+01 0.  1.
         13    1    6    6    0    0 -0.32697954571E+02 -0.60219696831E+02  0.38389410473E+03  0.38996185938E+03  0.00000000000E+00 0. -1.
        -14    1    6    6    0    0 -0.20262530206E+02 -0.43579423416E+02  0.64354062888E+02  0.80319248539E+02  0.00000000000E+00 0.  1.
</event>
<event>
12    1  0.8196217E-002  0.1823270E+03  0.7818608E-02  0.1166555E+00
         21   -1    0    0  503  502  0.00000000000E+00  0.00000000000E+00  0.11635075449E+04  0.11635075449E+04  0.00000000000E+00 0.  1.
         21   -1    0    0  501  503 -0.00000000000E+00 -0.00000000000E+00 -0.39779379630E+02  0.39779379630E+02  0.00000000000E+00 0.  1.
          6    2    1    2  501    0  0.61916758602E+02  0.73997987321E+01  0.22908626166E+03  0.29025501116E+03  0.16697009974E+03 0.  0.
         24    2    3    3    0    0  0.82642915489E+02  0.14049412263E+01  0.23952114231E+03  0.26583189445E+03  0.80401449929E+02 0.  0.
         -6    2    1    2    0  502 -0.61916758602E+02 -0.73997987321E+01  0.89464190364E+03  0.91303191340E+03  0.17133212516E+03 0.  0.
        -24    2    5    5    0    0 -0.64807551579E+02  0.11680856850E+02  0.88482026181E+03  0.89087378284E+03  0.80079585915E+02 0.  0.
          5    1    3    3  501    0 -0.20726156887E+02  0.59948575058E+01 -0.10434880655E+02  0.24423116715E+02  0.47000000000E+01 0. -1.
        -13    1    4    4    0    0 -0.13900455938E+02 -0.89548987111E+01  0.21148226190E+02  0.26845117940E+02  0.00000000000E+00 0.  1.
         14    1    4    4    0    0  0.96543371427E+02  0.10359839937E+02  0.21837291612E+03  0.23898677651E+03  0.00000000000E+00 0. -1.
         -5    1    5    5    0  502  0.28907929771E+01 -0.19080655582E+02  0.98216418276E+01  0.22158130554E+02  0.47000000000E+01 0.  1.
         11    1    6    6    0    0 -0.83833415082E+02  0.85475365766E+01  0.70211857147E+03  0.70715740134E+03  0.00000000000E+00 0. -1.
        -12    1    6    6    0    0  0.19025863502E+02  0.31333202731E+01  0.18270169034E+03  0.18371638150E+03  0.00000000000E+00 0.  1.
</event>
<event>
12    1  0.8196217E-002  0.2086883E+03  0.7818608E-02  0.1142650E+00
         21   -1    0    0  501  502  0.00000000000E+00  0.00000000000E+00  0.37156158146E+02  0.37156158146E+02  0.00000000000E+00 0. -1.
         21   -1    0    0  502  503 -0.00000000000E+00 -0.00000000000E+00 -0.14681598217E+04  0.14681598217E+04  0.00000000000E+00 0. -1.
         -6    2    1    2    0  503 -0.96746077385E+02 -0.67460594961E+02 -0.10544248999E+04  0.10748779790E+04  0.17216290208E+03 0.  0.
        -24    2    3    3    0    0 -0.47729144909E+02 -0.55079788617E+01 -0.25584081760E+03  0.27238223894E+03  0.80181986982E+02 0.  0.
          6    2    1    2  501    0  0.96746077385E+02  0.67460594961E+02 -0.37657876370E+03  0.43043800089E+03  0.17191443214E+03 0.  0.
         24    2    5    5    0    0  0.10384382154E+03  0.27943857826E+02 -0.15196818006E+03  0.20221890710E+03  0.78954165039E+02 0.  0.
          5    1    5    5  501    0 -0.70977441523E+01  0.39516737135E+02 -0.22461058364E+03  0.22821909379E+03  0.47000000000E+01 0. -1.
        -11    1    6    6    0    0  0.81732533337E+02 -0.59557861653E+01 -0.13585148382E+03  0.15865466917E+03  0.00000000000E+00 0.  1.
         12    1    6    6    0    0  0.22111288201E+02  0.33899643992E+02 -0.16116696242E+02  0.43564237930E+02  0.00000000000E+00 0. -1.
         -5    1    3    3    0  503 -0.49016932476E+02 -0.61952616100E+02 -0.79858408229E+03  0.80249574005E+03  0.47000000000E+01 0.  1.
         13    1    4    4    0    0 -0.40173626841E+02 -0.14330949169E+02 -0.47983367719E+02  0.64200467096E+02  0.00000000000E+00 0. -1.
        -14    1    4    4    0    0 -0.75555180681E+01  0.88229703077E+01 -0.20785744988E+03  0.20818177185E+03  0.00000000000E+00 0.  1.
</event>
<event>
12    1  0.8196217E-002  0.3110025E+03  0.7818608E-02  0.1079883E+00
         21   -1    0    0  503  502  0.00000000000E+00  0.00000000000E+00  0.35307102323E+03  0.35307102323E+03  0.00000000000E+00 0.  1.
         21   -1    0    0  501  503 -0.00000000000E+00 -0.00000000000E+00 -0.27898585220E+03  0.27898585220E+03  0.00000000000E+00 0.  1.
          6    2    1    2  501    0 -0.24631204466E+03  0.78164294932E+02 -0.59531451342E+01  0.31105948497E+03  0.17304127515E+03 0.  0.
         24    2    3    3    0    0 -0.14077346425E+03 -0.12531417488E+02 -0.41970441452E+02  0.16724210132E+03  0.78956936597E+02 0.  0.
         -6    2    1    2    0  502  0.24631204466E+03 -0.78164294932E+02  0.80038316162E+02  0.32099739046E+03  0.17278284718E+03 0.  0.
        -24    2    5    5    0    0  0.12064282291E+03 -0.29732139366E+02  0.10647776383E+03  0.18366727221E+03  0.83411401244E+02 0.  0.
          5    1    3    3  501    0 -0.10553858041E+03  0.90695712420E+02  0.36017296317E+02  0.14381738365E+03  0.47000000000E+01 0. -1.
        -11    1    4    4    0    0 -0.10522493474E+03  0.26156804842E+02 -0.19821592570E+02  0.11022413920E+03  0.00000000000E+00 0.  1.
         12    1    4    4    0    0 -0.35548529514E+02 -0.38688222330E+02 -0.22148848882E+02  0.57017962121E+02  0.00000000000E+00 0. -1.
         -5    1    5    5    0  502  0.12566922175E+03 -0.48432155566E+02 -0.26439447665E+02  0.13733011826E+03  0.47000000000E+01 0.  1.
         13    1    6    6    0    0  0.10275541256E+03  0.47795674592E+01  0.48160952865E+02  0.11358255349E+03  0.00000000000E+00 0. -1.
        -14    1    6    6    0    0  0.17887410354E+02 -0.34511706825E+02  0.58316810962E+02  0.70084718719E+02  0.00000000000E+00 0.  1.
</event>
<event>
12    1  0.8196217E-002  0.2381582E+03  0.7818608E-02  0.1121527E+00
         21   -1    0    0  503  502  0.00000000000E+00  0.00000000000E+00  0.30669223016E+04  0.30669223016E+04  0.00000000000E+00 0.  1.
         21   -1    0    0  501  503 -0.00000000000E+00 -0.00000000000E+00 -0.18415299789E+02  0.18415299789E+02  0.00000000000E+00 0.  1.
          6    2    1    2  501    0 -0.15808363185E+03  0.30495338043E+02  0.13942971548E+04  0.14144906808E+04  0.17549623901E+03 0.  0.
         24    2    3    3    0    0 -0.11604423369E+03 -0.32538019652E+02  0.63004567710E+03  0.64647835906E+03  0.80322640728E+02 0.  0.
         -6    2    1    2    0  502  0.15808363185E+03 -0.30495338043E+02  0.16542098470E+04  0.16708469206E+04  0.17146082282E+03 0.  0.
        -24    2    5    5    0    0  0.36647448856E+02 -0.23959455152E+02  0.10830161150E+04  0.10868316521E+04  0.79762420364E+02 0.  0.
          5    1    3    3  501    0 -0.42039398167E+02  0.63033357695E+02  0.76425147767E+03  0.76801232171E+03  0.47000000000E+01 0. -1.
        -11    1    4    4    0    0 -0.11315782340E+03 -0.61148479494E+01  0.43030824446E+03  0.44498007777E+03  0.00000000000E+00 0.  1.
         12    1    4    4    0    0 -0.28864102816E+01 -0.26423171703E+02  0.19973743264E+03  0.20149828129E+03  0.00000000000E+00 0. -1.
         -5    1    5    5    0  502  0.12143618300E+03 -0.65358828913E+01  0.57119373203E+03  0.58401526848E+03  0.47000000000E+01 0.  1.
         11    1    6    6    0    0  0.38475008568E+02 -0.17405856340E+02  0.10767635014E+04  0.10775912620E+04  0.00000000000E+00 0. -1.
        -12    1    6    6    0    0 -0.18275597122E+01 -0.65535988121E+01  0.62526136403E+01  0.92403901014E+01  0.00000000000E+00 0.  1.
</event>
<event>
12    1  0.8196217E-002  0.2558190E+03  0.7818608E-02  0.1109816E+00
         21   -1    0    0  503  502  0.00000000000E+00  0.00000000000E+00  0.25005311761E+03  0.25005311761E+03  0.00000000000E+00 0. -1.
         21   -1    0    0  501  503 -0.00000000000E+00 -0.00000000000E+00 -0.42393966511E+03  0.42393966511E+03  0.00000000000E+00 0.  1.
          6    2    1    2  501    0  0.29098127286E+02  0.18556504863E+03  0.12200068868E+03  0.28342108498E+03  0.17367283924E+03 0.  0.
         24    2    3    3    0    0 -0.15831668132E+02  0.98330591800E+02  0.22668998677E+00  0.12696171731E+03  0.78738042098E+02 0.  0.
         -6    2    1    2    0  502 -0.29098127286E+02 -0.18556504863E+03 -0.29588723619E+03  0.39057169773E+03  0.17238302192E+03 0.  0.
        -24    2    5    5    0    0  0.20935791996E+02 -0.12308495949E+03 -0.10253387606E+03  0.18125192684E+03  0.82163560062E+02 0.  0.
          5    1    3    3  501    0  0.44929795418E+02  0.87234456834E+02  0.12177399870E+03  0.15645936768E+03  0.47000000000E+01 0. -1.
        -13    1    4    4    0    0 -0.19426398106E+02 -0.75684512810E+01  0.23479479128E+01  0.20980449413E+02  0.00000000000E+00 0.  1.
         14    1    4    4    0    0  0.35947299742E+01  0.10589904308E+03 -0.21212579260E+01  0.10598126789E+03  0.00000000000E+00 0. -1.
         -5    1    5    5    0  502 -0.50033919282E+02 -0.62480089146E+02 -0.19335336012E+03  0.20931977090E+03  0.47000000000E+01 0.  1.
         13    1    6    6    0    0 -0.27454721876E+02 -0.51017374770E+02 -0.19506082578E+02  0.61131183035E+02  0.00000000000E+00 0. -1.
        -14    1    6    6    0    0  0.48390513872E+02 -0.72067584718E+02 -0.83027793487E+02  0.12012074380E+03  0.00000000000E+00 0.  1.
</event>
<event>
12    1  0.8196217E-002  0.2000678E+03  0.7818608E-02  0.1149927E+00
         21   -1    0    0  503  502  0.00000000000E+00  0.00000000000E+00  0.58938263622E+02  0.58938263622E+02  0.00000000000E+00 0. -1.
         21   -1    0    0  501  503 -0.00000000000E+00 -0.00000000000E+00 -0.13146156744E+04  0.13146156744E+04  0.00000000000E+00 0. -1.
          6    2    1    2  501    0 -0.55613122965E+02 -0.84682864070E+02 -0.11058678945E+04  0.11236139517E+04  0.17117390381E+03 0.  0.
         24    2    3    3    0    0 -0.43657942117E+02  0.16876402734E+02 -0.37912193588E+03  0.38969366347E+03  0.77051153199E+02 0.  0.
         -6    2    1    2    0  502  0.55613122965E+02  0.84682864070E+02 -0.14980951626E+03  0.24993998636E+03  0.17251985018E+03 0.  0.
        -24    2    5    5    0    0 -0.16282789836E+02  0.96577778722E+02 -0.83722400443E+02  0.15145085930E+03  0.79596016595E+02 0.  0.
          5    1    3    3  501    0 -0.11955180848E+02 -0.10155926680E+03 -0.72674595864E+03  0.73392028819E+03  0.47000000000E+01 0. -1.
        -11    1    4    4    0    0 -0.25574108324E+02  0.12722084774E+02 -0.36564970335E+03  0.36676367325E+03  0.00000000000E+00 0.  1.
         12    1    4    4    0    0 -0.18083833792E+02  0.41543179602E+01 -0.13472232530E+02  0.22929990224E+02  0.00000000000E+00 0. -1.
         -5    1    5    5    0  502  0.71895912801E+02 -0.11894914651E+02 -0.66087115822E+02  0.98489127063E+02  0.47000000000E+01 0.  1.
         11    1    6    6    0    0 -0.19346853678E+02  0.24698982902E+01  0.69770042591E+01  0.20714239866E+02  0.00000000000E+00 0. -1.
        -12    1    6    6    0    0  0.30640638416E+01  0.94107880431E+02 -0.90699404702E+02  0.13073661943E+03  0.00000000000E+00 0.  1.
</event>
<event>
12    1  0.8196217E-002  0.1874627E+03  0.7818608E-02  0.1161288E+00
         21   -1    0    0  501  502  0.00000000000E+00  0.00000000000E+00  0.38240617093E+03  0.38240617093E+03  0.00000000000E+00 0.  1.
         21   -1    0    0  502  503 -0.00000000000E+00 -0.00000000000E+00 -0.91641707794E+02  0.91641707794E+02  0.00000000000E+00 0.  1.
         -6    2    1    2    0  503 -0.34093749635E+02  0.60112070959E+02  0.12182286728E+03  0.22169192557E+03  0.17184485454E+03 0.  0.
        -24    2    3    3    0    0  0.28951174328E+02  0.63341463438E+02  0.26309065835E+02  0.10710541816E+03  0.77000598499E+02 0.  0.
          6    2    1    2  501    0  0.34093749635E+02 -0.60112070959E+02  0.16894159585E+03  0.25235595315E+03  0.17425963228E+03 0.  0.
         24    2    5    5    0    0  0.66762669483E+02 -0.91048250348E+02  0.14840091480E+03  0.20267381252E+03  0.79415394235E+02 0.  0.
          5    1    5    5  501    0 -0.32668919848E+02  0.30936179389E+02  0.20540681050E+02  0.49682140627E+02  0.47000000000E+01 0. -1.
        -13    1    6    6    0    0  0.23369178427E+02 -0.30248143225E+02  0.19503632443E+01  0.38273653938E+02  0.00000000000E+00 0.  1.
         14    1    6    6    0    0  0.43393491056E+02 -0.60800107123E+02  0.14645055156E+03  0.16440015859E+03  0.00000000000E+00 0. -1.
         -5    1    3    3    0  503 -0.63044923963E+02 -0.32293924791E+01  0.95513801449E+02  0.11458650741E+03  0.47000000000E+01 0.  1.
         11    1    4    4    0    0  0.32634025896E+02  0.77287429049E+00  0.29979765389E+02  0.44321138451E+02  0.00000000000E+00 0. -1.
        -12    1    4    4    0    0 -0.36828515689E+01  0.62568589147E+02 -0.36706995534E+01  0.62784279711E+02  0.00000000000E+00 0.  1.
</event>
<event>
12    1  0.8196217E-002  0.1925313E+03  0.7818608E-02  0.1157220E+00
         21   -1    0    0  501  502  0.00000000000E+00  0.00000000000E+00  0.57346518779E+03  0.57346518779E+03  0.00000000000E+00 0. -1.
         21   -1    0    0  502  503 -0.00000000000E+00 -0.00000000000E+00 -0.79120323875E+02  0.79120323875E+02  0.00000000000E+00 0. -1.
         -6    2    1    2    0  503 -0.85103016281E+01 -0.80267622670E+02  0.98089112048E+02  0.21203251755E+03  0.16976748250E+03 0.  0.
        -24    2    3    3    0    0  0.55088666619E+02 -0.27949867701E+02  0.77022268347E+02  0.12689804656E+03  0.79716548509E+02 0.  0.
          6    2    1    2  501    0  0.85103016281E+01  0.80267622670E+02  0.39625575187E+03  0.44055299411E+03  0.17479417396E+03 0.  0.
         24    2    5    5    0    0 -0.63305761153E+02  0.64035096440E+02  0.22756746043E+03  0.25643653247E+03  0.76580892954E+02 0.  0.
          5    1    5    5  501    0  0.71816062781E+02  0.16232526230E+02  0.16868829144E+03  0.18411646165E+03  0.47000000000E+01 0. -1.
        -11    1    6    6    0    0 -0.70394479830E+02  0.34096372627E+02  0.20137073179E+03  0.21602804688E+03  0.00000000000E+00 0.  1.
         12    1    6    6    0    0  0.70887186770E+01  0.29938723813E+02  0.26196728641E+02  0.40408485589E+02  0.00000000000E+00 0. -1.
         -5    1    3    3    0  503 -0.63598968247E+02 -0.52317754968E+02  0.21066843702E+02  0.85134470989E+02  0.47000000000E+01 0.  1.
         13    1    4    4    0    0 -0.10693890165E+02 -0.26468828104E+02  0.43730710415E+01  0.28880476076E+02  0.00000000000E+00 0. -1.
        -14    1    4    4    0    0  0.65782556784E+02 -0.14810395977E+01  0.72649197305E+02  0.98017570488E+02  0.00000000000E+00 0.  1.
</event>
<event>
12    1  0.8196217E-002  0.2386308E+03  0.7818608E-02  0.1122244E+00
         21   -1    0    0  501  502  0.00000000000E+00  0.00000000000E+00  0.15651638283E+03  0.15651638283E+03  0.00000000000E+00 0.  1.
         21   -1    0    0  502  503 -0.00000000000E+00 -0.00000000000E+00 -0.44063167662E+03  0.44063167662E+03  0.00000000000E+00 0.  1.
         -6    2    1    2    0  503  0.15487374421E+03 -0.26829202972E+01 -0.27507339104E+03  0.35834598454E+03  0.16956827376E+03 0.  0.
        -24    2    3    3    0    0  0.17323435239E+03 -0.73653593031E+01 -0.18394159085E+03  0.26514656300E+03  0.80023756864E+02 0.  0.
          6    2    1    2  501    0 -0.15487374421E+03  0.26829202972E+01 -0.90419027481E+01  0.23880207492E+03  0.18152575651E+03 0.  0.
         24    2    5    5    0    0 -0.14334827795E+03 -0.27400583657E+02  0.47600373598E+02  0.17346991552E+03  0.80786726923E+02 0.  0.
          5    1    5    5  501    0 -0.11525466253E+02  0.30083503954E+02 -0.56642276346E+02  0.65332159402E+02  0.47000000000E+01 0. -1.
        -13    1    6    6    0    0 -0.69286397521E+02  0.16122812912E+02 -0.73160514893E+01  0.71512758212E+02  0.00000000000E+00 0.  1.
         14    1    6    6    0    0 -0.74061880433E+02 -0.43523396569E+02  0.54916425087E+02  0.10195715731E+03  0.00000000000E+00 0. -1.
         -5    1    3    3    0  503 -0.18360608179E+02  0.46824390059E+01 -0.91131800196E+02  0.93199421536E+02  0.47000000000E+01 0.  1.
         13    1    4    4    0    0  0.26146518596E+02 -0.18553778575E+02 -0.37558915588E+01  0.32279867650E+02  0.00000000000E+00 0. -1.
        -14    1    4    4    0    0  0.14708783379E+03  0.11188419272E+02 -0.18018569929E+03  0.23286669535E+03  0.00000000000E+00 0.  1.
</event>
<event>
12    1  0.8196217E-002  0.2456665E+03  0.7818608E-02  0.1116460E+00
         21   -1    0    0  503  502  0.00000000000E+00  0.00000000000E+00  0.48520686744E+03  0.48520686744E+03  0.00000000000E+00 0.  1.
         21   -1    0    0  501  503 -0.00000000000E+00 -0.00000000000E+00 -0.16042849424E+03  0.16042849424E+03  0.00000000000E+00 0.  1.
          6    2    1    2  501    0  0.15114201234E+03  0.84088798570E+02  0.74556912668E+01  0.24577965494E+03  0.17446265363E+03 0.  0.
         24    2    3    3    0    0  0.98466140842E+02  0.40637879306E+02 -0.63200697612E+02  0.14740717346E+03  0.79922015005E+02 0.  0.
         -6    2    1    2    0  502 -0.15114201234E+03 -0.84088798570E+02  0.31732268193E+03  0.39985570673E+03  0.17110250671E+03 0.  0.
        -24    2    5    5    0    0 -0.14200587334E+03 -0.85145873193E+02  0.16324509716E+03  0.24543233231E+03  0.78565769964E+02 0.  0.
          5    1    3    3  501    0  0.52675871499E+02  0.43450919264E+02  0.70656388879E+02  0.98372481479E+02  0.47000000000E+01 0. -1.
        -11    1    4    4    0    0  0.48215309595E+02  0.60915182308E+02 -0.27027187172E+02  0.82254752819E+02  0.00000000000E+00 0.  1.
         12    1    4    4    0    0  0.50250831248E+02 -0.20277303001E+02 -0.36173510439E+02  0.65152420642E+02  0.00000000000E+00 0. -1.
         -5    1    5    5    0  502 -0.91361390063E+01  0.10570746224E+01  0.15407758476E+03  0.15442337443E+03  0.47000000000E+01 0.  1.
         11    1    6    6    0    0 -0.13123186423E+03 -0.55966013700E+02  0.15966928993E+03  0.21412211241E+03  0.00000000000E+00 0. -1.
        -12    1    6    6    0    0 -0.10774009110E+02 -0.29179859493E+02  0.35758072317E+01  0.31310219892E+02  0.00000000000E+00 0.  1.
</event>
<event>
12    1  0.8196217E-002  0.2858978E+03  0.7818608E-02  0.1092740E+00
         21   -1    0    0  503  502  0.00000000000E+00  0.00000000000E+00  0.26806431184E+03  0.26806431184E+03  0.00000000000E+00 0. -1.
         21   -1    0    0  501  503 -0.00000000000E+00 -0.00000000000E+00 -0.30427341693E+03  0.30427341693E+03  0.00000000000E+00 0.  1.
          6    2    1    2  501    0 -0.12379839611E+03 -0.19156188420E+03 -0.29937051991E+00  0.28589800214E+03  0.17238207463E+03 0.  0.
         24    2    3    3    0    0 -0.13527800254E+03 -0.17573545188E+03 -0.42208827328E+02  0.23941413512E+03  0.79714841609E+02 0.  0.
         -6    2    1    2    0  502  0.12379839611E+03  0.19156188420E+03 -0.35909734571E+02  0.28643972662E+03  0.16951757901E+03 0.  0.
        -24    2    5    5    0    0  0.14838333692E+03  0.17125811241E+03 -0.58187440557E+02  0.24726002973E+03  0.80029921431E+02 0.  0.
          5    1    3    3  501    0  0.11479606432E+02 -0.15826432316E+02  0.41909456808E+02  0.46483867025E+02  0.47000000000E+01 0. -1.
        -13    1    4    4    0    0 -0.73941655528E+02 -0.71021818514E+02 -0.56761733604E+02  0.11718942584E+03  0.00000000000E+00 0.  1.
         14    1    4    4    0    0 -0.61336347009E+02 -0.10471363337E+03  0.14552906276E+02  0.12222470928E+03  0.00000000000E+00 0. -1.
         -5    1    5    5    0  502 -0.24584940817E+02  0.20303771790E+02  0.22277705986E+02  0.39179696884E+02  0.47000000000E+01 0.  1.
         11    1    6    6    0    0  0.23883154766E+02  0.40249522485E+02  0.19291388745E+02  0.50621999383E+02  0.00000000000E+00 0. -1.
        -12    1    6    6    0    0  0.12450018216E+03  0.13100858992E+03 -0.77478829302E+02  0.19663803035E+03  0.00000000000E+00 0.  1.
</event>
<event>
12    1  0.8196217E-002  0.1744450E+03  0.7818608E-02  0.1174398E+00
         21   -1    0    0  501  502  0.00000000000E+00  0.00000000000E+00  0.59429632845E+03  0.59429632845E+03  0.00000000000E+00 0. -1.
         21   -1    0    0  502  503 -0.00000000000E+00 -0.00000000000E+00 -0.14599871324E+03  0.14599871324E+03  0.00000000000E+00 0. -1.
         -6    2    1    2    0  503 -0.67819244690E+01  0.12173845294E+02 -0.77047027792E+02  0.18674463431E+03  0.16953795134E+03 0.  0.
        -24    2    3    3    0    0  0.80703811753E+01 -0.55312861369E+02 -0.61756405588E+02  0.11581551697E+03  0.80465748337E+02 0.  0.
          6    2    1    2  501    0  0.67819244690E+01 -0.12173845294E+02  0.52534464300E+03  0.55355040737E+03  0.17388749974E+03 0.  0.
         24    2    5    5    0    0  0.44766884638E+02 -0.61803660722E+02  0.33007287958E+03  0.34846718678E+03  0.81593553616E+02 0.  0.
          5    1    5    5  501    0 -0.37984960169E+02  0.49629815428E+02  0.19527176342E+03  0.20508322059E+03  0.47000000000E+01 0. -1.
        -11    1    6    6    0    0  0.14656026400E+02 -0.11694583759E+02  0.67907743531E+01  0.19941840824E+02  0.00000000000E+00 0.  1.
         12    1    6    6    0    0  0.30110858238E+02 -0.50109076963E+02  0.32328210522E+03  0.32852534596E+03  0.00000000000E+00 0. -1.
         -5    1    3    3    0  503 -0.14852305644E+02  0.67486706663E+02 -0.15290622204E+02  0.70929117340E+02  0.47000000000E+01 0.  1.
         13    1    4    4    0    0 -0.22314840838E+02 -0.21010698980E+02 -0.62907041814E+02  0.69976406760E+02  0.00000000000E+00 0. -1.
        -14    1    4    4    0    0  0.30385222013E+02 -0.34302162390E+02  0.11506362259E+01  0.45839110213E+02  0.00000000000E+00 0.  1.
</event>
<event>
12    1  0.8196217E-002  0.2042263E+03  0.7818608E-02  0.1146366E+00
         21   -1    0    0  501  502  0.00000000000E+00  0.00000000000E+00  0.53776847548E+02  0.53776847548E+02  0.00000000000E+00 0. -1.
         21   -1    0    0  502  503 -0.00000000000E+00 -0.00000000000E+00 -0.81826498522E+03  0.81826498522E+03  0.00000000000E+00 0.  1.
         -6    2    1    2    0  503  0.30873652665E+02  0.10106292057E+03 -0.48551284892E+03  0.52671730439E+03  0.17476125411E+03 0.  0.
        -24    2    3    3    0    0  0.52730206029E+02  0.82595249706E+02 -0.18055600978E+03  0.22038492358E+03  0.79790926642E+02 0.  0.
          6    2    1    2  501    0 -0.30873652665E+02 -0.10106292057E+03 -0.27897528875E+03  0.34532452837E+03  0.17393941997E+03 0.  0.
         24    2    5    5    0    0 -0.38522711145E+02 -0.88381272466E+00 -0.66975557462E+02  0.11067513500E+03  0.79236858919E+02 0.  0.
          5    1    5    5  501    0  0.76490584798E+01 -0.10017910784E+03 -0.21199973129E+03  0.23464939337E+03  0.47000000000E+01 0. -1.
        -11    1    6    6    0    0  0.19860799822E+02 -0.17671332057E+02 -0.27371538119E+02  0.38156630423E+02  0.00000000000E+00 0.  1.
         12    1    6    6    0    0 -0.58383510967E+02  0.16787519333E+02 -0.39604019343E+02  0.72518504578E+02  0.00000000000E+00 0. -1.
         -5    1    3    3    0  503 -0.21856553363E+02  0.18467670860E+02 -0.30495683914E+03  0.30633238081E+03  0.47000000000E+01 0.  1.
         11    1    4    4    0    0  0.33417310106E+02 -0.69849888252E+01 -0.39916145187E+02  0.52524330840E+02  0.00000000000E+00 0. -1.
        -12    1    4    4    0    0  0.19312895923E+02  0.89580238531E+02 -0.14063986459E+03  0.16786059274E+03  0.00000000000E+00 0.  1.
</event>
<event>
12    1  0.8196217E-002  0.1778122E+03  0.7818608E-02  0.1170090E+00
         21   -1    0    0  503  502  0.00000000000E+00  0.00000000000E+00  0.40193076564E+03  0.40193076564E+03  0.00000000000E+00 0. -1.
         21   -1    0    0  501  503 -0.00000000000E+00 -0.00000000000E+00 -0.78976739514E+02  0.78976739514E+02  0.00000000000E+00 0. -1.
          6    2    1    2  501    0 -0.36162055182E+02 -0.22883067548E+02  0.18250429262E+03  0.25480384722E+03  0.17258578944E+03 0.  0.
         24    2    3    3    0    0  0.34853658031E+02  0.17114968744E+02  0.51452237378E+02  0.10040240418E+03  0.76977986462E+02 0.  0.
         -6    2    1    2    0  502  0.36162055182E+02  0.22883067548E+02  0.14044973350E+03  0.22610365793E+03  0.17194594347E+03 0.  0.
        -24    2    5    5    0    0  0.12567204931E+02 -0.41630298255E+02  0.29682874417E+02  0.95680966665E+02  0.79892164671E+02 0.  0.
          5    1    3    3  501    0 -0.71015713213E+02 -0.39998036292E+02  0.13105205524E+03  0.15440144304E+03  0.47000000000E+01 0. -1.
        -13    1    4    4    0    0 -0.12157828914E+02  0.16111058259E+02 -0.10400125206E+02  0.22705541315E+02  0.00000000000E+00 0.  1.
         14    1    4    4    0    0  0.47011486945E+02  0.10039104852E+01  0.61852362584E+02  0.77696862860E+02  0.00000000000E+00 0. -1.
         -5    1    5    5    0  502  0.23594850252E+02  0.64513365804E+02  0.11076685909E+03  0.13042269127E+03  0.47000000000E+01 0.  1.
         13    1    6    6    0    0 -0.21317582380E+02 -0.28756939943E+01 -0.16036620245E+02  0.26830619138E+02  0.00000000000E+00 0. -1.
        -14    1    6    6    0    0  0.33884787310E+02 -0.38754604261E+02  0.45719494662E+02  0.68850347527E+02  0.00000000000E+00 0.  1.
</event>
<event>
12    1  0.8196217E-002  0.1741653E+03  0.7818608E-02  0.1174505E+00
         21   -1    0    0  503  502  0.00000000000E+00  0.00000000000E+00  0.84288767312E+03  0.84288767312E+03  0.00000000000E+00 0.  1.
         21   -1    0    0  501  503 -0.00000000000E+00 -0.00000000000E+00 -0.39683939491E+02  0.39683939491E+02  0.00000000000E+00 0.  1.
          6    2    1    2  501    0  0.10818170772E+02 -0.20838759495E+02  0.25766753204E+03  0.31100822084E+03  0.17257540279E+03 0.  0.
         24    2    3    3    0    0  0.45082205915E+02 -0.39830588771E+01  0.25639089437E+03  0.27251330493E+03  0.80491866658E+02 0.  0.
         -6    2    1    2    0  502 -0.10818170772E+02  0.20838759495E+02  0.54553620159E+03  0.57156339177E+03  0.16888954038E+03 0.  0.
        -24    2    5    5    0    0  0.46080190807E+02 -0.19202332385E+02  0.39102312678E+03  0.40204320749E+03  0.79041390811E+02 0.  0.
          5    1    3    3  501    0 -0.34264035142E+02 -0.16855700617E+02  0.12766376684E+01  0.38494915915E+02  0.47000000000E+01 0. -1.
        -13    1    4    4    0    0  0.49954512987E+02  0.13831233196E+02  0.81082398504E+02  0.96234670087E+02  0.00000000000E+00 0.  1.
         14    1    4    4    0    0 -0.48723070725E+01 -0.17814292074E+02  0.17530849587E+03  0.17627863484E+03  0.00000000000E+00 0. -1.
         -5    1    5    5    0  502 -0.56898361579E+02  0.40041091880E+02  0.15451307481E+03  0.16952018428E+03  0.47000000000E+01 0.  1.
         11    1    6    6    0    0  0.48202010284E+02 -0.23784166368E+02  0.39297193624E+03  0.39663089017E+03  0.00000000000E+00 0. -1.
        -12    1    6    6    0    0 -0.21218194775E+01  0.45818339830E+01 -0.19488094569E+01  0.54123173265E+01  0.00000000000E+00 0.  1.
</event>
<event>
12    1  0.8196217E-002  0.1859871E+03  0.7818608E-02  0.1162196E+00
         21   -1    0    0  503  502  0.00000000000E+00  0.00000000000E+00  0.11404638255E+03  0.11404638255E+03  0.00000000000E+00 0.  1.
         21   -1    0    0  501  503 -0.00000000000E+00 -0.00000000000E+00 -0.55954773755E+03  0.55954773755E+03  0.00000000000E+00 0.  1.
          6    2    1    2  501    0  0.44754562216E+02 -0.53490974809E+02  0.54589349195E+01  0.18578637496E+03  0.17211194591E+03 0.  0.
         24    2    3    3    0    0  0.81912632194E+02 -0.54326402052E+02 -0.32646282145E+02  0.13234933097E+03  0.82398594627E+02 0.  0.
         -6    2    1    2    0  502 -0.44754562216E+02  0.53490974809E+02 -0.45096028992E+03  0.48780774513E+03  0.17241507447E+03 0.  0.
        -24    2    5    5    0    0 -0.27110739208E+02  0.54373033929E+02 -0.11952840473E+03  0.15587210824E+03  0.79483681288E+02 0.  0.
          5    1    3    3  501    0 -0.37158069978E+02  0.83542724262E+00  0.38105217065E+02  0.53437043993E+02  0.47000000000E+01 0. -1.
        -11    1    4    4    0    0  0.14171698247E+02 -0.39315921364E+02  0.18945923530E+02  0.45886018811E+02  0.00000000000E+00 0.  1.
         12    1    4    4    0    0  0.67740933947E+02 -0.15010480688E+02 -0.51592205675E+02  0.86463312156E+02  0.00000000000E+00 0. -1.
         -5    1    5    5    0  502 -0.17643823008E+02 -0.88205911990E+00 -0.33143188519E+03  0.33193563689E+03  0.47000000000E+01 0.  1.
         13    1    6    6    0    0  0.27393824776E+02  0.24147406456E+02 -0.56177839960E+02  0.67003496752E+02  0.00000000000E+00 0. -1.
        -14    1    6    6    0    0 -0.54504563984E+02  0.30225627473E+02 -0.63350564767E+02  0.88868611486E+02  0.00000000000E+00 0.  1.
</event>
<event>
12    1  0.8196217E-002  0.2436213E+03  0.7818608E-02  0.1117630E+00
         21   -1    0    0  501  502  0.00000000000E+00  0.00000000000E+00  0.16668201649E+03  0.16668201649E+03  0.00000000000E+00 0. -1.
         21   -1    0    0  502  503 -0.00000000000E+00 -0.00000000000E+00 -0.39623922451E+03  0.39623922451E+03  0.00000000000E+00 0.  1.
         -6    2    1    2    0  503  0.12770745089E+03  0.11606123589E+03 -0.20631878524E+03  0.31819409030E+03  0.17000186607E+03 0.  0.
        -24    2    3    3    0    0  0.13277405981E+03  0.14183029824E+03 -0.15657011836E+03  0.26174291709E+03  0.79059270333E+02 0.  0.
          6    2    1    2  501    0 -0.12770745089E+03 -0.11606123589E+03 -0.23238422775E+02  0.24472715071E+03  0.17196496885E+03 0.  0.
         24    2    5    5    0    0 -0.60614651716E+02  0.11274881634E+01 -0.41392929249E+02  0.10839550782E+03  0.79754650595E+02 0.  0.
          5    1    5    5  501    0 -0.67092799174E+02 -0.11718872405E+03  0.18154506475E+02  0.13633164289E+03  0.47000000000E+01 0. -1.
        -11    1    6    6    0    0 -0.31640993094E+02  0.11344250307E+02  0.20447637038E+02  0.39343999789E+02  0.00000000000E+00 0.  1.
         12    1    6    6    0    0 -0.28973658622E+02 -0.10216762143E+02 -0.61840566287E+02  0.69051508030E+02  0.00000000000E+00 0. -1.
         -5    1    3    3    0  503 -0.50666089194E+01 -0.25769062347E+02 -0.49748666878E+02  0.56451173206E+02  0.47000000000E+01 0.  1.
         11    1    4    4    0    0  0.69767629879E+02  0.12711122346E+03 -0.11083589058E+03  0.18250857500E+03  0.00000000000E+00 0. -1.
        -12    1    4    4    0    0  0.63006429930E+02  0.14719074775E+02 -0.45734227782E+02  0.79234342084E+02  0.00000000000E+00 0.  1.
</event>
<event>
12    1  0.8196217E-002  0.1830405E+03  0.7818608E-02  0.1165264E+00
         21   -1    0    0  503  502  0.00000000000E+00  0.00000000000E+00  0.62891544994E+03  0.62891544994E+03  0.00000000000E+00 0. -1.
         21   -1    0    0  501  503 -0.00000000000E+00 -0.00000000000E+00 -0.89000593101E+02  0.89000593101E+02  0.00000000000E+00 0. -1.
          6    2    1    2  501    0 -0.27501000578E+02 -0.57412041085E+02  0.40402205506E+02  0.18592288059E+03  0.16994861524E+03 0.  0.
         24    2    3    3    0    0 -0.76912545611E+02 -0.16978209590E+02  0.42997777837E+02  0.12185087026E+03  0.82431950186E+02 0.  0.
         -6    2    1    2    0  502  0.27501000578E+02  0.57412041085E+02  0.49951265133E+03  0.53199316245E+03  0.17161406864E+03 0.  0.
        -24    2    5    5    0    0  0.55078889339E+02 -0.66997617057E+01  0.17726168041E+03  0.20223773571E+03  0.79998922143E+02 0.  0.
          5    1    3    3  501    0  0.49411545033E+02 -0.40433831495E+02 -0.25955723309E+01  0.64072010329E+02  0.47000000000E+01 0. -1.
        -13    1    4    4    0    0 -0.81772773563E+02  0.21696710394E+01  0.86899224957E+01  0.82261830283E+02  0.00000000000E+00 0.  1.
         14    1    4    4    0    0  0.48602279519E+01 -0.19147880630E+02  0.34307855341E+02  0.39589039979E+02  0.00000000000E+00 0. -1.
         -5    1    5    5    0  502 -0.27577888761E+02  0.64111802791E+02  0.32225097092E+03  0.32975542674E+03  0.47000000000E+01 0.  1.
         11    1    6    6    0    0  0.34497330473E+02  0.35577034529E+02  0.10369559019E+03  0.11492852831E+03  0.00000000000E+00 0. -1.
        -12    1    6    6    0    0  0.20581558866E+02 -0.42276796234E+02  0.73566090224E+02  0.87309207395E+02  0.00000000000E+00 0.  1.
</event>
<event>
12    1  0.8196217E-002  0.3373845E+03  0.7818608E-02  0.1067994E+00
         21   -1    0    0  501  502  0.00000000000E+00  0.00000000000E+00  0.10704163829E+03  0.10704163829E+03  0.00000000000E+00 0.  1.
         21   -1    0    0  502  503 -0.00000000000E+00 -0.00000000000E+00 -0.19568472656E+04  0.19568472656E+04  0.00000000000E+00 0.  1.
         -6    2    1    2    0  503 -0.68602808365E+02 -0.28057670878E+03 -0.16236347499E+04  0.16583178442E+04  0.17435204763E+03 0.  0.
        -24    2    3    3    0    0 -0.86144056806E+02 -0.95013581662E+02 -0.69586102724E+03  0.71199467531E+03  0.79154716915E+02 0.  0.
          6    2    1    2  501    0  0.68602808365E+02  0.28057670878E+03 -0.22617087742E+03  0.40557105969E+03  0.17293057520E+03 0.  0.
         24    2    5    5    0    0  0.11018503724E+03  0.25048660945E+03 -0.18600882321E+03  0.34022906374E+03  0.79197535033E+02 0.  0.
          5    1    5    5  501    0 -0.41582228879E+02  0.30090099323E+02 -0.40162054210E+02  0.65341995946E+02  0.47000000000E+01 0. -1.
        -11    1    6    6    0    0  0.21893669335E+02  0.14450003836E+03 -0.83047009228E+02  0.16809639968E+03  0.00000000000E+00 0.  1.
         12    1    6    6    0    0  0.88291367909E+02  0.10598657109E+03 -0.10296181398E+03  0.17213266406E+03  0.00000000000E+00 0. -1.
         -5    1    3    3    0  503  0.17541248440E+02 -0.18556312711E+03 -0.92777372267E+03  0.94632316892E+03  0.47000000000E+01 0.  1.
         13    1    4    4    0    0  0.36274957263E+01 -0.37941023467E+02 -0.10660555362E+03  0.11321406295E+03  0.00000000000E+00 0. -1.
        -14    1    4    4    0    0 -0.89771552532E+02 -0.57072558195E+02 -0.58925547362E+03  0.59878061236E+03  0.00000000000E+00 0.  1.
</event>
<event>
12    1  0.8196217E-002  0.1963108E+03  0.7818608E-02  0.1152981E+00
         21   -1    0    0  501  502  0.00000000000E+00  0.00000000000E+00  0.76518685618E+02  0.76518685618E+02  0.00000000000E+00 0. -1.
         21   -1    0    0  502  503 -0.00000000000E+00 -0.00000000000E+00 -0.64021894181E+03  0.64021894181E+03  0.00000000000E+00 0.  1.
         -6    2    1    2    0  503  0.64981977256E+02 -0.69492429751E+02 -0.44778789230E+03  0.48876044283E+03  0.17123352131E+03 0.  0.
        -24    2    3    3    0    0  0.15527114112E+02 -0.14284741358E+02 -0.81501898636E+02  0.11502097274E+03  0.78371675881E+02 0.  0.
          6    2    1    2  501    0 -0.64981977256E+02  0.69492429751E+02 -0.11591236389E+03  0.22797718460E+03  0.17171507049E+03 0.  0.
         24    2    5    5    0    0  0.21699759742E+02  0.71771509356E+02 -0.72967160355E+02  0.13109943566E+03  0.78998901336E+02 0.  0.
          5    1    5    5  501    0 -0.86681736998E+02 -0.22790796055E+01 -0.42945203536E+02  0.96877748939E+02  0.47000000000E+01 0. -1.
        -11    1    6    6    0    0 -0.36943551300E+01  0.17106893302E+02 -0.68453827557E+02  0.70655647796E+02  0.00000000000E+00 0.  1.
         12    1    6    6    0    0  0.25394114872E+02  0.54664616054E+02 -0.45133327979E+01  0.60443787865E+02  0.00000000000E+00 0. -1.
         -5    1    3    3    0  503  0.49454863143E+02 -0.55207688393E+02 -0.36628599366E+03  0.37373947009E+03  0.47000000000E+01 0.  1.
         11    1    4    4    0    0  0.31718587501E+02 -0.37817050655E+02 -0.35225185196E+02  0.60638368921E+02  0.00000000000E+00 0. -1.
        -12    1    4    4    0    0 -0.16191473388E+02  0.23532309297E+02 -0.46276713440E+02  0.54382603819E+02  0.00000000000E+00 0.  1.
</event>
<event>
12    1  0.8196217E-002  0.1860749E+03  0.7818608E-02  0.1162443E+00
         21   -1    0    0  501  502  0.00000000000E+00  0.00000000000E+00  0.16610019246E+04  0.16610019246E+04  0.00000000000E+00 0. -1.
         21   -1    0    0  502  503 -0.00000000000E+00 -0.00000000000E+00 -0.49550986958E+02  0.49550986958E+02  0.00000000000E+00 0. -1.
         -6    2    1    2    0  503 -0.18370978112E+02 -0.69677879508E+02  0.15414639980E+03  0.24162986088E+03  0.17155575586E+03 0.  0.
        -24    2    3    3    0    0 -0.51447819404E+01  0.35297795770E+02  0.59834949413E+02  0.99814613675E+02  0.71486591500E+02 0.  0.
          6    2    1    2  501    0  0.18370978112E+02  0.69677879508E+02  0.14573045378E+04  0.14689230507E+04  0.16972304815E+03 0.  0.
         24    2    5    5    0    0  0.90804082341E+00 -0.96865518533E+01  0.35828742831E+03  0.36689566255E+03  0.78408494996E+02 0.  0.
          5    1    5    5  501    0  0.17462937288E+02  0.79364431361E+02  0.10990171095E+04  0.11020273881E+04  0.47000000000E+01 0. -1.
        -11    1    6    6    0    0 -0.12667310550E+02 -0.35315786841E+02  0.29380795311E+03  0.29619381977E+03  0.00000000000E+00 0.  1.
         12    1    6    6    0    0  0.13575351373E+02  0.25629234987E+02  0.64479475203E+02  0.70701842786E+02  0.00000000000E+00 0. -1.
         -5    1    3    3    0  503 -0.13226196171E+02 -0.10497567528E+03  0.94311450386E+02  0.14181524720E+03  0.47000000000E+01 0.  1.
         11    1    4    4    0    0 -0.23634284815E+02 -0.13829810738E+02  0.19539163452E+02  0.33639589655E+02  0.00000000000E+00 0. -1.
        -12    1    4    4    0    0  0.18489502875E+02  0.49127606508E+02  0.40295785961E+02  0.66175024019E+02  0.00000000000E+00 0.  1.
</event>
<event>
12    1  0.8196217E-002  0.2426506E+03  0.7818608E-02  0.1118182E+00
         21   -1    0    0  501  502  0.00000000000E+00  0.00000000000E+00  0.80119622335E+02  0.80119622335E+02  0.00000000000E+00 0. -1.
         21   -1    0    0  502  503 -0.00000000000E+00 -0.00000000000E+00 -0.15390329947E+04  0.15390329947E+04  0.00000000000E+00 0.  1.
         -6    2    1    2    0  503  0.26732956255E+01 -0.17051248377E+03 -0.13149812350E+04  0.13370253924E+04  0.17140477793E+03 0.  0.
        -24    2    3    3    0    0 -0.33384075302E+02 -0.45240028158E+02 -0.79762426451E+03  0.80347722490E+03  0.78803724292E+02 0.  0.
          6    2    1    2  501    0 -0.26732956255E+01  0.17051248377E+03 -0.14393213735E+03  0.28212722462E+03  0.17261997879E+03 0.  0.
         24    2    5    5    0    0  0.21504067378E+02  0.47972362246E+02 -0.12246780056E+03  0.15530674512E+03  0.79737384292E+02 0.  0.
          5    1    5    5  501    0 -0.24177363003E+02  0.12254012153E+03 -0.21464336791E+02  0.12682047950E+03  0.47000000000E+01 0. -1.
        -11    1    6    6    0    0  0.21429662356E+00 -0.20186028408E+02 -0.48315030035E+02  0.52362809256E+02  0.00000000000E+00 0.  1.
         12    1    6    6    0    0  0.21289770754E+02  0.68158390655E+02 -0.74152770524E+02  0.10294393587E+03  0.00000000000E+00 0. -1.
         -5    1    3    3    0  503  0.36057370928E+02 -0.12527245562E+03 -0.51735697052E+03  0.53354816754E+03  0.47000000000E+01 0.  1.
         13    1    4    4    0    0 -0.10436723517E+02  0.19722781592E+02 -0.10000991289E+03  0.10246900013E+03  0.00000000000E+00 0. -1.
        -14    1    4    4    0    0 -0.22947351785E+02 -0.64962809750E+02 -0.69761435162E+03  0.70100822477E+03  0.00000000000E+00 0.  1.
</event>
<event>
12    1  0.8196217E-002  0.2397791E+03  0.7818608E-02  0.1120337E+00
         21   -1    0    0  501  502  0.00000000000E+00  0.00000000000E+00  0.15139301582E+03  0.15139301582E+03  0.00000000000E+00 0.  1.
         21   -1    0    0  502  503 -0.00000000000E+00 -0.00000000000E+00 -0.37670251142E+03  0.37670251142E+03  0.00000000000E+00 0.  1.
         -6    2    1    2    0  503 -0.12604531400E+03  0.10896857904E+03 -0.10093123348E+03  0.25797706163E+03  0.16912562798E+03 0.  0.
        -24    2    3    3    0    0 -0.15813660550E+02  0.19304408254E+02 -0.76412741143E+02  0.11370673409E+03  0.80421280328E+02 0.  0.
          6    2    1    2  501    0  0.12604531400E+03 -0.10896857904E+03 -0.12437826213E+03  0.27011846561E+03  0.17243103252E+03 0.  0.
         24    2    5    5    0    0  0.38025697650E+02 -0.10476042943E+03 -0.11909906854E+03  0.18171529106E+03  0.80094679106E+02 0.  0.
          5    1    5    5  501    0  0.88019616347E+02 -0.42081496028E+01 -0.52791935867E+01  0.88403174547E+02  0.47000000000E+01 0. -1.
        -11    1    6    6    0    0  0.50324898492E+02 -0.25218338012E+02 -0.41718621845E+02  0.70064280407E+02  0.00000000000E+00 0.  1.
         12    1    6    6    0    0 -0.12299200842E+02 -0.79542091422E+02 -0.77380446698E+02  0.11165101066E+03  0.00000000000E+00 0. -1.
         -5    1    3    3    0  503 -0.11023165345E+03  0.89664170783E+02 -0.24518492332E+02  0.14427032755E+03  0.47000000000E+01 0.  1.
         13    1    4    4    0    0 -0.36864974945E+02 -0.14792028292E+02 -0.56214843760E+02  0.68832689455E+02  0.00000000000E+00 0. -1.
        -14    1    4    4    0    0  0.21051314395E+02  0.34096436546E+02 -0.20197897383E+02  0.44874044631E+02  0.00000000000E+00 0.  1.
</event>
<event>
12    1  0.8196217E-002  0.3905243E+03  0.7818608E-02  0.1047125E+00
         21   -1    0    0  503  502  0.00000000000E+00  0.00000000000E+00  0.20531692689E+04  0.20531692689E+04  0.00000000000E+00 0. -1.
         21   -1    0    0  501  503 -0.00000000000E+00 -0.00000000000E+00 -0.87183726227E+02  0.87183726227E+02  0.00000000000E+00 0.  1.
          6    2    1    2  501    0 -0.80881113159E+02  0.34098028811E+03  0.57065189139E+03  0.69139983688E+03  0.17199081936E+03 0.  0.
         24    2    3    3    0    0 -0.78547156098E+02  0.24455689223E+03  0.51225374925E+03  0.57854882167E+03  0.79605943026E+02 0.  0.
         -6    2    1    2    0  502  0.80881113159E+02 -0.34098028811E+03  0.13953336513E+04  0.14489531583E+04  0.17233671997E+03 0.  0.
        -24    2    5    5    0    0  0.11627161850E+03 -0.23610979170E+03  0.88458770738E+03  0.92633109777E+03  0.79542238108E+02 0.  0.
          5    1    3    3  501    0 -0.23339570609E+01  0.96423395884E+02  0.58398142143E+02  0.11285101521E+03  0.47000000000E+01 0. -1.
        -13    1    4    4    0    0  0.15891712040E+02  0.23515238095E+02  0.48165710705E+02  0.55905711890E+02  0.00000000000E+00 0.  1.
         14    1    4    4    0    0 -0.94438868139E+02  0.22104165413E+03  0.46408803855E+03  0.52264310978E+03  0.00000000000E+00 0. -1.
         -5    1    5    5    0  502 -0.35390505337E+02 -0.10487049641E+03  0.51074594390E+03  0.52262206048E+03  0.47000000000E+01 0.  1.
         11    1    6    6    0    0  0.76536835639E+02 -0.17607495653E+03  0.74412070726E+03  0.76848936525E+03  0.00000000000E+00 0. -1.
        -12    1    6    6    0    0  0.39734782857E+02 -0.60034835173E+02  0.14046700012E+03  0.15784173252E+03  0.00000000000E+00 0.  1.
</event>
<event>
12    1  0.8196217E-002  0.2459646E+03  0.7818608E-02  0.1116020E+00
         21   -1    0    0  501  502  0.00000000000E+00  0.00000000000E+00  0.99818611042E+02  0.99818611042E+02  0.00000000000E+00 0.  1.
         21   -1    0    0  502  503 -0.00000000000E+00 -0.00000000000E+00 -0.98699187866E+03  0.98699187866E+03  0.00000000000E+00 0.  1.
         -6    2    1    2    0  503  0.11456269721E+03  0.13167108584E+03 -0.78162510303E+03  0.81915590098E+03  0.17209503765E+03 0.  0.
        -24    2    3    3    0    0  0.57297786690E+02  0.77136924711E+01 -0.44956083552E+03  0.46008282610E+03  0.78922269513E+02 0.  0.
          6    2    1    2  501    0 -0.11456269721E+03 -0.13167108584E+03 -0.10554816459E+03  0.26765458872E+03  0.17331092689E+03 0.  0.
         24    2    5    5    0    0 -0.10563959945E+03 -0.12582596562E+03 -0.22753603754E+02  0.18404348654E+03  0.79764527571E+02 0.  0.
          5    1    5    5  501    0 -0.89230977637E+01 -0.58451202129E+01 -0.82794560832E+02  0.83611102178E+02  0.47000000000E+01 0. -1.
        -11    1    6    6    0    0 -0.66351788155E+02 -0.19699961239E+02 -0.13335775649E+02  0.70487524969E+02  0.00000000000E+00 0.  1.
         12    1    6    6    0    0 -0.39287811295E+02 -0.10612600439E+03 -0.94178281053E+01  0.11355596158E+03  0.00000000000E+00 0. -1.
         -5    1    3    3    0  503  0.57264910523E+02  0.12395739337E+03 -0.33206426751E+03  0.35907307488E+03  0.47000000000E+01 0.  1.
         11    1    4    4    0    0  0.12285077442E+02 -0.30190536475E+00 -0.35332176749E+03  0.35353540934E+03  0.00000000000E+00 0. -1.
        -12    1    4    4    0    0  0.45012709248E+02  0.80155978358E+01 -0.96239068032E+02  0.10654741676E+03  0.00000000000E+00 0.  1.
</event>
<event>
12    1  0.8196217E-002  0.1846753E+03  0.7818608E-02  0.1163581E+00
         21   -1    0    0  503  502  0.00000000000E+00  0.00000000000E+00  0.20004599934E+03  0.20004599934E+03  0.00000000000E+00 0.  1.
         21   -1    0    0  501  503 -0.00000000000E+00 -0.00000000000E+00 -0.21933385507E+03  0.21933385507E+03  0.00000000000E+00 0.  1.
          6    2    1    2  501    0  0.60792018873E+02 -0.16222278800E+02  0.90196416857E+02  0.20552463877E+03  0.17362647160E+03 0.  0.
         24    2    3    3    0    0  0.81213028070E+02  0.42637680839E+01  0.11893951198E+03  0.16447648107E+03  0.79323197538E+02 0.  0.
         -6    2    1    2    0  502 -0.60792018873E+02  0.16222278800E+02 -0.10948427259E+03  0.21385521564E+03  0.17259320794E+03 0.  0.
        -24    2    5    5    0    0 -0.99743524613E+02 -0.51667589487E+01 -0.11098864625E+03  0.16914432351E+03  0.79472362986E+02 0.  0.
          5    1    3    3  501    0 -0.20421009196E+02 -0.20486046883E+02 -0.28743095127E+02  0.41048157705E+02  0.47000000000E+01 0. -1.
        -13    1    4    4    0    0  0.52584830073E+02 -0.31985151305E+02  0.92937752546E+02  0.11147035528E+03  0.00000000000E+00 0.  1.
         14    1    4    4    0    0  0.28628197997E+02  0.36248919389E+02  0.26001759437E+02  0.53006125790E+02  0.00000000000E+00 0. -1.
         -5    1    5    5    0  502  0.38951505740E+02  0.21389037748E+02  0.15043736679E+01  0.44710892133E+02  0.47000000000E+01 0.  1.
         11    1    6    6    0    0 -0.54463316542E+02 -0.17946527151E+02 -0.10765762306E+03  0.12197743434E+03  0.00000000000E+00 0. -1.
        -12    1    6    6    0    0 -0.45280208071E+02  0.12779768202E+02 -0.33310231910E+01  0.47166889168E+02  0.00000000000E+00 0.  1.
</event>
<event>
12    1  0.8196217E-002  0.1739171E+03  0.7818608E-02  0.1174569E+00
         21   -1    0    0  501  502  0.00000000000E+00  0.00000000000E+00  0.13989789193E+04  0.13989789193E+04  0.00000000000E+00 0.  1.
         21   -1    0    0  502  503 -0.00000000000E+00 -0.00000000000E+00 -0.25350990991E+02  0.25350990991E+02  0.00000000000E+00 0.  1.
         -6    2    1    2    0  503 -0.13141353270E+02  0.27849748818E+02  0.40559147010E+03  0.44130668236E+03  0.17116904977E+03 0.  0.
        -24    2    3    3    0    0 -0.59751457101E+02 -0.18134401495E+02  0.16455482828E+03  0.19149115730E+03  0.75441889366E+02 0.  0.
          6    2    1    2  501    0  0.13141353270E+02 -0.27849748818E+02  0.96803645817E+03  0.98302322790E+03  0.16820160095E+03 0.  0.
         24    2    5    5    0    0 -0.41403133621E+02 -0.60085388854E+02  0.67618367337E+03  0.68433547198E+03  0.75935529561E+02 0.  0.
          5    1    5    5  501    0  0.54544486890E+02  0.32235640035E+02  0.29185278480E+03  0.29868775591E+03  0.47000000000E+01 0. -1.
        -11    1    6    6    0    0 -0.45456786284E+02 -0.49832333291E+02  0.28041158234E+03  0.28840984098E+03  0.00000000000E+00 0.  1.
         12    1    6    6    0    0  0.40536526636E+01 -0.10253055562E+02  0.39577209103E+03  0.39592563101E+03  0.00000000000E+00 0. -1.
         -5    1    3    3    0  503  0.46610103832E+02  0.45984150313E+02  0.24103664182E+03  0.24981552505E+03  0.47000000000E+01 0.  1.
         13    1    4    4    0    0 -0.29294220968E+02 -0.18421306987E+02  0.15608759800E+03  0.15987755997E+03  0.00000000000E+00 0. -1.
        -14    1    4    4    0    0 -0.30457236134E+02  0.28690549179E+00  0.84672302839E+01  0.31613597333E+02  0.00000000000E+00 0.  1.
</event>
<event>
12    1  0.8196217E-002  0.1736042E+03  0.7818608E-02  0.1174482E+00
         21   -1    0    0  501  502  0.00000000000E+00  0.00000000000E+00  0.88514698165E+02  0.88514698165E+02  0.00000000000E+00 0. -1.
         21   -1    0    0  502  503 -0.00000000000E+00 -0.00000000000E+00 -0.49034930858E+03  0.49034930858E+03  0.00000000000E+00 0. -1.
         -6    2    1    2    0  503  0.12401030554E+02 -0.11544588509E+02 -0.36178031750E+03  0.40069899813E+03  0.17142819456E+03 0.  0.
        -24    2    3    3    0    0  0.51674740100E+00  0.11202853814E+01 -0.37136811727E+03  0.38031147447E+03  0.81981809067E+02 0.  0.
          6    2    1    2  501    0 -0.12401030554E+02  0.11544588509E+02 -0.40054292915E+02  0.17816500862E+03  0.17277546363E+03 0.  0.
         24    2    5    5    0    0 -0.23266622465E+02  0.72537513180E+02 -0.24537796429E+02  0.11412557068E+03  0.81360407392E+02 0.  0.
          5    1    5    5  501    0  0.10865591911E+02 -0.60992924671E+02 -0.15516496486E+02  0.64039437933E+02  0.47000000000E+01 0. -1.
        -11    1    6    6    0    0 -0.22609802267E+02 -0.98539246877E+01  0.74125218898E+01  0.25753610836E+02  0.00000000000E+00 0.  1.
         12    1    6    6    0    0 -0.65682019765E+00  0.82391437868E+02 -0.31950318319E+02  0.88371959848E+02  0.00000000000E+00 0. -1.
         -5    1    3    3    0  503  0.11884283153E+02 -0.12664873890E+02  0.95877997701E+01  0.20387523664E+02  0.47000000000E+01 0.  1.
         13    1    4    4    0    0  0.28328867065E+02 -0.26903340904E+02 -0.13027694090E+03  0.13600880777E+03  0.00000000000E+00 0. -1.
        -14    1    4    4    0    0 -0.27812119664E+02  0.28023626285E+02 -0.24109117638E+03  0.24430266670E+03  0.00000000000E+00 0.  1.
</event>
<event>
12    1  0.8196217E-002  0.1885865E+03  0.7818608E-02  0.1160470E+00
         21   -1    0    0  503  502  0.00000000000E+00  0.00000000000E+00  0.73818617707E+03  0.73818617707E+03  0.00000000000E+00 0.  1.
         21   -1    0    0  501  503 -0.00000000000E+00 -0.00000000000E+00 -0.59446009942E+02  0.59446009942E+02  0.00000000000E+00 0. -1.
          6    2    1    2  501    0  0.23426565809E+02  0.72246715309E+02  0.51680180426E+03  0.54905842000E+03  0.16915274702E+03 0.  0.
         24    2    3    3    0    0  0.21511696178E+02  0.88554769102E+02  0.51757114835E+03  0.53196160057E+03  0.82453324236E+02 0.  0.
         -6    2    1    2    0  502 -0.23426565809E+02 -0.72246715309E+02  0.16193836286E+03  0.24857376701E+03  0.17261660529E+03 0.  0.
        -24    2    5    5    0    0 -0.28258939081E+02 -0.71692223666E+02  0.47224442844E+02  0.13366061398E+03  0.98471666772E+02 0.  0.
          5    1    3    3  501    0  0.19148696307E+01 -0.16308053794E+02 -0.76934408392E+00  0.17096819428E+02  0.47000000000E+01 0. -1.
        -11    1    4    4    0    0  0.26613782504E+02  0.22585140237E+01  0.23364846608E+03  0.23517015118E+03  0.00000000000E+00 0.  1.
         12    1    4    4    0    0 -0.51020863261E+01  0.86296255079E+02  0.28392268226E+03  0.29679144939E+03  0.00000000000E+00 0. -1.
         -5    1    5    5    0  502  0.48323732724E+01 -0.55449164313E+00  0.11471392002E+03  0.11491315302E+03  0.47000000000E+01 0.  1.
         13    1    6    6    0    0 -0.51466176551E+01 -0.18852702615E+01 -0.27961434741E+02  0.28493573837E+02  0.00000000000E+00 0. -1.
        -14    1    6    6    0    0 -0.23112321426E+02 -0.69806953404E+02  0.75185877585E+02  0.10516704015E+03  0.00000000000E+00 0.  1.
</event>
<event>
12    1  0.8196217E-002  0.1966643E+03  0.7818608E-02  0.1152622E+00
         21   -1    0    0  501  502  0.00000000000E+00  0.00000000000E+00  0.61546495662E+03  0.61546495662E+03  0.00000000000E+00 0. -1.
         21   -1    0    0  502  503 -0.00000000000E+00 -0.00000000000E+00 -0.82489320554E+02  0.82489320554E+02  0.00000000000E+00 0. -1.
         -6    2    1    2    0  503 -0.59695150998E+02 -0.76291148850E+02  0.95840721010E+02  0.21861747847E+03  0.17095118497E+03 0.  0.
        -24    2    3    3    0    0  0.11533190686E+02 -0.50274656990E+00  0.80076065502E+02  0.11331803430E+03  0.79344397338E+02 0.  0.
          6    2    1    2  501    0  0.59695150998E+02  0.76291148850E+02  0.43713491506E+03  0.47933679871E+03  0.17115192722E+03 0.  0.
         24    2    5    5    0    0  0.26941790592E+02  0.39408300272E+02  0.41515947395E+03  0.42513221266E+03  0.78109763925E+02 0.  0.
          5    1    5    5  501    0  0.32753360406E+02  0.36882848579E+02  0.21975441111E+02  0.54204586053E+02  0.47000000000E+01 0. -1.
        -13    1    6    6    0    0 -0.26428258594E+02  0.75498163317E+01  0.90708399097E+02  0.94781149211E+02  0.00000000000E+00 0.  1.
         14    1    6    6    0    0  0.53370049186E+02  0.31858483940E+02  0.32445107485E+03  0.33035106345E+03  0.00000000000E+00 0. -1.
         -5    1    3    3    0  503 -0.71228341683E+02 -0.75788402281E+02  0.15764655508E+02  0.10529944417E+03  0.47000000000E+01 0.  1.
         11    1    4    4    0    0  0.49544877728E+01  0.83171975283E-01 -0.16135914076E+02  0.16879620545E+02  0.00000000000E+00 0. -1.
        -12    1    4    4    0    0  0.65787029128E+01 -0.58591854519E+00  0.96211979577E+02  0.96438413751E+02  0.00000000000E+00 0.  1.
</event>
<event>
12    1  0.8196217E-002  0.3241897E+03  0.7818608E-02  0.1073839E+00
         21   -1    0    0  503  502  0.00000000000E+00  0.00000000000E+00  0.26874439824E+03  0.26874439824E+03  0.00000000000E+00 0. -1.
         21   -1    0    0  501  503 -0.00000000000E+00 -0.00000000000E+00 -0.70007848972E+03  0.70007848972E+03  0.00000000000E+00 0.  1.
          6    2    1    2  501    0 -0.24368911696E+03  0.12587638436E+03 -0.53822480231E+03  0.62831911039E+03  0.17282857633E+03 0.  0.
         24    2    3    3    0    0 -0.24310273897E+03  0.70338704870E+02 -0.47020190878E+03  0.54037605082E+03  0.82885259158E+02 0.  0.
         -6    2    1    2    0  502  0.24368911696E+03 -0.12587638436E+03  0.10689071083E+03  0.34050377756E+03  0.17113722158E+03 0.  0.
        -24    2    5    5    0    0  0.23874436224E+03 -0.10346302264E+03  0.13509193631E+03  0.30384032844E+03  0.79785000953E+02 0.  0.
          5    1    3    3  501    0 -0.58637799025E+00  0.55537679487E+02 -0.68022893535E+02  0.87943059572E+02  0.47000000000E+01 0.  1.
        -11    1    4    4    0    0 -0.16772395491E+03  0.78818595603E+02 -0.37797841527E+03  0.42096481857E+03  0.00000000000E+00 0.  1.
         12    1    4    4    0    0 -0.75378784056E+02 -0.84798907336E+01 -0.92223493506E+02  0.11941123225E+03  0.00000000000E+00 0. -1.
         -5    1    5    5    0  502  0.49447547148E+01 -0.22413361718E+02 -0.28201225479E+02  0.36663449118E+02  0.47000000000E+01 0.  1.
         13    1    6    6    0    0  0.98283424765E+02 -0.14874024734E+01  0.55581055128E+02  0.11292075823E+03  0.00000000000E+00 0. -1.
        -14    1    6    6    0    0  0.14046093748E+03 -0.10197562017E+03  0.79510881183E+02  0.19091957021E+03  0.00000000000E+00 0.  1.
</event>
<event>
12    1  0.8196217E-002  0.3034714E+03  0.7818608E-02  0.1083539E+00
         21   -1    0    0  501  502  0.00000000000E+00  0.00000000000E+00  0.26222558384E+04  0.26222558384E+04  0.00000000000E+00 0.  1.
         21   -1    0    0  502  503 -0.00000000000E+00 -0.00000000000E+00 -0.63302390050E+02  0.63302390050E+02  0.00000000000E+00 0.  1.
         -6    2    1    2    0  503 -0.22052931999E+03  0.11800487014E+03  0.38302091223E+03  0.48856544491E+03  0.17156003150E+03 0.  0.
        -24    2    3    3    0    0 -0.11601133909E+03  0.58939821125E+01  0.13138162678E+03  0.19388378697E+03  0.82682653399E+02 0.  0.
          6    2    1    2  501    0  0.22052931999E+03 -0.11800487014E+03  0.21759325362E+04  0.21969927836E+04  0.17186203419E+03 0.  0.
         24    2    5    5    0    0  0.23563303534E+03 -0.77455853204E+02  0.18430970223E+04  0.18613234310E+04  0.77433484441E+02 0.  0.
          5    1    5    5  501    0 -0.15103715353E+02 -0.40549016941E+02  0.33283551381E+03  0.33566935256E+03  0.47000000000E+01 0. -1.
        -13    1    6    6    0    0  0.20783875770E+03 -0.73334362078E+02  0.13908170541E+04  0.14081714938E+04  0.00000000000E+00 0.  1.
         14    1    6    6    0    0  0.27794277647E+02 -0.41214911250E+01  0.45227996822E+03  0.45315193722E+03  0.00000000000E+00 0. -1.
         -5    1    3    3    0  503 -0.10451798090E+03  0.11211088803E+03  0.25163928545E+03  0.29468165794E+03  0.47000000000E+01 0.  1.
         13    1    4    4    0    0  0.11883864592E+02  0.33218174573E+01  0.31040835508E+01  0.12723837611E+02  0.00000000000E+00 0. -1.
        -14    1    4    4    0    0 -0.12789520368E+03  0.25721646552E+01  0.12827754323E+03  0.18115994936E+03  0.00000000000E+00 0.  1.
</event>
<event>
12    1  0.8196217E-002  0.1946360E+03  0.7818608E-02  0.1154774E+00
         21   -1    0    0  501  502  0.00000000000E+00  0.00000000000E+00  0.26341035674E+04  0.26341035674E+04  0.00000000000E+00 0.  1.
         21   -1    0    0  502  503 -0.00000000000E+00 -0.00000000000E+00 -0.48854420283E+02  0.48854420283E+02  0.00000000000E+00 0.  1.
         -6    2    1    2    0  503  0.86512234377E+02  0.31712081019E+00  0.16152838813E+03  0.25143470569E+03  0.17217294732E+03 0.  0.
        -24    2    3    3    0    0  0.36479113102E+02 -0.46998772576E+02  0.32135367786E+02  0.10478290479E+03  0.80044768457E+02 0.  0.
          6    2    1    2  501    0 -0.86512234377E+02 -0.31712081019E+00  0.24237207590E+04  0.24315232820E+04  0.17435218985E+03 0.  0.
         24    2    5    5    0    0 -0.67641500356E+02 -0.67239342855E+02  0.15866605971E+04  0.15915670373E+04  0.80605719450E+02 0.  0.
          5    1    5    5  501    0 -0.18870734020E+02  0.66922222045E+02  0.83706016186E+03  0.83995624468E+03  0.47000000000E+01 0. -1.
        -11    1    6    6    0    0 -0.75907203447E+02 -0.24210509116E+02  0.11318251699E+04  0.11346260474E+04  0.00000000000E+00 0.  1.
         12    1    6    6    0    0  0.82657030904E+01 -0.43028833739E+02  0.45483542721E+03  0.45694098988E+03  0.00000000000E+00 0. -1.
         -5    1    3    3    0  503  0.50033121274E+02  0.47315893387E+02  0.12939302035E+03  0.14665180090E+03  0.47000000000E+01 0.  1.
         11    1    4    4    0    0  0.50377242736E+02 -0.33935733514E+02  0.49982021563E+02  0.78661954428E+02  0.00000000000E+00 0. -1.
        -12    1    4    4    0    0 -0.13898129634E+02 -0.13063039062E+02 -0.17846653777E+02  0.26120950363E+02  0.00000000000E+00 0.  1.
</event>
<event>
12    1  0.8196217E-002  0.2683816E+03  0.7818608E-02  0.1102269E+00
         21   -1    0    0  501  502  0.00000000000E+00  0.00000000000E+00  0.40128977448E+03  0.40128977448E+03  0.00000000000E+00 0. -1.
         21   -1    0    0  502  503 -0.00000000000E+00 -0.00000000000E+00 -0.18221079593E+03  0.18221079593E+03  0.00000000000E+00 0. -1.
         -6    2    1    2    0  503  0.13978659405E+03  0.15087359860E+03  0.72054173930E+02  0.27748587580E+03  0.17176574938E+03 0.  0.
        -24    2    3    3    0    0  0.15051928884E+03  0.89506904482E+02  0.23603485195E+02  0.19842500607E+03  0.90265254970E+02 0.  0.
          6    2    1    2  501    0 -0.13978659405E+03 -0.15087359860E+03  0.14702480461E+03  0.30601469461E+03  0.17241103652E+03 0.  0.
         24    2    5    5    0    0 -0.10201363156E+03 -0.19326136260E+02  0.66384422433E+02  0.14709178002E+03  0.80304543086E+02 0.  0.
          5    1    5    5  501    0 -0.37772962489E+02 -0.13154746234E+03  0.80640382182E+02  0.15892291459E+03  0.47000000000E+01 0. -1.
        -13    1    6    6    0    0  0.21736932271E+01  0.14609607831E+02  0.26772777599E+02  0.30576906376E+02  0.00000000000E+00 0.  1.
         14    1    6    6    0    0 -0.10418732478E+03 -0.33935744090E+02  0.39611644834E+02  0.11651487364E+03  0.00000000000E+00 0. -1.
         -5    1    3    3    0  503 -0.10732694798E+02  0.61366694119E+02  0.48450688735E+02  0.79060869737E+02  0.47000000000E+01 0.  1.
         13    1    4    4    0    0  0.29878467955E+02  0.67936820320E+02  0.41112346550E+01  0.74330590291E+02  0.00000000000E+00 0. -1.
        -14    1    4    4    0    0  0.12064082089E+03  0.21570084162E+02  0.19492250540E+02  0.12409441578E+03  0.00000000000E+00 0.  1.
</event>
<event>
12    1  0.8196217E-002  0.1839702E+03  0.7818608E-02  0.1164051E+00
         21   -1    0    0  501  502  0.00000000000E+00  0.00000000000E+00  0.24197153604E+03  0.24197153604E+03  0.00000000000E+00 0.  1.
         21   -1    0    0  502  503 -0.00000000000E+00 -0.00000000000E+00 -0.13981355608E+03  0.13981355608E+03  0.00000000000E+00 0. -1.
         -6    2    1    2    0  503  0.13624043272E+02  0.66194443395E+02  0.47199455225E+02  0.18978127805E+03  0.17094392658E+03 0.  0.
        -24    2    3    3    0    0  0.43931148459E+02  0.57775547694E+02 -0.25170850009E+02  0.11073098072E+03  0.79748471357E+02 0.  0.
          6    2    1    2  501    0 -0.13624043272E+02 -0.66194443395E+02  0.54958524730E+02  0.19200381407E+03  0.17110729466E+03 0.  0.
         24    2    5    5    0    0  0.38794871842E+00 -0.22822589009E+02  0.99338413790E+02  0.12821417364E+03  0.77780028258E+02 0.  0.
          5    1    5    5  501    0 -0.14011991991E+02 -0.43371854385E+02 -0.44379889061E+02  0.63789640424E+02  0.47000000000E+01 0. -1.
        -11    1    6    6    0    0 -0.31809355375E+02 -0.27435851338E+02  0.29979926128E+02  0.51607722278E+02  0.00000000000E+00 0.  1.
         12    1    6    6    0    0  0.32197304094E+02  0.46132623292E+01  0.69358487662E+02  0.76606451367E+02  0.00000000000E+00 0. -1.
         -5    1    3    3    0  503 -0.30307105187E+02  0.84188957006E+01  0.72370305234E+02  0.79050297338E+02  0.47000000000E+01 0.  1.
         13    1    4    4    0    0  0.18248960600E+02  0.73628942073E+02 -0.26938646408E+02  0.80498051803E+02  0.00000000000E+00 0. -1.
        -14    1    4    4    0    0  0.25682187859E+02 -0.15853394379E+02  0.17677963994E+01  0.30232928913E+02  0.00000000000E+00 0.  1.
</event>
<event>
12    1  0.8196217E-002  0.2232833E+03  0.7818608E-02  0.1132187E+00
         21   -1    0    0  503  502  0.00000000000E+00  0.00000000000E+00  0.10079512839E+04  0.10079512839E+04  0.00000000000E+00 0.  1.
         21   -1    0    0  501  503 -0.00000000000E+00 -0.00000000000E+00 -0.85463894947E+02  0.85463894947E+02  0.00000000000E+00 0.  1.
          6    2    1    2  501    0 -0.61901253210E+02 -0.12742655520E+03  0.99816282398E+02  0.24098150686E+03  0.16745000537E+03 0.  0.
         24    2    3    3    0    0 -0.88311539579E+02 -0.13198313114E+03  0.11321752910E+03  0.21065084542E+03  0.79605871977E+02 0.  0.
         -6    2    1    2    0  502  0.61901253210E+02  0.12742655520E+03  0.82267110655E+03  0.85243367197E+03  0.17258656799E+03 0.  0.
        -24    2    5    5    0    0 -0.17068563209E+02  0.55923364300E+02  0.57607414343E+03  0.58376828449E+03  0.74197255497E+02 0.  0.
          5    1    3    3  501    0  0.26410286369E+02  0.45565759346E+01 -0.13401246704E+02  0.30330661443E+02  0.47000000000E+01 0. -1.
        -13    1    4    4    0    0 -0.56091602962E+02 -0.20601141990E+02  0.24188338640E+02  0.64465112273E+02  0.00000000000E+00 0.  1.
         14    1    4    4    0    0 -0.32219936616E+02 -0.11138198915E+03  0.89029190461E+02  0.14618573315E+03  0.00000000000E+00 0. -1.
         -5    1    5    5    0  502  0.78969816419E+02  0.71503190902E+02  0.24659696312E+03  0.26866538749E+03  0.47000000000E+01 0.  1.
         13    1    6    6    0    0 -0.28172730914E+02  0.37762618371E+01  0.81220753170E+02  0.86050994568E+02  0.00000000000E+00 0. -1.
        -14    1    6    6    0    0  0.11104167705E+02  0.52147102463E+02  0.49485339026E+03  0.49771728992E+03  0.00000000000E+00 0.  1.
</event>
<event>
12    1  0.8196217E-002  0.1731346E+03  0.7818608E-02  0.1178068E+00
         21   -1    0    0  501  502  0.00000000000E+00  0.00000000000E+00  0.49438324848E+02  0.49438324848E+02  0.00000000000E+00 0. -1.
         21   -1    0    0  502  503 -0.00000000000E+00 -0.00000000000E+00 -0.57941530152E+03  0.57941530152E+03  0.00000000000E+00 0. -1.
         -6    2    1    2    0  503  0.26051506289E+00  0.24472047963E+02 -0.19996994995E+03  0.25618726717E+03  0.15825607721E+03 0.  0.
        -24    2    3    3    0    0 -0.44033403428E+02  0.33438284389E+02 -0.18444424171E+03  0.20817182978E+03  0.79112406951E+02 0.  0.
          6    2    1    2  501    0 -0.26051506289E+00 -0.24472047963E+02 -0.33000702672E+03  0.37266635920E+03  0.17139611605E+03 0.  0.
         24    2    5    5    0    0 -0.62706295488E+02  0.22366863649E+01 -0.23507665112E+03  0.25584727603E+03  0.79118357475E+02 0.  0.
          5    1    5    5  501    0  0.62445780425E+02 -0.26708734327E+02 -0.94930375600E+02  0.11681908317E+03  0.47000000000E+01 0. -1.
        -13    1    6    6    0    0 -0.20414555494E+02  0.39511714523E+02 -0.97227787049E+02  0.10691666023E+03  0.00000000000E+00 0.  1.
         14    1    6    6    0    0 -0.42291739994E+02 -0.37275028158E+02 -0.13784886407E+03  0.14893061580E+03  0.00000000000E+00 0. -1.
         -5    1    3    3    0  503  0.44293918491E+02 -0.89662364269E+01 -0.15525708243E+02  0.48015437386E+02  0.47000000000E+01 0.  1.
         11    1    4    4    0    0 -0.24845196477E+02 -0.12013248141E+02 -0.14426169923E+02  0.31140268103E+02  0.00000000000E+00 0. -1.
        -12    1    4    4    0    0 -0.19188206951E+02  0.45451532531E+02 -0.17001807179E+03  0.17703156168E+03  0.00000000000E+00 0.  1.
</event>
<event>
12    1  0.8196217E-002  0.2024978E+03  0.7818608E-02  0.1147892E+00
         21   -1    0    0  503  502  0.00000000000E+00  0.00000000000E+00  0.20321675235E+03  0.20321675235E+03  0.00000000000E+00 0. -1.
         21   -1    0    0  501  503 -0.00000000000E+00 -0.00000000000E+00 -0.20118079911E+03  0.20118079911E+03  0.00000000000E+00 0. -1.
          6    2    1    2  501    0  0.10401710828E+03  0.10977438120E+02  0.11693358081E+02  0.20166963662E+03  0.17202861608E+03 0.  0.
         24    2    3    3    0    0  0.14608740719E+01  0.41654572973E+02  0.24942364345E+02  0.93704392477E+02  0.80132103602E+02 0.  0.
         -6    2    1    2    0  502 -0.10401710828E+03 -0.10977438120E+02 -0.96574048406E+01  0.20272791484E+03  0.17339342267E+03 0.  0.
        -24    2    5    5    0    0 -0.25913237257E+02  0.97374342990E+01 -0.62368390210E+02  0.10613672173E+03  0.81294982072E+02 0.  0.
          5    1    3    3  501    0  0.10255623420E+03 -0.30677134853E+02 -0.13249006264E+02  0.10796524415E+03  0.47000000000E+01 0. -1.
        -11    1    4    4    0    0  0.16254665409E+02  0.98805202181E+01  0.48080450888E+02  0.51706562301E+02  0.00000000000E+00 0.  1.
         12    1    4    4    0    0 -0.14793791337E+02  0.31774052755E+02 -0.23138086543E+02  0.41997830176E+02  0.00000000000E+00 0. -1.
         -5    1    5    5    0  502 -0.78103871018E+02 -0.20714872419E+02  0.52710985370E+02  0.96591193108E+02  0.47000000000E+01 0.  1.
         13    1    6    6    0    0 -0.43105671847E+02 -0.13062384330E+02 -0.63154235506E+02  0.77570498852E+02  0.00000000000E+00 0. -1.
        -14    1    6    6    0    0  0.17192434590E+02  0.22799818629E+02  0.78584529636E+00  0.28566222877E+02  0.00000000000E+00 0.  1.
</event>
<event>
12    1  0.8196217E-002  0.1885613E+03  0.7818608E-02  0.1160060E+00
         21   -1    0    0  503  502  0.00000000000E+00  0.00000000000E+00  0.65640150189E+02  0.65640150189E+02  0.00000000000E+00 0.  1.
         21   -1    0    0  501  503 -0.00000000000E+00 -0.00000000000E+00 -0.54240411630E+03  0.54240411630E+03  0.00000000000E+00 0.  1.
          6    2    1    2  501    0 -0.32373049849E+02 -0.66806703233E+02 -0.21172604081E+03  0.28351944066E+03  0.17333264817E+03 0.  0.
         24    2    3    3    0    0 -0.70234954904E+02 -0.61367820106E+02 -0.87818806700E+02  0.15375735849E+03  0.85030725299E+02 0.  0.
         -6    2    1    2    0  502  0.32373049849E+02  0.66806703233E+02 -0.26503792530E+03  0.32452482583E+03  0.17193054056E+03 0.  0.
        -24    2    5    5    0    0  0.57479196955E+02  0.60610942734E+01 -0.75841217351E+02  0.12418054233E+03  0.79550750459E+02 0.  0.
          5    1    3    3  501    0  0.37861905055E+02 -0.54388831275E+01 -0.12390723411E+03  0.12976208217E+03  0.47000000000E+01 0. -1.
        -13    1    4    4    0    0 -0.30868772747E+02 -0.47494628944E+01 -0.78104585687E+02  0.84117565550E+02  0.00000000000E+00 0.  1.
         14    1    4    4    0    0 -0.39366182156E+02 -0.56618357211E+02 -0.97142210130E+01  0.69639792940E+02  0.00000000000E+00 0. -1.
         -5    1    5    5    0  502 -0.25106147106E+02  0.60745608960E+02 -0.18919670795E+03  0.20034428350E+03  0.47000000000E+01 0.  1.
         11    1    6    6    0    0 -0.15237332578E+01 -0.21092090293E+02  0.37223913516E+01  0.21472173465E+02  0.00000000000E+00 0. -1.
        -12    1    6    6    0    0  0.59002930213E+02  0.27153184566E+02 -0.79563608703E+02  0.10270836887E+03  0.00000000000E+00 0.  1.
</event>
<event>
12    1  0.8196217E-002  0.2195816E+03  0.7818608E-02  0.1134207E+00
         21   -1    0    0  501  502  0.00000000000E+00  0.00000000000E+00  0.55441905524E+03  0.55441905524E+03  0.00000000000E+00 0.  1.
         21   -1    0    0  502  503 -0.00000000000E+00 -0.00000000000E+00 -0.13869883228E+03  0.13869883228E+03  0.00000000000E+00 0.  1.
         -6    2    1    2    0  503  0.93598877166E+02 -0.98799565140E+02 -0.38572512768E+01  0.21955548285E+03  0.17224293247E+03 0.  0.
        -24    2    3    3    0    0  0.13275826959E+03 -0.64535951633E+02  0.58687535044E+01  0.16641285971E+03  0.76610380574E+02 0.  0.
          6    2    1    2  501    0 -0.93598877166E+02  0.98799565140E+02  0.41957747423E+03  0.47356240466E+03  0.17231944275E+03 0.  0.
         24    2    5    5    0    0 -0.11692711115E+02  0.79642887596E+02  0.33655992723E+03  0.35528475909E+03  0.80467175837E+02 0.  0.
          5    1    5    5  501    0 -0.81906166051E+02  0.19156677544E+02  0.83017547000E+02  0.11827764557E+03  0.47000000000E+01 0. -1.
        -13    1    6    6    0    0  0.66105977314E+01  0.91176308774E+02  0.28704000958E+03  0.30124539230E+03  0.00000000000E+00 0.  1.
         14    1    6    6    0    0 -0.18303308846E+02 -0.11533421178E+02  0.49519917659E+02  0.54039366796E+02  0.00000000000E+00 0. -1.
         -5    1    3    3    0  503 -0.39159392424E+02 -0.34263613507E+02 -0.97260047812E+01  0.53142623144E+02  0.47000000000E+01 0.  1.
         13    1    4    4    0    0  0.93118130288E+02 -0.19175277294E+02 -0.25585831412E+02  0.98454620088E+02  0.00000000000E+00 0. -1.
        -14    1    4    4    0    0  0.39640139302E+02 -0.45360674339E+02  0.31454584916E+02  0.67958239622E+02  0.00000000000E+00 0.  1.
</event>
<event>
12    1  0.8196217E-002  0.2509217E+03  0.7818608E-02  0.1112824E+00
         21   -1    0    0  503  502  0.00000000000E+00  0.00000000000E+00  0.51743768414E+02  0.51743768414E+02  0.00000000000E+00 0. -1.
         21   -1    0    0  501  503 -0.00000000000E+00 -0.00000000000E+00 -0.12929097424E+04  0.12929097424E+04  0.00000000000E+00 0.  1.
          6    2    1    2  501    0 -0.17549394660E+03  0.50858741595E+02 -0.78773960906E+03  0.82673780870E+03  0.17197957952E+03 0.  0.
         24    2    3    3    0    0 -0.13993603752E+03  0.87610613985E+02 -0.71029372224E+03  0.73381299820E+03  0.81894018039E+02 0.  0.
         -6    2    1    2    0  502  0.17549394660E+03 -0.50858741595E+02 -0.45342636489E+03  0.51791570208E+03  0.17104522556E+03 0.  0.
        -24    2    5    5    0    0  0.16185145488E+03  0.64800807952E+01 -0.26585500585E+03  0.32124602249E+03  0.79260569884E+02 0.  0.
          5    1    3    3  501    0 -0.35557909083E+02 -0.36751872389E+02 -0.77445886813E+02  0.92924810501E+02  0.47000000000E+01 0. -1.
        -11    1    4    4    0    0 -0.66716718090E+02 -0.91546465957E-01 -0.19813228216E+03  0.20906345948E+03  0.00000000000E+00 0.  1.
         12    1    4    4    0    0 -0.73219319430E+02  0.87702160451E+02 -0.51216144008E+03  0.52474953872E+03  0.00000000000E+00 0. -1.
         -5    1    5    5    0  502  0.13642491722E+02 -0.57338822390E+02 -0.18757135904E+03  0.19666967958E+03  0.47000000000E+01 0.  1.
         11    1    6    6    0    0  0.11620082412E+02 -0.21611669068E+02 -0.19539776054E+02  0.31367075149E+02  0.00000000000E+00 0. -1.
        -12    1    6    6    0    0  0.15023137247E+03  0.28091749863E+02 -0.24631522979E+03  0.28987894734E+03  0.00000000000E+00 0.  1.
</event>
<event>
12    1  0.8196217E-002  0.2587010E+03  0.7818608E-02  0.1108364E+00
         21   -1    0    0  503  502  0.00000000000E+00  0.00000000000E+00  0.88367555673E+02  0.88367555673E+02  0.00000000000E+00 0. -1.
         21   -1    0    0  501  503 -0.00000000000E+00 -0.00000000000E+00 -0.84166145299E+03  0.84166145299E+03  0.00000000000E+00 0.  1.
          6    2    1    2  501    0  0.19335499291E+03 -0.13996004670E+02 -0.53285497555E+03  0.59233491986E+03  0.17130146204E+03 0.  0.
         24    2    3    3    0    0  0.11954605002E+03  0.31078250064E+02 -0.19906488499E+03  0.24749095074E+03  0.79798662626E+02 0.  0.
         -6    2    1    2    0  502 -0.19335499291E+03  0.13996004670E+02 -0.22043892177E+03  0.33769408880E+03  0.16691895623E+03 0.  0.
        -24    2    5    5    0    0 -0.82251873493E+02 -0.72177306866E+01 -0.34036604018E+02  0.11960731759E+03  0.79561006024E+02 0.  0.
          5    1    3    3  501    0  0.73808942882E+02 -0.45074254734E+02 -0.33379009056E+03  0.34484396913E+03  0.47000000000E+01 0. -1.
        -13    1    4    4    0    0  0.43197748227E+02  0.22739470872E+02 -0.14650883172E+03  0.15442786911E+03  0.00000000000E+00 0.  1.
         14    1    4    4    0    0  0.76348301797E+02  0.83387791924E+01 -0.52556053271E+02  0.93063081623E+02  0.00000000000E+00 0. -1.
         -5    1    5    5    0  502 -0.11110311941E+03  0.21213735356E+02 -0.18640231775E+03  0.21808677120E+03  0.47000000000E+01 0.  1.
         11    1    6    6    0    0 -0.91633339563E+02  0.12515712967E+02 -0.23910531288E+02  0.95524999330E+02  0.00000000000E+00 0. -1.
        -12    1    6    6    0    0  0.93814660698E+01 -0.19733443653E+02 -0.10126072730E+02  0.24082318264E+02  0.00000000000E+00 0.  1.
</event>
<event>
12    1  0.8196217E-002  0.2085402E+03  0.7818608E-02  0.1144040E+00
         21   -1    0    0  501  502  0.00000000000E+00  0.00000000000E+00  0.89031177400E+03  0.89031177400E+03  0.00000000000E+00 0.  1.
         21   -1    0    0  502  503 -0.00000000000E+00 -0.00000000000E+00 -0.65777026812E+02  0.65777026812E+02  0.00000000000E+00 0.  1.
         -6    2    1    2    0  503  0.17024238050E+02  0.10417874237E+03  0.16390626247E+03  0.26524377995E+03  0.17984983982E+03 0.  0.
        -24    2    3    3    0    0 -0.52073702027E+02  0.65183062020E+02  0.48778225856E+02  0.12534473341E+03  0.79821581413E+02 0.  0.
          6    2    1    2  501    0 -0.17024238050E+02 -0.10417874237E+03  0.66062848472E+03  0.69084502086E+03  0.17231892810E+03 0.  0.
         24    2    5    5    0    0 -0.11529534775E+02 -0.10828294644E+03  0.66661239935E+03  0.68060131600E+03  0.83593861643E+02 0.  0.
          5    1    5    5  501    0 -0.54947032750E+01  0.41042040693E+01 -0.59839146284E+01  0.10243704867E+02  0.47000000000E+01 0. -1.
        -11    1    6    6    0    0 -0.45934607898E+02 -0.51386615707E+02  0.39505573168E+03  0.40102319585E+03  0.00000000000E+00 0.  1.
         12    1    6    6    0    0  0.34405073123E+02 -0.56896330733E+02  0.27155666768E+03  0.27957812015E+03  0.00000000000E+00 0. -1.
         -5    1    3    3    0  503  0.69097940077E+02  0.38995680351E+02  0.11512803661E+03  0.13989904654E+03  0.47000000000E+01 0.  1.
         11    1    4    4    0    0 -0.61053398839E+02  0.46210336785E+02  0.49263103041E+01  0.76727969274E+02  0.00000000000E+00 0. -1.
        -12    1    4    4    0    0  0.89796968126E+01  0.18972725234E+02  0.43851915552E+02  0.48616764138E+02  0.00000000000E+00 0.  1.
</event>
<event>
12    1  0.8196217E-002  0.1888217E+03  0.7818608E-02  0.1159718E+00
         21   -1    0    0  501  502  0.00000000000E+00  0.00000000000E+00  0.56808376588E+03  0.56808376588E+03  0.00000000000E+00 0. -1.
         21   -1    0    0  502  503 -0.00000000000E+00 -0.00000000000E+00 -0.92949382488E+02  0.92949382488E+02  0.00000000000E+00 0. -1.
         -6    2    1    2    0  503  0.49018982080E+01  0.78676528858E+02  0.48701200705E+02  0.19500109889E+03  0.17157970982E+03 0.  0.
        -24    2    3    3    0    0 -0.53133304127E+02  0.66484673741E+02  0.68538847745E+02  0.13229266022E+03  0.74568186562E+02 0.  0.
          6    2    1    2  501    0 -0.49018982080E+01 -0.78676528858E+02  0.42643318268E+03  0.46603204947E+03  0.17066513129E+03 0.  0.
         24    2    5    5    0    0 -0.56148916346E+02 -0.12439772194E+01  0.21762438557E+03  0.23745982746E+03  0.76632552988E+02 0.  0.
          5    1    5    5  501    0  0.51247018138E+02 -0.77432551639E+02  0.20880879711E+03  0.22857222201E+03  0.47000000000E+01 0. -1.
        -11    1    6    6    0    0 -0.48552619933E+02 -0.18459510869E+02  0.62809059793E+02  0.81505143617E+02  0.00000000000E+00 0.  1.
         12    1    6    6    0    0 -0.75962964136E+01  0.17215533649E+02  0.15481532578E+03  0.15595468384E+03  0.00000000000E+00 0. -1.
         -5    1    3    3    0  503  0.58035202335E+02  0.12191855118E+02 -0.19837647040E+02  0.62708438678E+02  0.47000000000E+01 0.  1.
         13    1    4    4    0    0 -0.19388529207E+02  0.55100593641E+02  0.39617840891E+01  0.58546444962E+02  0.00000000000E+00 0. -1.
        -14    1    4    4    0    0 -0.33744774920E+02  0.11384080099E+02  0.64577063656E+02  0.73746215255E+02  0.00000000000E+00 0.  1.
</event>
<event>
12    1  0.8196217E-002  0.1898858E+03  0.7818608E-02  0.1158578E+00
         21   -1    0    0  501  502  0.00000000000E+00  0.00000000000E+00  0.32236429295E+02  0.32236429295E+02  0.00000000000E+00 0. -1.
         21   -1    0    0  502  503 -0.00000000000E+00 -0.00000000000E+00 -0.12212309835E+04  0.12212309835E+04  0.00000000000E+00 0. -1.
         -6    2    1    2    0  503 -0.74109702910E+02  0.30632430507E+02 -0.77668224693E+03  0.79955733739E+03  0.17212213460E+03 0.  0.
        -24    2    3    3    0    0 -0.82608652740E+02  0.68013465149E+01 -0.31606045619E+03  0.33821724937E+03  0.87328391619E+02 0.  0.
          6    2    1    2  501    0  0.74109702910E+02 -0.30632430507E+02 -0.41231230728E+03  0.45391007540E+03  0.17205325907E+03 0.  0.
         24    2    5    5    0    0  0.41084116355E+01  0.38708986766E+02 -0.18404838182E+03  0.20524378779E+03  0.82072777912E+02 0.  0.
          5    1    5    5  501    0  0.70001291274E+02 -0.69341417272E+02 -0.22826392546E+03  0.24866628761E+03  0.47000000000E+01 0. -1.
        -13    1    6    6    0    0  0.32805035433E+02 -0.90958700877E+01 -0.55264626442E+02  0.64908274805E+02  0.00000000000E+00 0.  1.
         14    1    6    6    0    0 -0.28696623797E+02  0.47804856853E+02 -0.12878375538E+03  0.14033551299E+03  0.00000000000E+00 0. -1.
         -5    1    3    3    0  503  0.84989498302E+01  0.23831083992E+02 -0.46062179074E+03  0.46134008802E+03  0.47000000000E+01 0.  1.
         13    1    4    4    0    0  0.76337867762E+01  0.15571774698E+02 -0.13096445593E+03  0.13210769691E+03  0.00000000000E+00 0. -1.
        -14    1    4    4    0    0 -0.90242439516E+02 -0.87704281827E+01 -0.18509600027E+03  0.20610955246E+03  0.00000000000E+00 0.  1.
</event>
<event>
12    1  0.8196217E-002  0.2448473E+03  0.7818608E-02  0.1117103E+00
         21   -1    0    0  503  502  0.00000000000E+00  0.00000000000E+00  0.12252889306E+04  0.12252889306E+04  0.00000000000E+00 0. -1.
         21   -1    0    0  501  503 -0.00000000000E+00 -0.00000000000E+00 -0.51375584451E+02  0.51375584451E+02  0.00000000000E+00 0.  1.
          6    2    1    2  501    0  0.16016935836E+03  0.67350581676E+02  0.43476315922E+03  0.49896813271E+03  0.17251048849E+03 0.  0.
         24    2    3    3    0    0  0.77045494255E+01  0.42475869598E+02  0.17481288393E+03  0.19654375392E+03  0.78780348042E+02 0.  0.
         -6    2    1    2    0  502 -0.16016935836E+03 -0.67350581676E+02  0.73915018694E+03  0.77769638235E+03  0.16816164860E+03 0.  0.
        -24    2    5    5    0    0 -0.40214055822E+02 -0.14887546706E+02  0.47153719813E+03  0.47973590439E+03  0.77203623047E+02 0.  0.
          5    1    3    3  501    0  0.15246480893E+03  0.24874712079E+02  0.25995027529E+03  0.30242437879E+03  0.47000000000E+01 0. -1.
        -13    1    4    4    0    0  0.35210560895E+02  0.17753055587E+02  0.37789003060E+02  0.54616511546E+02  0.00000000000E+00 0.  1.
         14    1    4    4    0    0 -0.27506011469E+02  0.24722814011E+02  0.13702388087E+03  0.14192724238E+03  0.00000000000E+00 0. -1.
         -5    1    5    5    0  502 -0.11995530253E+03 -0.52463034971E+02  0.26761298881E+03  0.29796047795E+03  0.47000000000E+01 0.  1.
         11    1    6    6    0    0 -0.51893927405E+02 -0.23665534755E+02  0.45065477842E+03  0.45424967424E+03  0.00000000000E+00 0. -1.
        -12    1    6    6    0    0  0.11679871583E+02  0.87779880493E+01  0.20882419712E+02  0.25486230153E+02  0.00000000000E+00 0.  1.
</event>
<event>
12    1  0.8196217E-002  0.2164584E+03  0.7818608E-02  0.1136701E+00
         21   -1    0    0  501  502  0.00000000000E+00  0.00000000000E+00  0.19284574538E+04  0.19284574538E+04  0.00000000000E+00 0.  1.
         21   -1    0    0  502  503 -0.00000000000E+00 -0.00000000000E+00 -0.26573049608E+02  0.26573049608E+02  0.00000000000E+00 0.  1.
         -6    2    1    2    0  503 -0.94730086492E+02  0.91878355517E+02  0.66089436374E+03  0.69543914214E+03  0.17157744287E+03 0.  0.
        -24    2    3    3    0    0 -0.90469435967E+02  0.97633813274E+01  0.26838480302E+03  0.29438195496E+03  0.79688709729E+02 0.  0.
          6    2    1    2  501    0  0.94730086492E+02 -0.91878355517E+02  0.12409900405E+04  0.12595913613E+04  0.17058339713E+03 0.  0.
         24    2    5    5    0    0  0.41649201480E+02 -0.12314813619E+03  0.90838909996E+03  0.92130028076E+03  0.81995920392E+02 0.  0.
          5    1    5    5  501    0  0.53080885012E+02  0.31269780675E+02  0.33260094049E+03  0.33829108051E+03  0.47000000000E+01 0. -1.
        -13    1    6    6    0    0  0.65741999015E+02 -0.78973117650E+02  0.64754614880E+03  0.65564836503E+03  0.00000000000E+00 0.  1.
         14    1    6    6    0    0 -0.24092797535E+02 -0.44175018543E+02  0.26084295116E+03  0.26565191572E+03  0.00000000000E+00 0. -1.
         -5    1    3    3    0  503 -0.42606505245E+01  0.82114974190E+02  0.39250956072E+03  0.40105718718E+03  0.47000000000E+01 0.  1.
         11    1    4    4    0    0 -0.98229663053E+00  0.29996498888E+01  0.12623246799E+03  0.12627192396E+03  0.00000000000E+00 0. -1.
        -12    1    4    4    0    0 -0.89487139337E+02  0.67637314387E+01  0.14215233503E+03  0.16811003100E+03  0.00000000000E+00 0.  1.
</event>
<event>
12    1  0.8196217E-002  0.1938949E+03  0.7818608E-02  0.1156751E+00
         21   -1    0    0  501  502  0.00000000000E+00  0.00000000000E+00  0.21345132789E+03  0.21345132789E+03  0.00000000000E+00 0.  1.
         21   -1    0    0  502  503 -0.00000000000E+00 -0.00000000000E+00 -0.23480252012E+03  0.23480252012E+03  0.00000000000E+00 0.  1.
         -6    2    1    2    0  503  0.63803329795E+02 -0.10323857063E+02 -0.12937837751E+03  0.23309650823E+03  0.18280528074E+03 0.  0.
        -24    2    3    3    0    0  0.22290849394E+00 -0.71414514797E+02 -0.74012114778E+02  0.12887534203E+03  0.77659371865E+02 0.  0.
          6    2    1    2  501    0 -0.63803329795E+02  0.10323857063E+02  0.10802718527E+03  0.21515733978E+03  0.17448599137E+03 0.  0.
         24    2    5    5    0    0 -0.17316858362E+02 -0.61869339969E+02  0.63618057111E+02  0.11837350648E+03  0.76402493631E+02 0.  0.
          5    1    5    5  501    0 -0.46486471434E+02  0.72193197032E+02  0.44409128163E+02  0.96783833300E+02  0.47000000000E+01 0. -1.
        -11    1    6    6    0    0 -0.10523182422E+02  0.16085602882E+02  0.23744325998E+02  0.30549582738E+02  0.00000000000E+00 0.  1.
         12    1    6    6    0    0 -0.67936759401E+01 -0.77954942851E+02  0.39873731112E+02  0.87823923737E+02  0.00000000000E+00 0. -1.
         -5    1    3    3    0  503  0.63580421302E+02  0.61090657733E+02 -0.55366262729E+02  0.10422116620E+03  0.47000000000E+01 0.  1.
         13    1    4    4    0    0 -0.57505408409E+01  0.16335174548E+02 -0.15466321329E+02  0.23218823031E+02  0.00000000000E+00 0. -1.
        -14    1    4    4    0    0  0.59734493349E+01 -0.87749689345E+02 -0.58545793449E+02  0.10565651900E+03  0.00000000000E+00 0.  1.
</event>
<event>
12    1  0.8196217E-002  0.2076865E+03  0.7818608E-02  0.1143469E+00
         21   -1    0    0  503  502  0.00000000000E+00  0.00000000000E+00  0.12007465522E+04  0.12007465522E+04  0.00000000000E+00 0. -1.
         21   -1    0    0  501  503 -0.00000000000E+00 -0.00000000000E+00 -0.41237497788E+02  0.41237497788E+02  0.00000000000E+00 0. -1.
          6    2    1    2  501    0  0.11710233354E+03 -0.69323978965E-01  0.35612140510E+03  0.41225734528E+03  0.17152464033E+03 0.  0.
         24    2    3    3    0    0  0.57538666391E+02 -0.47707881367E+02  0.29470352112E+03  0.31421904120E+03  0.79351751201E+02 0.  0.
         -6    2    1    2    0  502 -0.11710233354E+03  0.69323978965E-01  0.80338764931E+03  0.82972670471E+03  0.17117747549E+03 0.  0.
        -24    2    5    5    0    0 -0.96239777629E+02  0.63374764074E+02  0.55595007553E+03  0.57342557731E+03  0.80361375782E+02 0.  0.
          5    1    3    3  501    0  0.59563667144E+02  0.47638557388E+02  0.61417883980E+02  0.98038304077E+02  0.47000000000E+01 0. -1.
        -13    1    4    4    0    0  0.23044888721E+02  0.54140351754E+01  0.19271281585E+03  0.19416129395E+03  0.00000000000E+00 0.  1.
         14    1    4    4    0    0  0.34493777670E+02 -0.53121916542E+02  0.10199070526E+03  0.12005774725E+03  0.00000000000E+00 0. -1.
         -5    1    5    5    0  502 -0.20862555907E+02 -0.63305440095E+02  0.24743757379E+03  0.25630112740E+03  0.47000000000E+01 0.  1.
         13    1    6    6    0    0 -0.25418670240E+01 -0.12240719962E+02  0.16496581322E+02  0.20698635425E+02  0.00000000000E+00 0. -1.
        -14    1    6    6    0    0 -0.93697910605E+02  0.75615484035E+02  0.53945349421E+03  0.55272694189E+03  0.00000000000E+00 0.  1.
</event>
<event>
12    1  0.8196217E-002  0.2228210E+03  0.7818608E-02  0.1132022E+00
         21   -1    0    0  501  502  0.00000000000E+00  0.00000000000E+00  0.10127480429E+03  0.10127480429E+03  0.00000000000E+00 0. -1.
         21   -1    0    0  502  503 -0.00000000000E+00 -0.00000000000E+00 -0.67720077544E+03  0.67720077544E+03  0.00000000000E+00 0.  1.
         -6    2    1    2    0  503 -0.13980110638E+03  0.19849699468E+02 -0.49337202468E+03  0.54085326874E+03  0.17078625139E+03 0.  0.
        -24    2    3    3    0    0 -0.38872261514E+02 -0.42945074568E+02 -0.27000028449E+03  0.28777849780E+03  0.80999864376E+02 0.  0.
          6    2    1    2  501    0  0.13980110638E+03 -0.19849699468E+02 -0.82553946476E+02  0.23762231100E+03  0.17236835177E+03 0.  0.
         24    2    5    5    0    0  0.42305637160E+02 -0.61283982488E+02 -0.92502297476E+01  0.10871268679E+03  0.78659952155E+02 0.  0.
          5    1    5    5  501    0  0.97495469217E+02  0.41434283020E+02 -0.73303716729E+02  0.12890962421E+03  0.47000000000E+01 0. -1.
        -13    1    6    6    0    0  0.11974535625E+02 -0.14956207779E+02 -0.40733711811E+02  0.45014585774E+02  0.00000000000E+00 0.  1.
         14    1    6    6    0    0  0.30331101535E+02 -0.46327774709E+02  0.31483482063E+02  0.63698101013E+02  0.00000000000E+00 0. -1.
         -5    1    3    3    0  503 -0.10092884486E+03  0.62794774036E+02 -0.22337174019E+03  0.25307477094E+03  0.47000000000E+01 0.  1.
         11    1    4    4    0    0  0.65101405719E+01 -0.13083344481E+01  0.34466401690E+01  0.74815103922E+01  0.00000000000E+00 0. -1.
        -12    1    4    4    0    0 -0.45382402086E+02 -0.41636740120E+02 -0.27344692465E+03  0.28029698741E+03  0.00000000000E+00 0.  1.
</event>
<event>
12    1  0.8196217E-002  0.1956144E+03  0.7818608E-02  0.1154498E+00
         21   -1    0    0  501  502  0.00000000000E+00  0.00000000000E+00  0.57340716949E+02  0.57340716949E+02  0.00000000000E+00 0. -1.
         21   -1    0    0  502  503 -0.00000000000E+00 -0.00000000000E+00 -0.12642232476E+04  0.12642232476E+04  0.00000000000E+00 0. -1.
         -6    2    1    2    0  503  0.75601559833E+02 -0.49344795537E+02 -0.10596465916E+04  0.10767305484E+04  0.16836647528E+03 0.  0.
        -24    2    3    3    0    0  0.16566740170E+02 -0.80595339935E+02 -0.81781514080E+03  0.82579978689E+03  0.79709584184E+02 0.  0.
          6    2    1    2  501    0 -0.75601559833E+02  0.49344795537E+02 -0.14723593900E+03  0.24483341614E+03  0.17353522763E+03 0.  0.
         24    2    5    5    0    0 -0.11346109021E+03  0.40814966618E+02 -0.14560707000E+03  0.20570739876E+03  0.81085353677E+02 0.  0.
          5    1    5    5  501    0  0.37859530374E+02  0.85298289191E+01 -0.16288690078E+01  0.39126017377E+02  0.47000000000E+01 0. -1.
        -11    1    6    6    0    0  0.11100168752E+02  0.11276652776E+02 -0.26426862766E+02  0.30801878512E+02  0.00000000000E+00 0.  1.
         12    1    6    6    0    0 -0.12456125896E+03  0.29538313841E+02 -0.11918020723E+03  0.17490552025E+03  0.00000000000E+00 0. -1.
         -5    1    3    3    0  503  0.59034819663E+02  0.31250544398E+02 -0.24183145085E+03  0.25093076152E+03  0.47000000000E+01 0.  1.
         11    1    4    4    0    0  0.23913388501E+02 -0.39346754677E+01 -0.41387504272E+03  0.41458398764E+03  0.00000000000E+00 0. -1.
        -12    1    4    4    0    0 -0.73466483312E+01 -0.76660664467E+02 -0.40394009807E+03  0.41121579925E+03  0.00000000000E+00 0.  1.
</event>
<event>
12    1  0.8196217E-002  0.1822483E+03  0.7818608E-02  0.1166004E+00
         21   -1    0    0  501  502  0.00000000000E+00  0.00000000000E+00  0.53072039286E+03  0.53072039286E+03  0.00000000000E+00 0.  1.
         21   -1    0    0  502  503 -0.00000000000E+00 -0.00000000000E+00 -0.12863215379E+03  0.12863215379E+03  0.00000000000E+00 0.  1.
         -6    2    1    2    0  503 -0.52073479687E+02  0.49222805836E+01 -0.35707134978E+02  0.18571333558E+03  0.17458111980E+03 0.  0.
        -24    2    3    3    0    0 -0.57020210384E+02  0.54193345116E+02 -0.60532697354E+02  0.13012101154E+03  0.84137073559E+02 0.  0.
          6    2    1    2  501    0  0.52073479687E+02 -0.49222805836E+01  0.43779537405E+03  0.47363921108E+03  0.17301282206E+03 0.  0.
         24    2    5    5    0    0  0.95347454020E+02 -0.27443681259E+02  0.26770958490E+03  0.29663323374E+03  0.80489507897E+02 0.  0.
          5    1    5    5  501    0 -0.43273974333E+02  0.22521400676E+02  0.17008578915E+03  0.17700597734E+03  0.47000000000E+01 0. -1.
        -13    1    6    6    0    0  0.22132900849E+02  0.24005564686E+02  0.37951574293E+02  0.50064502666E+02  0.00000000000E+00 0.  1.
         14    1    6    6    0    0  0.73214553171E+02 -0.51449245945E+02  0.22975801061E+03  0.24656873107E+03  0.00000000000E+00 0. -1.
         -5    1    3    3    0  503  0.49467306972E+01 -0.49271064533E+02  0.24825562376E+02  0.55592324039E+02  0.47000000000E+01 0.  1.
         11    1    4    4    0    0 -0.77628914463E+00  0.14914855956E+02  0.19595269910E+02  0.24637981977E+02  0.00000000000E+00 0. -1.
        -12    1    4    4    0    0 -0.56243921240E+02  0.39278489160E+02 -0.80127967264E+02  0.10548302956E+03  0.00000000000E+00 0.  1.
</event>
<event>
12    1  0.8196217E-002  0.1900629E+03  0.7818608E-02  0.1159355E+00
         21   -1    0    0  503  502  0.00000000000E+00  0.00000000000E+00  0.11587940974E+03  0.11587940974E+03  0.00000000000E+00 0. -1.
         21   -1    0    0  501  503 -0.00000000000E+00 -0.00000000000E+00 -0.30958973262E+03  0.30958973262E+03  0.00000000000E+00 0.  1.
          6    2    1    2  501    0  0.95234488056E+01 -0.79388955341E+02 -0.69739094953E+02  0.19854898745E+03  0.16782388610E+03 0.  0.
         24    2    3    3    0    0  0.46569210175E+02  0.10272822417E+01 -0.58369539276E+02  0.10915929846E+03  0.79617854026E+02 0.  0.
         -6    2    1    2    0  502 -0.95234488056E+01  0.79388955341E+02 -0.12397122793E+03  0.22692015491E+03  0.17242560437E+03 0.  0.
        -24    2    5    5    0    0  0.37244151301E+02  0.70660221831E+02 -0.13647135949E+03  0.17750616400E+03  0.80647458373E+02 0.  0.
          5    1    3    3  501    0 -0.37045761369E+02 -0.80416237583E+02 -0.11369555677E+02  0.89389688995E+02  0.47000000000E+01 0. -1.
        -11    1    4    4    0    0 -0.16119909521E+02  0.15167567790E+02 -0.33708670855E+02  0.40325935655E+02  0.00000000000E+00 0.  1.
         12    1    4    4    0    0  0.62689119696E+02 -0.14140285549E+02 -0.24660868421E+02  0.68833362804E+02  0.00000000000E+00 0. -1.
         -5    1    5    5    0  502 -0.46767600107E+02  0.87287335097E+01  0.12500131558E+02  0.49413990908E+02  0.47000000000E+01 0.  1.
         13    1    6    6    0    0  0.35255022719E+01  0.77654880632E+02 -0.81406020909E+02  0.11255953932E+03  0.00000000000E+00 0. -1.
        -14    1    6    6    0    0  0.33718649030E+02 -0.69946588011E+01 -0.55065338581E+02  0.64946624678E+02  0.00000000000E+00 0.  1.
</event>
<event>
12    1  0.8196217E-002  0.1907531E+03  0.7818608E-02  0.1157841E+00
         21   -1    0    0  503  502  0.00000000000E+00  0.00000000000E+00  0.19128942056E+03  0.19128942056E+03  0.00000000000E+00 0.  1.
         21   -1    0    0  501  503 -0.00000000000E+00 -0.00000000000E+00 -0.19540392024E+03  0.19540392024E+03  0.00000000000E+00 0.  1.
          6    2    1    2  501    0 -0.52377351091E+02 -0.63926336521E+02 -0.34312831915E+02  0.19381463261E+03  0.17192084799E+03 0.  0.
         24    2    3    3    0    0 -0.25916942512E+02 -0.99717781482E+02 -0.58635892940E+02  0.14287464780E+03  0.79747559155E+02 0.  0.
         -6    2    1    2    0  502  0.52377351091E+02  0.63926336521E+02  0.30198332233E+02  0.19287870819E+03  0.17164001106E+03 0.  0.
        -24    2    5    5    0    0  0.35105902130E+02 -0.30500699946E+01  0.66857939252E+02  0.11445576024E+03  0.85955859135E+02 0.  0.
          5    1    3    3  501    0 -0.26460408579E+02  0.35791444961E+02  0.24323061025E+02  0.50939984808E+02  0.47000000000E+01 0. -1.
        -13    1    4    4    0    0 -0.51296510227E+02 -0.87701842847E+02 -0.51466272262E+02  0.11389346944E+03  0.00000000000E+00 0.  1.
         14    1    4    4    0    0  0.25379567716E+02 -0.12015938635E+02 -0.71696206774E+01  0.28981178364E+02  0.00000000000E+00 0. -1.
         -5    1    5    5    0  502  0.17271448961E+02  0.66976406515E+02 -0.36659607019E+02  0.78422947954E+02  0.47000000000E+01 0.  1.
         13    1    6    6    0    0 -0.16128837322E+02  0.95957946747E+01 -0.99684022103E+01  0.21250593202E+02  0.00000000000E+00 0. -1.
        -14    1    6    6    0    0  0.51234739453E+02 -0.12645864669E+02  0.76826341463E+02  0.93205167038E+02  0.00000000000E+00 0.  1.
</event>
<event>
12    1  0.8196217E-002  0.2294068E+03  0.7818608E-02  0.1127144E+00
         21   -1    0    0  503  502  0.00000000000E+00  0.00000000000E+00  0.12998152851E+03  0.12998152851E+03  0.00000000000E+00 0.  1.
         21   -1    0    0  501  503 -0.00000000000E+00 -0.00000000000E+00 -0.43063841870E+03  0.43063841870E+03  0.00000000000E+00 0. -1.
          6    2    1    2  501    0  0.34242232811E+02  0.14776684658E+03 -0.21986138784E+03  0.31740112600E+03  0.17145516459E+03 0.  0.
         24    2    3    3    0    0  0.55492013554E+02  0.15934204815E+03 -0.22481487994E+03  0.29225822328E+03  0.80024289803E+02 0.  0.
         -6    2    1    2    0  502 -0.34242232811E+02 -0.14776684658E+03 -0.80795502346E+02  0.24321882122E+03  0.17210435886E+03 0.  0.
        -24    2    5    5    0    0  0.26693160492E+02 -0.94385814042E+02  0.26590723938E+01  0.12681687606E+03  0.80338301437E+02 0.  0.
          5    1    3    3  501    0 -0.21249780743E+02 -0.11575201570E+02  0.49534920921E+01  0.25142902715E+02  0.47000000000E+01 0. -1.
        -13    1    4    4    0    0  0.53207026380E+02  0.44904975717E+02 -0.61945688437E+02  0.93191806594E+02  0.00000000000E+00 0.  1.
         14    1    4    4    0    0  0.22849871739E+01  0.11443707243E+03 -0.16286919150E+03  0.19906641669E+03  0.00000000000E+00 0. -1.
         -5    1    5    5    0  502 -0.60935393304E+02 -0.53381032534E+02 -0.83454574740E+02  0.11640194516E+03  0.47000000000E+01 0.  1.
         11    1    6    6    0    0  0.19562199889E+02 -0.14812020821E+02 -0.31499125359E+02  0.39928317316E+02  0.00000000000E+00 0. -1.
        -12    1    6    6    0    0  0.71309606033E+01 -0.79573793221E+02  0.34158197753E+02  0.86888558743E+02  0.00000000000E+00 0.  1.
</event>
<event>
12    1  0.8196217E-002  0.1850251E+03  0.7818608E-02  0.1163147E+00
         21   -1    0    0  501  502  0.00000000000E+00  0.00000000000E+00  0.62375205527E+03  0.62375205527E+03  0.00000000000E+00 0. -1.
         21   -1    0    0  502  503 -0.00000000000E+00 -0.00000000000E+00 -0.36934994019E+03  0.36934994019E+03  0.00000000000E+00 0.  1.
         -6    2    1    2    0  503  0.66784747645E+02 -0.10667347297E+02 -0.33105890351E+03  0.37925489350E+03  0.17222160677E+03 0.  0.
        -24    2    3    3    0    0  0.10508441307E+03 -0.37421278995E+02 -0.26910949551E+03  0.30152165489E+03  0.77796541075E+02 0.  0.
          6    2    1    2  501    0 -0.66784747645E+02  0.10667347297E+02  0.58546101859E+03  0.61384710195E+03  0.17166731044E+03 0.  0.
         24    2    5    5    0    0 -0.77802430926E+01  0.46112147515E+02  0.17445487753E+03  0.19709057422E+03  0.78888071479E+02 0.  0.
          5    1    5    5  501    0 -0.59004504552E+02 -0.35444800219E+02  0.41100614106E+03  0.41675652773E+03  0.47000000000E+01 0. -1.
        -13    1    6    6    0    0 -0.33065275442E+02  0.57394412269E+01  0.30106968753E+02  0.45085287990E+02  0.00000000000E+00 0.  1.
         14    1    6    6    0    0  0.25285032349E+02  0.40372706288E+02  0.14434790877E+03  0.15200528623E+03  0.00000000000E+00 0. -1.
         -5    1    3    3    0  503 -0.38299665430E+02  0.26753931698E+02 -0.61949407999E+02  0.77733238610E+02  0.47000000000E+01 0.  1.
         11    1    4    4    0    0  0.12336255114E+02  0.20982078011E+02 -0.71800269601E+02  0.75813649844E+02  0.00000000000E+00 0. -1.
        -12    1    4    4    0    0  0.92748157961E+02 -0.58403357006E+02 -0.19730922591E+03  0.22570800505E+03  0.00000000000E+00 0.  1.
</event>
<event>
12    1  0.8196217E-002  0.1990114E+03  0.7818608E-02  0.1151099E+00
         21   -1    0    0  503  502  0.00000000000E+00  0.00000000000E+00  0.13263760296E+04  0.13263760296E+04  0.00000000000E+00 0.  1.
         21   -1    0    0  501  503 -0.00000000000E+00 -0.00000000000E+00 -0.78628214647E+02  0.78628214647E+02  0.00000000000E+00 0.  1.
          6    2    1    2  501    0  0.79509569955E+02  0.61372743880E+02  0.69995484950E+02  0.21096186050E+03  0.17180556821E+03 0.  0.
         24    2    3    3    0    0  0.55196594102E+02  0.33412034376E+02 -0.28065272732E+02  0.10602890921E+03  0.79318610755E+02 0.  0.
         -6    2    1    2    0  502 -0.79509569955E+02 -0.61372743880E+02  0.11777523300E+04  0.11940423838E+04  0.16896235660E+03 0.  0.
        -24    2    5    5    0    0 -0.71669058619E+02 -0.36633531494E+02  0.11509638374E+04  0.11564496240E+04  0.78609849019E+02 0.  0.
          5    1    3    3  501    0  0.24312975852E+02  0.27960709505E+02  0.98060757682E+02  0.10493295130E+03  0.47000000000E+01 0. -1.
        -13    1    4    4    0    0 -0.13242758443E+02 -0.13660329423E+02 -0.75444918110E+01  0.20466914956E+02  0.00000000000E+00 0.  1.
         14    1    4    4    0    0  0.68439352545E+02  0.47072363799E+02 -0.20520780921E+02  0.85561994250E+02  0.00000000000E+00 0. -1.
         -5    1    5    5    0  502 -0.78405113357E+01 -0.24739212386E+02  0.26788492684E+02  0.37592759779E+02  0.47000000000E+01 0.  1.
         13    1    6    6    0    0  0.18391071703E+00  0.18573024780E+02  0.11075746393E+03  0.11230408224E+03  0.00000000000E+00 0. -1.
        -14    1    6    6    0    0 -0.71852969336E+02 -0.55206556274E+02  0.10402063734E+04  0.10441455418E+04  0.00000000000E+00 0.  1.
</event>
<event>
12    1  0.8196217E-002  0.1777817E+03  0.7818608E-02  0.1170207E+00
         21   -1    0    0  501  502  0.00000000000E+00  0.00000000000E+00  0.36285445259E+02  0.36285445259E+02  0.00000000000E+00 0. -1.
         21   -1    0    0  502  503 -0.00000000000E+00 -0.00000000000E+00 -0.96631887525E+03  0.96631887525E+03  0.00000000000E+00 0. -1.
         -6    2    1    2    0  503 -0.81078452427E+01 -0.40576472004E+02 -0.62744289922E+03  0.65214333624E+03  0.17289925384E+03 0.  0.
        -24    2    3    3    0    0  0.16531175897E+02  0.69793732901E+01 -0.28679027215E+03  0.30727387961E+03  0.10884202066E+03 0.  0.
          6    2    1    2  501    0  0.81078452427E+01  0.40576472004E+02 -0.30259053077E+03  0.35046098427E+03  0.17190021800E+03 0.  0.
         24    2    5    5    0    0 -0.22276110435E+02  0.11308065525E+02 -0.29592142181E+03  0.30749132760E+03  0.79732874137E+02 0.  0.
          5    1    5    5  501    0  0.30383955677E+02  0.29268406479E+02 -0.66691089579E+01  0.42969656675E+02  0.47000000000E+01 0. -1.
        -13    1    6    6    0    0  0.80614320252E+01  0.33587242522E+02 -0.22061183679E+03  0.22329951204E+03  0.00000000000E+00 0.  1.
         14    1    6    6    0    0 -0.30337542460E+02 -0.22279176997E+02 -0.75309585020E+02  0.84191815553E+02  0.00000000000E+00 0. -1.
         -5    1    3    3    0  503 -0.24639021140E+02 -0.47555845294E+02 -0.34065262707E+03  0.34486945663E+03  0.47000000000E+01 0.  1.
         11    1    4    4    0    0  0.18285982874E+02 -0.35246184909E+01 -0.29388694800E+03  0.29447637989E+03  0.00000000000E+00 0. -1.
        -12    1    4    4    0    0 -0.17548069766E+01  0.10503991781E+02  0.70966758551E+01  0.12797499719E+02  0.00000000000E+00 0.  1.
</event>
<event>
12    1  0.8196217E-002  0.2098646E+03  0.7818608E-02  0.1142758E+00
         21   -1    0    0  501  502  0.00000000000E+00  0.00000000000E+00  0.21731537097E+03  0.21731537097E+03  0.00000000000E+00 0.  1.
         21   -1    0    0  502  503 -0.00000000000E+00 -0.00000000000E+00 -0.28012731718E+03  0.28012731718E+03  0.00000000000E+00 0.  1.
         -6    2    1    2    0  503 -0.91527125328E+02 -0.62309440538E+02 -0.16677559122E+03  0.26806198737E+03  0.17827913562E+03 0.  0.
        -24    2    3    3    0    0 -0.28851021669E+02 -0.87006303718E+02 -0.46195629086E+02  0.12985979387E+03  0.79542765725E+02 0.  0.
          6    2    1    2  501    0  0.91527125328E+02  0.62309440538E+02  0.10396364501E+03  0.22938070077E+03  0.17189352912E+03 0.  0.
         24    2    5    5    0    0 -0.65362143955E+01 -0.91028858929E+01  0.68462311845E+02  0.10289523275E+03  0.75991816334E+02 0.  0.
          5    1    5    5  501    0  0.98063339724E+02  0.71412326431E+02  0.35501333166E+02  0.12648546802E+03  0.47000000000E+01 0. -1.
        -11    1    6    6    0    0  0.28632780275E+02 -0.11746849001E+02  0.58605641589E+02  0.66275529374E+02  0.00000000000E+00 0.  1.
         12    1    6    6    0    0 -0.35168994670E+02  0.26439631083E+01  0.98566702567E+01  0.36619703379E+02  0.00000000000E+00 0. -1.
         -5    1    3    3    0  503 -0.62676103659E+02  0.24696863180E+02 -0.12057996214E+03  0.13820219350E+03  0.47000000000E+01 0.  1.
         11    1    4    4    0    0  0.27513011240E+02 -0.35368744258E+02 -0.14369760204E+02  0.47057452823E+02  0.00000000000E+00 0. -1.
        -12    1    4    4    0    0 -0.56364032909E+02 -0.51637559460E+02 -0.31825868882E+02  0.82802341047E+02  0.00000000000E+00 0.  1.
</event>
<event>
12    1  0.8196217E-002  0.2003963E+03  0.7818608E-02  0.1149771E+00
         21   -1    0    0  501  502  0.00000000000E+00  0.00000000000E+00  0.18355871524E+04  0.18355871524E+04  0.00000000000E+00 0.  1.
         21   -1    0    0  502  503 -0.00000000000E+00 -0.00000000000E+00 -0.22282671871E+02  0.22282671871E+02  0.00000000000E+00 0.  1.
         -6    2    1    2    0  503  0.98694807009E+02  0.72253964608E+01  0.10621008904E+04  0.10808408647E+04  0.17425786110E+03 0.  0.
        -24    2    3    3    0    0  0.49419250881E+01  0.19580672168E+02  0.75929501949E+03  0.76357797503E+03  0.78195728726E+02 0.  0.
          6    2    1    2  501    0 -0.98694807009E+02 -0.72253964608E+01  0.75120359015E+03  0.77702895958E+03  0.17226229677E+03 0.  0.
         24    2    5    5    0    0 -0.81701640066E+02 -0.68257163498E+02  0.56033214553E+03  0.57586325007E+03  0.79449173146E+02 0.  0.
          5    1    5    5  501    0 -0.16993166943E+02  0.61031767037E+02  0.19087144462E+03  0.20116570951E+03  0.47000000000E+01 0. -1.
        -13    1    6    6    0    0 -0.43695937856E+02 -0.10469026084E+02  0.38124692397E+03  0.38388559823E+03  0.00000000000E+00 0.  1.
         14    1    6    6    0    0 -0.38005702210E+02 -0.57788137414E+02  0.17908522156E+03  0.19197765185E+03  0.00000000000E+00 0. -1.
         -5    1    3    3    0  503  0.93752881921E+02 -0.12355275707E+02  0.30280587087E+03  0.31726288963E+03  0.47000000000E+01 0.  1.
         11    1    4    4    0    0 -0.35825909474E+02  0.92026399147E+01  0.27840880620E+03  0.28085520779E+03  0.00000000000E+00 0. -1.
        -12    1    4    4    0    0  0.40767834562E+02  0.10378032253E+02  0.48088621329E+03  0.48272276725E+03  0.00000000000E+00 0.  1.
</event>
<event>
12    1  0.8196217E-002  0.3557646E+03  0.7818608E-02  0.1060294E+00
         21   -1    0    0  503  502  0.00000000000E+00  0.00000000000E+00  0.34407383026E+03  0.34407383026E+03  0.00000000000E+00 0. -1.
         21   -1    0    0  501  503 -0.00000000000E+00 -0.00000000000E+00 -0.41132225381E+03  0.41132225381E+03  0.00000000000E+00 0.  1.
          6    2    1    2  501    0 -0.78987297973E+02 -0.30114653123E+03 -0.15671759130E+03  0.38875292492E+03  0.17216331404E+03 0.  0.
         24    2    3    3    0    0  0.69979389207E+01 -0.12537123414E+03 -0.11799386599E+03  0.18922339595E+03  0.78205010480E+02 0.  0.
         -6    2    1    2    0  502  0.78987297973E+02  0.30114653123E+03  0.89469167749E+02  0.36664315914E+03  0.17173889384E+03 0.  0.
        -24    2    5    5    0    0  0.55538488263E+02  0.31286973355E+03  0.90942668022E+02  0.33996842667E+03  0.79598796581E+02 0.  0.
          5    1    3    3  501    0 -0.85985236894E+02 -0.17577529708E+03 -0.38723725305E+02  0.19952952897E+03  0.47000000000E+01 0. -1.
        -11    1    4    4    0    0 -0.35227055965E+02 -0.62292273996E+02 -0.64710306537E+02  0.96481587071E+02  0.00000000000E+00 0.  1.
         12    1    4    4    0    0  0.42224994886E+02 -0.63078960148E+02 -0.53283559456E+02  0.92741808882E+02  0.00000000000E+00 0. -1.
         -5    1    5    5    0  502  0.23448809710E+02 -0.11723202319E+02 -0.14735002728E+01  0.26674732473E+02  0.47000000000E+01 0.  1.
         11    1    6    6    0    0 -0.15867454144E+02  0.30355681818E+02  0.21395262765E+02  0.40385650775E+02  0.00000000000E+00 0. -1.
        -12    1    6    6    0    0  0.71405942407E+02  0.28251405173E+03  0.69547405257E+02  0.29958277590E+03  0.00000000000E+00 0.  1.
</event>
<event>
12    1  0.8196217E-002  0.1817244E+03  0.7818608E-02  0.1166307E+00
         21   -1    0    0  503  502  0.00000000000E+00  0.00000000000E+00  0.50088309267E+02  0.50088309267E+02  0.00000000000E+00 0. -1.
         21   -1    0    0  501  503 -0.00000000000E+00 -0.00000000000E+00 -0.75111383392E+03  0.75111383392E+03  0.00000000000E+00 0. -1.
          6    2    1    2  501    0 -0.17463143657E+02 -0.52600780344E+02 -0.49300396825E+03  0.52542998709E+03  0.17306633162E+03 0.  0.
         24    2    3    3    0    0  0.98272769192E+00 -0.68137435666E+02 -0.15175309001E+03  0.18329567175E+03  0.76971599066E+02 0.  0.
         -6    2    1    2    0  502  0.17463143657E+02  0.52600780344E+02 -0.20802155640E+03  0.27577215610E+03  0.17235286674E+03 0.  0.
        -24    2    5    5    0    0 -0.49179379363E+02  0.35846475984E+02 -0.73041958436E+02  0.12423498424E+03  0.79972635453E+02 0.  0.
          5    1    3    3  501    0 -0.18445871349E+02  0.15536655322E+02 -0.34125087825E+03  0.34213431534E+03  0.47000000000E+01 0. -1.
        -11    1    4    4    0    0 -0.27245390992E+02 -0.54716333961E+02 -0.13416003981E+03  0.14742830398E+03  0.00000000000E+00 0.  1.
         12    1    4    4    0    0  0.28228118684E+02 -0.13421101704E+02 -0.17593050192E+02  0.35867367766E+02  0.00000000000E+00 0. -1.
         -5    1    5    5    0  502  0.66642523020E+02  0.16754304360E+02 -0.13497959796E+03  0.15153717186E+03  0.47000000000E+01 0.  1.
         11    1    6    6    0    0 -0.33513932805E+02  0.21709761900E+02 -0.89152697270E+02  0.97686748765E+02  0.00000000000E+00 0. -1.
        -12    1    6    6    0    0 -0.15665446557E+02  0.14136714084E+02  0.16110738834E+02  0.26548235472E+02  0.00000000000E+00 0.  1.
</event>
<event>
12    1  0.8196217E-002  0.2236772E+03  0.7818608E-02  0.1132052E+00
         21   -1    0    0  501  502  0.00000000000E+00  0.00000000000E+00  0.11160284981E+04  0.11160284981E+04  0.00000000000E+00 0.  1.
         21   -1    0    0  502  503 -0.00000000000E+00 -0.00000000000E+00 -0.44270666947E+02  0.44270666947E+02  0.00000000000E+00 0. -1.
         -6    2    1    2    0  503  0.13777020572E+03 -0.37307515956E+02  0.58478600820E+03  0.62441385889E+03  0.16596840500E+03 0.  0.
        -24    2    3    3    0    0  0.15465230564E+03 -0.13731163420E-01  0.51265652687E+03  0.54134410652E+03  0.79494599153E+02 0.  0.
          6    2    1    2  501    0 -0.13777020572E+03  0.37307515956E+02  0.48697182293E+03  0.53588530614E+03  0.17221795687E+03 0.  0.
         24    2    5    5    0    0 -0.13883240151E+02 -0.23362421976E+02  0.16660668010E+03  0.18705191274E+03  0.80573476323E+02 0.  0.
          5    1    5    5  501    0 -0.12388696557E+03  0.60669937932E+02  0.32036514283E+03  0.34883339340E+03  0.47000000000E+01 0. -1.
        -11    1    6    6    0    0  0.22156783840E+02 -0.22393982276E+02  0.13647989034E+03  0.14006846175E+03  0.00000000000E+00 0.  1.
         12    1    6    6    0    0 -0.36040023991E+02 -0.96843969975E+00  0.30126789766E+02  0.46983450984E+02  0.00000000000E+00 0. -1.
         -5    1    3    3    0  503 -0.16882099919E+02 -0.37293784792E+02  0.72129481330E+02  0.83069752370E+02  0.47000000000E+01 0.  1.
         11    1    4    4    0    0  0.19829629781E+02 -0.26956007597E+02  0.65892548622E+02  0.73903102281E+02  0.00000000000E+00 0. -1.
        -12    1    4    4    0    0  0.13482267586E+03  0.26942276434E+02  0.44676397825E+03  0.46744100424E+03  0.00000000000E+00 0.  1.
</event>
<event>
12    1  0.8196217E-002  0.1912451E+03  0.7818608E-02  0.1157672E+00
         21   -1    0    0  503  502  0.00000000000E+00  0.00000000000E+00  0.10015442184E+04  0.10015442184E+04  0.00000000000E+00 0. -1.
         21   -1    0    0  501  503 -0.00000000000E+00 -0.00000000000E+00 -0.50170735334E+02  0.50170735334E+02  0.00000000000E+00 0. -1.
          6    2    1    2  501    0  0.75593933513E+02 -0.28860489720E+02  0.19726267661E+03  0.27373179016E+03  0.17166583442E+03 0.  0.
         24    2    3    3    0    0 -0.17483310857E+02  0.11131442136E+02  0.12282496211E+03  0.14793118852E+03  0.79800313632E+02 0.  0.
         -6    2    1    2    0  502 -0.75593933513E+02  0.28860489720E+02  0.75411080649E+03  0.77798316362E+03  0.17328393967E+03 0.  0.
        -24    2    5    5    0    0  0.11684979199E+02 -0.21194959166E+02  0.23275690345E+03  0.24698868268E+03  0.79005494963E+02 0.  0.
          5    1    3    3  501    0  0.93077244370E+02 -0.39991931856E+02  0.74437714500E+02  0.12580060164E+03  0.47000000000E+01 0. -1.
        -13    1    4    4    0    0  0.73029590707E+01 -0.22297196591E+02  0.95038852688E+02  0.97892194312E+02  0.00000000000E+00 0.  1.
         14    1    4    4    0    0 -0.24786269928E+02  0.33428638727E+02  0.27786109422E+02  0.50038994203E+02  0.00000000000E+00 0. -1.
         -5    1    5    5    0  502 -0.87278912712E+02  0.50055448887E+02  0.52135390305E+03  0.53099448094E+03  0.47000000000E+01 0.  1.
         11    1    6    6    0    0 -0.25065063934E+02  0.58929068535E+01  0.15247146626E+03  0.15463030688E+03  0.00000000000E+00 0. -1.
        -12    1    6    6    0    0  0.36750043133E+02 -0.27087866020E+02  0.80285437182E+02  0.92358375794E+02  0.00000000000E+00 0.  1.
</event>
<event>
12    1  0.8196217E-002  0.2081414E+03  0.7818608E-02  0.1143092E+00
         21   -1    0    0  503  502  0.00000000000E+00  0.00000000000E+00  0.21382425033E+03  0.21382425033E+03  0.00000000000E+00 0. -1.
         21   -1    0    0  501  503 -0.00000000000E+00 -0.00000000000E+00 -0.20770456975E+03  0.20770456975E+03  0.00000000000E+00 0.  1.
          6    2    1    2  501    0 -0.10565761444E+03  0.49239798344E+02 -0.30656318028E+02  0.21016341885E+03  0.17216493127E+03 0.  0.
         24    2    3    3    0    0 -0.66032257200E+02  0.79558443424E+02 -0.69256077878E+02  0.14690663553E+03  0.78072724608E+02 0.  0.
         -6    2    1    2    0  502  0.10565761444E+03 -0.49239798344E+02  0.36775998608E+02  0.21136540122E+03  0.17243772653E+03 0.  0.
        -24    2    5    5    0    0  0.12943797993E+03 -0.40172836996E+02  0.65338105284E+02  0.17282192565E+03  0.85031185473E+02 0.  0.
          5    1    3    3  501    0 -0.39625357240E+02 -0.30318645080E+02  0.38599759851E+02  0.63256783323E+02  0.47000000000E+01 0. -1.
        -11    1    4    4    0    0  0.56016211310E+00  0.60082094121E+02 -0.34885901930E+02  0.69478039473E+02  0.00000000000E+00 0.  1.
         12    1    4    4    0    0 -0.66592419313E+02  0.19476349303E+02 -0.34370175948E+02  0.77428596054E+02  0.00000000000E+00 0. -1.
         -5    1    5    5    0  502 -0.23780365494E+02 -0.90669613477E+01 -0.28562106675E+02  0.38543475568E+02  0.47000000000E+01 0.  1.
         13    1    6    6    0    0  0.26845235744E+02  0.16125141337E+02  0.43781608814E+02  0.53828581029E+02  0.00000000000E+00 0. -1.
        -14    1    6    6    0    0  0.10259274419E+03 -0.56297978334E+02  0.21556496470E+02  0.11899334463E+03  0.00000000000E+00 0.  1.
</event>
<event>
12    1  0.8196217E-002  0.1939295E+03  0.7818608E-02  0.1154980E+00
         21   -1    0    0  503  502  0.00000000000E+00  0.00000000000E+00  0.28051269490E+03  0.28051269490E+03  0.00000000000E+00 0. -1.
         21   -1    0    0  501  503 -0.00000000000E+00 -0.00000000000E+00 -0.21238995335E+03  0.21238995335E+03  0.00000000000E+00 0.  1.
          6    2    1    2  501    0 -0.45327025899E+02 -0.78553840366E+02 -0.11564887216E+03  0.22573104539E+03  0.17133183623E+03 0.  0.
         24    2    3    3    0    0 -0.83540982425E+01 -0.97777814046E+02 -0.13115402724E+03  0.18102021473E+03  0.77049642461E+02 0.  0.
         -6    2    1    2    0  502  0.45327025899E+02  0.78553840366E+02  0.18377161371E+03  0.26717160286E+03  0.17141591015E+03 0.  0.
        -24    2    5    5    0    0  0.57336835796E+02  0.56316376002E+02  0.38635558029E+02  0.11977653844E+03  0.79966654744E+02 0.  0.
          5    1    3    3  501    0 -0.36972927657E+02  0.19223973680E+02  0.15505155079E+02  0.44710830652E+02  0.47000000000E+01 0. -1.
        -13    1    4    4    0    0 -0.38742603785E+02 -0.79421581461E+02 -0.83344143309E+02  0.12147025633E+03  0.00000000000E+00 0.  1.
         14    1    4    4    0    0  0.30388505542E+02 -0.18356232585E+02 -0.47809883934E+02  0.59549958401E+02  0.00000000000E+00 0. -1.
         -5    1    5    5    0  502 -0.12009809897E+02  0.22237464363E+02  0.14513605569E+03  0.14739506442E+03  0.47000000000E+01 0.  1.
         11    1    6    6    0    0 -0.68522631022E+01 -0.99678429711E+01  0.23283011605E+02  0.26237569105E+02  0.00000000000E+00 0. -1.
        -12    1    6    6    0    0  0.64189098899E+02  0.66284218973E+02  0.15352546424E+02  0.93538969334E+02  0.00000000000E+00 0.  1.
</event>
<event>
12    1  0.8196217E-002  0.2304784E+03  0.7818608E-02  0.1126475E+00
         21   -1    0    0  503  502  0.00000000000E+00  0.00000000000E+00  0.25281383077E+03  0.25281383077E+03  0.00000000000E+00 0. -1.
         21   -1    0    0  501  503 -0.00000000000E+00 -0.00000000000E+00 -0.54305169933E+03  0.54305169933E+03  0.00000000000E+00 0. -1.
          6    2    1    2  501    0  0.44168171647E+02  0.14649217700E+03 -0.45699514626E+03  0.51138657494E+03  0.17105811883E+03 0.  0.
         24    2    3    3    0    0 -0.68036288379E+01  0.14756904475E+03 -0.27433963270E+03  0.32169100113E+03  0.79999711283E+02 0.  0.
         -6    2    1    2    0  502 -0.44168171647E+02 -0.14649217700E+03  0.16675727770E+03  0.28447895515E+03  0.17236444225E+03 0.  0.
        -24    2    5    5    0    0 -0.16182899126E+02 -0.10229169174E+03  0.25655143961E+02  0.13391747096E+03  0.80933467708E+02 0.  0.
          5    1    3    3  501    0  0.50971800485E+02 -0.10768677516E+01 -0.18265551356E+03  0.18969557381E+03  0.47000000000E+01 0. -1.
        -11    1    4    4    0    0  0.63357252522E+01  0.44960318905E+01  0.37897153698E+01  0.86439377494E+01  0.00000000000E+00 0.  1.
         12    1    4    4    0    0 -0.13139354090E+02  0.14307301286E+03 -0.27812934807E+03  0.31304706338E+03  0.00000000000E+00 0. -1.
         -5    1    5    5    0  502 -0.27985272521E+02 -0.44200485260E+02  0.14110213374E+03  0.15056148419E+03  0.47000000000E+01 0.  1.
         13    1    6    6    0    0  0.13392263060E+02 -0.69821103990E+02  0.46857672639E+02  0.85146818833E+02  0.00000000000E+00 0. -1.
        -14    1    6    6    0    0 -0.29575162185E+02 -0.32470587748E+02 -0.21202528678E+02  0.48770652131E+02  0.00000000000E+00 0.  1.
</event>
<event>
12    1  0.8196217E-002  0.1737745E+03  0.7818608E-02  0.1174380E+00
         21   -1    0    0  501  502  0.00000000000E+00  0.00000000000E+00  0.10826055963E+04  0.10826055963E+04  0.00000000000E+00 0.  1.
         21   -1    0    0  502  503 -0.00000000000E+00 -0.00000000000E+00 -0.24580576668E+03  0.24580576668E+03  0.00000000000E+00 0. -1.
         -6    2    1    2    0  503 -0.26480041438E+01  0.20582776103E+02 -0.20713625883E+03  0.27037564637E+03  0.17253086051E+03 0.  0.
        -24    2    3    3    0    0  0.30489895011E+02 -0.45426668625E+02 -0.11137772291E+03  0.14935021782E+03  0.83110014335E+02 0.  0.
          6    2    1    2  501    0  0.26480041438E+01 -0.20582776103E+02  0.10439360885E+04  0.10580357166E+04  0.17089867826E+03 0.  0.
         24    2    5    5    0    0  0.21128964840E+02 -0.74457705325E+02  0.78644041852E+03  0.79427415015E+03  0.79953177946E+02 0.  0.
          5    1    5    5  501    0 -0.18480960696E+02  0.53874929222E+02  0.25749566994E+03  0.26376156647E+03  0.47000000000E+01 0. -1.
        -13    1    6    6    0    0  0.30551428699E+02 -0.38169777448E+02  0.17545231026E+03  0.18213685756E+03  0.00000000000E+00 0.  1.
         14    1    6    6    0    0 -0.94224638587E+01 -0.36287927877E+02  0.61098810827E+03  0.61213729259E+03  0.00000000000E+00 0. -1.
         -5    1    3    3    0  503 -0.33137899155E+02  0.66009444727E+02 -0.95758535925E+02  0.12102542855E+03  0.47000000000E+01 0.  1.
         11    1    4    4    0    0  0.15311347968E+02 -0.61807321008E+01 -0.10559228140E+03  0.10687548230E+03  0.00000000000E+00 0. -1.
        -12    1    4    4    0    0  0.15178547044E+02 -0.39245936524E+02 -0.57854415083E+01  0.42474735519E+02  0.00000000000E+00 0.  1.
</event>
<event>
12    1  0.8196217E-002  0.1736437E+03  0.7818608E-02  0.1174529E+00
         21   -1    0    0  503  502  0.00000000000E+00  0.00000000000E+00  0.98321788016E+02  0.98321788016E+02  0.00000000000E+00 0. -1.
         21   -1    0    0  501  503 -0.00000000000E+00 -0.00000000000E+00 -0.31576944874E+03  0.31576944874E+03  0.00000000000E+00 0. -1.
          6    2    1    2  501    0  0.22016703627E+01  0.21799611265E+02 -0.14970613812E+03  0.22926852338E+03  0.17225579125E+03 0.  0.
         24    2    3    3    0    0  0.15835158136E+02  0.72974602376E+02 -0.13490945533E+03  0.17407990566E+03  0.80791135610E+02 0.  0.
         -6    2    1    2    0  502 -0.22016703627E+01 -0.21799611265E+02 -0.67741522607E+02  0.18482271338E+03  0.17055923045E+03 0.  0.
        -24    2    5    5    0    0 -0.61035663064E+01 -0.57908993245E+01 -0.11156839931E+03  0.13776542094E+03  0.80380441945E+02 0.  0.
          5    1    3    3  501    0 -0.13633487773E+02 -0.51174991111E+02 -0.14796682787E+02  0.55188617718E+02  0.47000000000E+01 0. -1.
        -13    1    4    4    0    0  0.54475205431E+01  0.85519861263E+02 -0.81569154457E+02  0.11830827997E+03  0.00000000000E+00 0.  1.
         14    1    4    4    0    0  0.10387637593E+02 -0.12545258887E+02 -0.53340300873E+02  0.55771625693E+02  0.00000000000E+00 0. -1.
         -5    1    5    5    0  502  0.39018959437E+01 -0.16008711940E+02  0.43826876699E+02  0.47057292433E+02  0.47000000000E+01 0.  1.
         13    1    6    6    0    0 -0.22357410072E+02  0.28822743314E+02 -0.28408260160E+02  0.46234549447E+02  0.00000000000E+00 0. -1.
        -14    1    6    6    0    0  0.16253843766E+02 -0.34613642639E+02 -0.83160139146E+02  0.91530871495E+02  0.00000000000E+00 0.  1.
</event>
<event>
12    1  0.8196217E-002  0.1871215E+03  0.7818608E-02  0.1161265E+00
         21   -1    0    0  501  502  0.00000000000E+00  0.00000000000E+00  0.28457650438E+03  0.28457650438E+03  0.00000000000E+00 0.  1.
         21   -1    0    0  502  503 -0.00000000000E+00 -0.00000000000E+00 -0.98750330000E+03  0.98750330000E+03  0.00000000000E+00 0.  1.
         -6    2    1    2    0  503 -0.53129800560E+02 -0.50034474774E+02 -0.94683139232E+03  0.96514463118E+03  0.17230278361E+03 0.  0.
        -24    2    3    3    0    0  0.23449367633E+02 -0.67959194608E+02 -0.51317422897E+03  0.52438813388E+03  0.80416420629E+02 0.  0.
          6    2    1    2  501    0  0.53129800560E+02  0.50034474774E+02  0.24390459670E+03  0.30693517320E+03  0.17144539621E+03 0.  0.
         24    2    5    5    0    0  0.79043462971E+02 -0.17827944403E+02  0.13860841906E+03  0.17892657637E+03  0.78972914712E+02 0.  0.
          5    1    5    5  501    0 -0.25913662410E+02  0.67862419177E+02  0.10529617764E+03  0.12800859683E+03  0.47000000000E+01 0. -1.
        -13    1    6    6    0    0  0.17012780344E+02  0.12215396854E+02  0.95191661354E+02  0.97468471860E+02  0.00000000000E+00 0.  1.
         14    1    6    6    0    0  0.62030682627E+02 -0.30043341257E+02  0.43416757703E+02  0.81458104510E+02  0.00000000000E+00 0. -1.
         -5    1    3    3    0  503 -0.76579168194E+02  0.17924719833E+02 -0.43365716336E+03  0.44075649730E+03  0.47000000000E+01 0.  1.
         13    1    4    4    0    0  0.40182360641E+02 -0.38682418081E+01 -0.23453836311E+03  0.23798703572E+03  0.00000000000E+00 0. -1.
        -14    1    4    4    0    0 -0.16732993008E+02 -0.64090952799E+02 -0.27863586586E+03  0.28640109816E+03  0.00000000000E+00 0.  1.
</event>
<event>
12    1  0.8196217E-002  0.2593256E+03  0.7818608E-02  0.1107606E+00
         21   -1    0    0  501  502  0.00000000000E+00  0.00000000000E+00  0.24192101264E+04  0.24192101264E+04  0.00000000000E+00 0.  1.
         21   -1    0    0  502  503 -0.00000000000E+00 -0.00000000000E+00 -0.35628900303E+02  0.35628900303E+02  0.00000000000E+00 0. -1.
         -6    2    1    2    0  503 -0.19098603649E+03  0.34066084374E+02  0.61421755722E+03  0.66657239770E+03  0.17152081371E+03 0.  0.
        -24    2    3    3    0    0 -0.43139126495E+02  0.29986758128E+01  0.12504500020E+03  0.15458043174E+03  0.79930479224E+02 0.  0.
          6    2    1    2  501    0  0.19098603649E+03 -0.34066084374E+02  0.17693636688E+04  0.17882666290E+04  0.17208596525E+03 0.  0.
         24    2    5    5    0    0  0.71641577267E+02  0.10212894345E+02  0.48608693615E+03  0.49868336661E+03  0.84662694439E+02 0.  0.
          5    1    5    5  501    0  0.11934445922E+03 -0.44278978719E+02  0.12832767327E+04  0.12895832624E+04  0.47000000000E+01 0. -1.
        -13    1    6    6    0    0  0.23152163859E+01  0.34639148538E+02  0.21604611024E+03  0.21881762403E+03  0.00000000000E+00 0.  1.
         14    1    6    6    0    0  0.69326360881E+02 -0.24426254193E+02  0.27004082591E+03  0.27986574257E+03  0.00000000000E+00 0. -1.
         -5    1    3    3    0  503 -0.14784690999E+03  0.31067408561E+02  0.48917255701E+03  0.51199196596E+03  0.47000000000E+01 0.  1.
         11    1    4    4    0    0 -0.25933288202E+02  0.40825652164E+02  0.78308234622E+02  0.92040474364E+02  0.00000000000E+00 0. -1.
        -12    1    4    4    0    0 -0.17205838294E+02 -0.37826976351E+02  0.46736765583E+02  0.62539957375E+02  0.00000000000E+00 0.  1.
</event>
<event>
12    1  0.8196217E-002  0.2075828E+03  0.7818608E-02  0.1143592E+00
         21   -1    0    0  501  502  0.00000000000E+00  0.00000000000E+00  0.16492803098E+03  0.16492803098E+03  0.00000000000E+00 0.  1.
         21   -1    0    0  502  503 -0.00000000000E+00 -0.00000000000E+00 -0.75187797176E+03  0.75187797176E+03  0.00000000000E+00 0.  1.
         -6    2    1    2    0  503 -0.83529847452E+02  0.62993145424E+02 -0.66411460340E+03  0.69580086116E+03  0.17929099296E+03 0.  0.
        -24    2    3    3    0    0 -0.57235561338E+02  0.24132236136E+02 -0.62808906601E+03  0.63645872523E+03  0.82009510265E+02 0.  0.
          6    2    1    2  501    0  0.83529847452E+02 -0.62993145424E+02  0.77164662620E+02  0.22100514157E+03  0.17872748994E+03 0.  0.
         24    2    5    5    0    0 -0.13921754883E+02  0.38510384991E+01  0.61691917620E+02  0.10173043529E+03  0.79589842365E+02 0.  0.
          5    1    5    5  501    0  0.97451602335E+02 -0.66844183923E+02  0.15472745000E+02  0.11927470629E+03  0.47000000000E+01 0. -1.
        -13    1    6    6    0    0 -0.13047669393E+02 -0.11893942239E+02  0.77450256182E+02  0.79437080266E+02  0.00000000000E+00 0.  1.
         14    1    6    6    0    0 -0.87408548944E+00  0.15744980738E+02 -0.15758338562E+02  0.22293355021E+02  0.00000000000E+00 0. -1.
         -5    1    3    3    0  503 -0.26294286114E+02  0.38860909288E+02 -0.36025537392E+02  0.59342135935E+02  0.47000000000E+01 0.  1.
         11    1    4    4    0    0 -0.52811677514E+02 -0.16010525296E+02 -0.47257653952E+03  0.47578776351E+03  0.00000000000E+00 0. -1.
        -12    1    4    4    0    0 -0.44238838236E+01  0.40142761433E+02 -0.15551252649E+03  0.16067096172E+03  0.00000000000E+00 0.  1.
</event>
<event>
12    1  0.8196217E-002  0.2056298E+03  0.7818608E-02  0.1145162E+00
         21   -1    0    0  503  502  0.00000000000E+00  0.00000000000E+00  0.14899900571E+04  0.14899900571E+04  0.00000000000E+00 0.  1.
         21   -1    0    0  501  503 -0.00000000000E+00 -0.00000000000E+00 -0.34492323820E+02  0.34492323820E+02  0.00000000000E+00 0. -1.
          6    2    1    2  501    0 -0.11313661768E+03 -0.85345208907E+00  0.40465445381E+03  0.45370920074E+03  0.17119050560E+03 0.  0.
         24    2    3    3    0    0 -0.80800721729E+02 -0.12916811545E+02  0.11715941945E+03  0.16411186031E+03  0.80689357872E+02 0.  0.
         -6    2    1    2    0  502  0.11313661768E+03  0.85345208907E+00  0.10508432794E+04  0.10707731801E+04  0.17170609407E+03 0.  0.
        -24    2    5    5    0    0  0.64040747740E+02 -0.16422705446E+02  0.96496312506E+03  0.97024278185E+03  0.76461103775E+02 0.  0.
          5    1    3    3  501    0 -0.32335895951E+02  0.12063359456E+02  0.28749503436E+03  0.28959734044E+03  0.47000000000E+01 0. -1.
        -13    1    4    4    0    0 -0.69613560333E+01 -0.43658938188E+01  0.81062623877E+02  0.81478036896E+02  0.00000000000E+00 0.  1.
         14    1    4    4    0    0 -0.73839365696E+02 -0.85509177258E+01  0.36096795577E+02  0.82633823409E+02  0.00000000000E+00 0. -1.
         -5    1    5    5    0  502  0.49095869940E+02  0.17276157535E+02  0.85880154369E+02  0.10053039828E+03  0.47000000000E+01 0.  1.
         13    1    6    6    0    0  0.37690067934E+02  0.89459156854E+01  0.16668255885E+03  0.17112465063E+03  0.00000000000E+00 0. -1.
        -14    1    6    6    0    0  0.26350679805E+02 -0.25368621132E+02  0.79828056620E+03  0.79911813122E+03  0.00000000000E+00 0.  1.
</event>
<event>
12    1  0.8196217E-002  0.2342424E+03  0.7818608E-02  0.1126211E+00
         21   -1    0    0  503  502  0.00000000000E+00  0.00000000000E+00  0.18842274871E+03  0.18842274871E+03  0.00000000000E+00 0.  1.
         21   -1    0    0  501  503 -0.00000000000E+00 -0.00000000000E+00 -0.96410410001E+03  0.96410410001E+03  0.00000000000E+00 0.  1.
          6    2    1    2  501    0  0.13649383144E+03  0.12807996326E+02 -0.87193991511E+03  0.89927753455E+03  0.17212279860E+03 0.  0.
         24    2    3    3    0    0  0.42682640140E+02  0.45475542524E+02 -0.61919575084E+03  0.62767228652E+03  0.81726915190E+02 0.  0.
         -6    2    1    2    0  502 -0.13649383144E+03 -0.12807996326E+02  0.96258563806E+02  0.25324931418E+03  0.18993391808E+03 0.  0.
        -24    2    5    5    0    0  0.34151892564E+00 -0.26044839840E+02 -0.30121326894E+01  0.83614741294E+02  0.79397113933E+02 0.  0.
          5    1    3    3  501    0  0.93811191296E+02 -0.32667546198E+02 -0.25274416427E+03  0.27160524803E+03  0.47000000000E+01 0. -1.
        -13    1    4    4    0    0  0.41780377852E+02  0.66061538310E+01 -0.51018595851E+03  0.51193647409E+03  0.00000000000E+00 0.  1.
         14    1    4    4    0    0  0.90226228831E+00  0.38869388693E+02 -0.10900979233E+03  0.11573581243E+03  0.00000000000E+00 0. -1.
         -5    1    5    5    0  502 -0.13683535036E+03  0.13236843515E+02  0.99270696496E+02  0.16963457288E+03  0.47000000000E+01 0.  1.
         13    1    6    6    0    0 -0.32205556657E+02 -0.32058819835E+02 -0.15831711981E+02  0.48120774236E+02  0.00000000000E+00 0. -1.
        -14    1    6    6    0    0  0.32547075582E+02  0.60139799949E+01  0.12819579291E+02  0.35493967058E+02  0.00000000000E+00 0.  1.
</event>
<event>
12    1  0.8196217E-002  0.1874895E+03  0.7818608E-02  0.1161044E+00
         21   -1    0    0  501  502  0.00000000000E+00  0.00000000000E+00  0.81947390052E+03  0.81947390052E+03  0.00000000000E+00 0.  1.
         21   -1    0    0  502  503 -0.00000000000E+00 -0.00000000000E+00 -0.43943348301E+02  0.43943348301E+02  0.00000000000E+00 0.  1.
         -6    2    1    2    0  503 -0.70654532275E+02  0.94463280391E+01  0.46193360192E+03  0.49804710461E+03  0.17200863287E+03 0.  0.
        -24    2    3    3    0    0 -0.14316031970E+02 -0.28260515999E+02  0.38957327985E+03  0.39878009642E+03  0.79086151716E+02 0.  0.
          6    2    1    2  501    0  0.70654532275E+02 -0.94463280391E+01  0.31359695030E+03  0.36537014422E+03  0.17340991610E+03 0.  0.
         24    2    5    5    0    0 -0.14714679545E+02 -0.69884447274E+01  0.74984299384E+02  0.11189030144E+03  0.81433618660E+02 0.  0.
          5    1    5    5  501    0  0.85369211820E+02 -0.24578833117E+01  0.23861265092E+03  0.25347984278E+03  0.47000000000E+01 0. -1.
        -11    1    6    6    0    0 -0.84746047565E+01  0.44605358879E+01  0.90850378860E+02  0.91353744560E+02  0.00000000000E+00 0.  1.
         12    1    6    6    0    0 -0.62400747884E+01 -0.11448980615E+02 -0.15866079476E+02  0.20536556879E+02  0.00000000000E+00 0. -1.
         -5    1    3    3    0  503 -0.56338500305E+02  0.37706844038E+02  0.72360322069E+02  0.99267008184E+02  0.47000000000E+01 0.  1.
         13    1    4    4    0    0 -0.41542809035E+02 -0.37784352037E+02  0.24431261841E+03  0.25068330171E+03  0.00000000000E+00 0. -1.
        -14    1    4    4    0    0  0.27226777065E+02  0.95238360377E+01  0.14526066144E+03  0.14809679471E+03  0.00000000000E+00 0.  1.
</event>
<event>
12    1  0.8196217E-002  0.1811586E+03  0.7818608E-02  0.1166846E+00
         21   -1    0    0  501  502  0.00000000000E+00  0.00000000000E+00  0.85898336137E+03  0.85898336137E+03  0.00000000000E+00 0. -1.
         21   -1    0    0  502  503 -0.00000000000E+00 -0.00000000000E+00 -0.69951547404E+02  0.69951547404E+02  0.00000000000E+00 0.  1.
         -6    2    1    2    0  503 -0.12446888243E+02 -0.52976681130E+02  0.81328768170E+02  0.19857692980E+03  0.17279170914E+03 0.  0.
        -24    2    3    3    0    0  0.34216075942E+02 -0.81088408163E+02  0.28636689517E+02  0.12264112417E+03  0.80465617259E+02 0.  0.
          6    2    1    2  501    0  0.12446888243E+02  0.52976681130E+02  0.70770304580E+03  0.73035797898E+03  0.17209800305E+03 0.  0.
         24    2    5    5    0    0  0.68757626091E+02  0.13246489362E+02  0.34017930380E+03  0.35639918677E+03  0.79970875778E+02 0.  0.
          5    1    5    5  501    0 -0.56310737847E+02  0.39730191768E+02  0.36752374200E+03  0.37395879221E+03  0.47000000000E+01 0. -1.
        -13    1    6    6    0    0 -0.16255537457E+02  0.98124009729E+00  0.25904874591E+02  0.30598494370E+02  0.00000000000E+00 0.  1.
         14    1    6    6    0    0  0.85013163547E+02  0.12265249265E+02  0.31427442921E+03  0.32580069240E+03  0.00000000000E+00 0. -1.
         -5    1    3    3    0  503 -0.46662964185E+02  0.28111727032E+02  0.52692078652E+02  0.75935805625E+02  0.47000000000E+01 0.  1.
         13    1    4    4    0    0 -0.11021549333E+01 -0.62824680464E+02  0.47368315764E+02  0.78688706681E+02  0.00000000000E+00 0. -1.
        -14    1    4    4    0    0  0.35318230875E+02 -0.18263727699E+02 -0.18731626247E+02  0.43952417493E+02  0.00000000000E+00 0.  1.
</event>
<event>
12    1  0.8196217E-002  0.2763471E+03  0.7818608E-02  0.1097711E+00
         21   -1    0    0  501  502  0.00000000000E+00  0.00000000000E+00  0.12147150596E+04  0.12147150596E+04  0.00000000000E+00 0. -1.
         21   -1    0    0  502  503 -0.00000000000E+00 -0.00000000000E+00 -0.12601010540E+03  0.12601010540E+03  0.00000000000E+00 0. -1.
         -6    2    1    2    0  503 -0.68508825129E+02  0.20553996689E+03  0.69796813668E+02  0.28502509469E+03  0.17154466560E+03 0.  0.
        -24    2    3    3    0    0 -0.31869075250E+02  0.56088128620E+02 -0.11673373761E+02  0.11084758560E+03  0.89383462951E+02 0.  0.
          6    2    1    2  501    0  0.68508825129E+02 -0.20553996689E+03  0.10189081405E+04  0.10557000703E+04  0.17143133469E+03 0.  0.
         24    2    5    5    0    0  0.83721171281E+02 -0.15715549780E+03  0.95016721070E+03  0.97014378616E+03  0.81572988966E+02 0.  0.
          5    1    5    5  501    0 -0.15212346152E+02 -0.48384469092E+02  0.68740929849E+02  0.85556284172E+02  0.47000000000E+01 0. -1.
        -13    1    6    6    0    0  0.43733405969E+02 -0.19275512088E+02  0.33836758796E+03  0.34172617802E+03  0.00000000000E+00 0.  1.
         14    1    6    6    0    0  0.39987765313E+02 -0.13787998571E+03  0.61179962274E+03  0.62841760814E+03  0.00000000000E+00 0. -1.
         -5    1    3    3    0  503 -0.36639749879E+02  0.14945183827E+03  0.81470187430E+02  0.17417750909E+03  0.47000000000E+01 0.  1.
         13    1    4    4    0    0 -0.59900530779E+02  0.45463695279E+02 -0.23250820430E+02  0.78712272403E+02  0.00000000000E+00 0. -1.
        -14    1    4    4    0    0  0.28031455530E+02  0.10624433341E+02  0.11577446669E+02  0.32135313198E+02  0.00000000000E+00 0.  1.
</event>
<event>
12    1  0.8196217E-002  0.4282519E+03  0.7818608E-02  0.1034460E+00
         21   -1    0    0  501  502  0.00000000000E+00  0.00000000000E+00  0.10203875172E+04  0.10203875172E+04  0.00000000000E+00 0. -1.
         21   -1    0    0  502  503 -0.00000000000E+00 -0.00000000000E+00 -0.18523695757E+03  0.18523695757E+03  0.00000000000E+00 0.  1.
         -6    2    1    2    0  503  0.27417062966E+03  0.27804765698E+03  0.52347348978E+03  0.67596206474E+03  0.17441383185E+03 0.  0.
        -24    2    3    3    0    0  0.10061915344E+03  0.19737102342E+03  0.30580974394E+03  0.38608548694E+03  0.80391969844E+02 0.  0.
          6    2    1    2  501    0 -0.27417062966E+03 -0.27804765698E+03  0.31167706988E+03  0.52966241007E+03  0.17583981070E+03 0.  0.
         24    2    5    5    0    0 -0.27393925141E+03 -0.23994965009E+03  0.22312048367E+03  0.43314365217E+03  0.72195049282E+02 0.  0.
          5    1    5    5  501    0 -0.23137825249E+00 -0.38098006891E+02  0.88556586206E+02  0.96518757894E+02  0.47000000000E+01 0. -1.
        -11    1    6    6    0    0 -0.14043831745E+03 -0.89934626090E+02  0.13169028466E+03  0.21249350355E+03  0.00000000000E+00 0.  1.
         12    1    6    6    0    0 -0.13350093396E+03 -0.15001502400E+03  0.91430199012E+02  0.22065014862E+03  0.00000000000E+00 0. -1.
         -5    1    3    3    0  503  0.17355147622E+03  0.80676633567E+02  0.21766374584E+03  0.28987657780E+03  0.47000000000E+01 0.  1.
         11    1    4    4    0    0  0.89157972056E+02  0.15975473774E+03  0.18991626345E+03  0.26370230817E+03  0.00000000000E+00 0. -1.
        -12    1    4    4    0    0  0.11461181386E+02  0.37616285679E+02  0.11589348048E+03  0.12238317877E+03  0.00000000000E+00 0.  1.
</event>
<event>
12    1  0.8196217E-002  0.1778142E+03  0.7818608E-02  0.1170057E+00
         21   -1    0    0  503  502  0.00000000000E+00  0.00000000000E+00  0.57173038916E+03  0.57173038916E+03  0.00000000000E+00 0. -1.
         21   -1    0    0  501  503 -0.00000000000E+00 -0.00000000000E+00 -0.27422835953E+03  0.27422835953E+03  0.00000000000E+00 0. -1.
          6    2    1    2  501    0 -0.70964074874E+01 -0.44174450006E+02 -0.22927040243E+03  0.29014272191E+03  0.17209340667E+03 0.  0.
         24    2    3    3    0    0  0.51501569099E+01 -0.46612515554E+02 -0.41177554032E+02  0.10157726346E+03  0.80144237311E+02 0.  0.
         -6    2    1    2    0  502  0.70964074874E+01  0.44174450006E+02  0.52677243205E+03  0.55581602677E+03  0.17158239833E+03 0.  0.
        -24    2    5    5    0    0 -0.89123007204E+01  0.77892005556E+02  0.49010439083E+03  0.50328234674E+03  0.83331944641E+02 0.  0.
          5    1    3    3  501    0 -0.12246564397E+02  0.24380655487E+01 -0.18809284840E+03  0.18856545845E+03  0.47000000000E+01 0. -1.
        -13    1    4    4    0    0 -0.11416461681E+02  0.90554166199E+01  0.14901252022E+02  0.20841868422E+02  0.00000000000E+00 0.  1.
         14    1    4    4    0    0  0.16566618591E+02 -0.55667932174E+02 -0.56078806054E+02  0.80735395042E+02  0.00000000000E+00 0. -1.
         -5    1    5    5    0  502  0.16008708208E+02 -0.33717555551E+02  0.36668041222E+02  0.52533680034E+02  0.47000000000E+01 0.  1.
         11    1    6    6    0    0 -0.26188240411E+02  0.77790431042E+02  0.26274083621E+03  0.27526336863E+03  0.00000000000E+00 0. -1.
        -12    1    6    6    0    0  0.17275939691E+02  0.10157451392E+00  0.22736355462E+03  0.22801897811E+03  0.00000000000E+00 0.  1.
</event>
<event>
12    1  0.8196217E-002  0.1945795E+03  0.7818608E-02  0.1154630E+00
         21   -1    0    0  501  502  0.00000000000E+00  0.00000000000E+00  0.98024779144E+03  0.98024779144E+03  0.00000000000E+00 0. -1.
         21   -1    0    0  502  503 -0.00000000000E+00 -0.00000000000E+00 -0.63202048602E+02  0.63202048602E+02  0.00000000000E+00 0. -1.
         -6    2    1    2    0  503  0.29214280475E+02 -0.85007975764E+02  0.13099432951E+03  0.23367332946E+03  0.17135892276E+03 0.  0.
        -24    2    3    3    0    0  0.65066640228E+02 -0.83282015479E+02  0.14328792609E+03  0.19544254140E+03  0.80602701281E+02 0.  0.
          6    2    1    2  501    0 -0.29214280475E+02  0.85007975764E+02  0.78605141333E+03  0.80977651059E+03  0.17257271676E+03 0.  0.
         24    2    5    5    0    0  0.90399449875E+01  0.11656368931E+03  0.51379982437E+03  0.53300554658E+03  0.80223680378E+02 0.  0.
          5    1    5    5  501    0 -0.38254225463E+02 -0.31555713551E+02  0.27225158896E+03  0.27677096400E+03  0.47000000000E+01 0. -1.
        -11    1    6    6    0    0 -0.15792970200E+02  0.11062283406E+03  0.35517199897E+03  0.37233584057E+03  0.00000000000E+00 0.  1.
         12    1    6    6    0    0  0.24832915187E+02  0.59408552535E+01  0.15862782540E+03  0.16066970601E+03  0.00000000000E+00 0. -1.
         -5    1    3    3    0  503 -0.35852359753E+02 -0.17259602847E+01 -0.12293596578E+02  0.38230788058E+02  0.47000000000E+01 0.  1.
         11    1    4    4    0    0  0.74379059893E+02 -0.51859194557E+02  0.68025307286E+02  0.11335370767E+03  0.00000000000E+00 0. -1.
        -12    1    4    4    0    0 -0.93124196654E+01 -0.31422820922E+02  0.75262618801E+02  0.82088833732E+02  0.00000000000E+00 0.  1.
</event>
<event>
12    1  0.8196217E-002  0.2173910E+03  0.7818608E-02  0.1135998E+00
         21   -1    0    0  501  502  0.00000000000E+00  0.00000000000E+00  0.38130749697E+02  0.38130749697E+02  0.00000000000E+00 0. -1.
         21   -1    0    0  502  503 -0.00000000000E+00 -0.00000000000E+00 -0.12638612004E+04  0.12638612004E+04  0.00000000000E+00 0. -1.
         -6    2    1    2    0  503  0.55938535592E+02  0.11994952424E+03 -0.71053462111E+03  0.74280899590E+03  0.17143146870E+03 0.  0.
        -24    2    3    3    0    0  0.93914391187E+02  0.11050456546E+03 -0.65187236749E+03  0.67213564268E+03  0.76141754726E+02 0.  0.
          6    2    1    2  501    0 -0.55938535592E+02 -0.11994952424E+03 -0.51519582960E+03  0.55918295421E+03  0.17245818423E+03 0.  0.
         24    2    5    5    0    0 -0.16239175703E+02  0.29161341043E+01 -0.14137904090E+03  0.16366672105E+03  0.80787051609E+02 0.  0.
          5    1    5    5  501    0 -0.39699359889E+02 -0.12286565835E+03 -0.37381678870E+03  0.39551623316E+03  0.47000000000E+01 0. -1.
        -13    1    6    6    0    0  0.10822321300E+01 -0.12818041380E+02  0.61747455817E+01  0.14268878519E+02  0.00000000000E+00 0.  1.
         14    1    6    6    0    0 -0.17321407833E+02  0.15734175484E+02 -0.14755378649E+03  0.14939784253E+03  0.00000000000E+00 0. -1.
         -5    1    3    3    0  503 -0.37975855595E+02  0.94449587861E+01 -0.58662253625E+02  0.70673353218E+02  0.47000000000E+01 0.  1.
         11    1    4    4    0    0 -0.13378865491E+02  0.13279521605E+02 -0.84843012184E+02  0.86911889016E+02  0.00000000000E+00 0. -1.
        -12    1    4    4    0    0  0.10729325668E+03  0.97225043852E+02 -0.56702935530E+03  0.58522375367E+03  0.00000000000E+00 0.  1.
</event>
<event>
12    1  0.8196217E-002  0.3195193E+03  0.7818608E-02  0.1076028E+00
         21   -1    0    0  503  502  0.00000000000E+00  0.00000000000E+00  0.23814640629E+03  0.23814640629E+03  0.00000000000E+00 0.  1.
         21   -1    0    0  501  503 -0.00000000000E+00 -0.00000000000E+00 -0.69131734216E+03  0.69131734216E+03  0.00000000000E+00 0. -1.
          6    2    1    2  501    0 -0.14450205981E+03 -0.22710739582E+03 -0.51371397086E+03  0.60425909390E+03  0.16961248239E+03 0.  0.
         24    2    3    3    0    0 -0.12443635491E+03 -0.78060508124E+02 -0.25711178205E+03  0.30679585155E+03  0.80245727062E+02 0.  0.
         -6    2    1    2    0  502  0.14450205981E+03  0.22710739582E+03  0.60543034986E+02  0.32520465455E+03  0.17214526927E+03 0.  0.
        -24    2    5    5    0    0  0.49303766485E+02  0.74036885837E+02 -0.22659697425E+02  0.12661442126E+03  0.87209104626E+02 0.  0.
          5    1    3    3  501    0 -0.20065704896E+02 -0.14904688770E+03 -0.25660218881E+03  0.29746324235E+03  0.47000000000E+01 0. -1.
        -11    1    4    4    0    0 -0.53798735351E+02  0.41329075955E+01 -0.52657373582E+02  0.75393526533E+02  0.00000000000E+00 0.  1.
         12    1    4    4    0    0 -0.70637619561E+02 -0.82193415720E+02 -0.20445440846E+03  0.23140232502E+03  0.00000000000E+00 0. -1.
         -5    1    5    5    0  502  0.95198293323E+02  0.15307050998E+03  0.83202732411E+02  0.19859023329E+03  0.47000000000E+01 0.  1.
         11    1    6    6    0    0 -0.19776845128E+02  0.94182848146E+01  0.13059855315E+02  0.25502696189E+02  0.00000000000E+00 0. -1.
        -12    1    6    6    0    0  0.69080611614E+02  0.64618601022E+02 -0.35719552740E+02  0.10111172507E+03  0.00000000000E+00 0.  1.
</event>
<event>
12    1  0.8196217E-002  0.2407113E+03  0.7818608E-02  0.1119454E+00
         21   -1    0    0  501  502  0.00000000000E+00  0.00000000000E+00  0.97582963082E+02  0.97582963082E+02  0.00000000000E+00 0. -1.
         21   -1    0    0  502  503 -0.00000000000E+00 -0.00000000000E+00 -0.10196387599E+04  0.10196387599E+04  0.00000000000E+00 0.  1.
         -6    2    1    2    0  503 -0.41547393212E+02  0.16313855378E+03 -0.82333526945E+03  0.85780120373E+03  0.17205105517E+03 0.  0.
        -24    2    3    3    0    0  0.23398454494E+02  0.14953084090E+02 -0.25549487464E+03  0.26734231393E+03  0.73642375398E+02 0.  0.
          6    2    1    2  501    0  0.41547393212E+02 -0.16313855378E+03 -0.98720527330E+02  0.25942051922E+03  0.17091778626E+03 0.  0.
         24    2    5    5    0    0 -0.11134341489E+02 -0.24950270079E+02 -0.61518717266E+02  0.10685108717E+03  0.82982604906E+02 0.  0.
          5    1    5    5  501    0  0.52681734701E+02 -0.13818828370E+03 -0.37201810064E+02  0.15256943205E+03  0.47000000000E+01 0. -1.
        -13    1    6    6    0    0 -0.85128652373E+01  0.17268613126E+02  0.11528196953E+02  0.22440436690E+02  0.00000000000E+00 0.  1.
         14    1    6    6    0    0 -0.26214762516E+01 -0.42218883205E+02 -0.73046914219E+02  0.84410650476E+02  0.00000000000E+00 0. -1.
         -5    1    3    3    0  503 -0.64945847706E+02  0.14818546969E+03 -0.56784039481E+03  0.59045888979E+03  0.47000000000E+01 0.  1.
         11    1    4    4    0    0 -0.68538567792E+01 -0.24801136823E+02 -0.12480984113E+03  0.12743456432E+03  0.00000000000E+00 0. -1.
        -12    1    4    4    0    0  0.30252311273E+02  0.39754220913E+02 -0.13068503351E+03  0.13990774961E+03  0.00000000000E+00 0.  1.
</event>
<event>
12    1  0.8196217E-002  0.1911426E+03  0.7818608E-02  0.1157506E+00
         21   -1    0    0  501  502  0.00000000000E+00  0.00000000000E+00  0.63483369814E+03  0.63483369814E+03  0.00000000000E+00 0. -1.
         21   -1    0    0  502  503 -0.00000000000E+00 -0.00000000000E+00 -0.57882430329E+02  0.57882430329E+02  0.00000000000E+00 0. -1.
         -6    2    1    2    0  503  0.80082258917E+02 -0.13390972444E+02  0.31799576947E+03  0.37085674505E+03  0.17268737537E+03 0.  0.
        -24    2    3    3    0    0 -0.21249088827E+01 -0.28645062970E+02  0.24947871621E+03  0.26265608746E+03  0.76964508500E+02 0.  0.
          6    2    1    2  501    0 -0.80082258917E+02  0.13390972444E+02  0.25895549834E+03  0.32185938342E+03  0.17304053351E+03 0.  0.
         24    2    5    5    0    0 -0.22494716458E+02  0.48132812525E+02  0.60211393034E+02  0.11199125841E+03  0.78063116771E+02 0.  0.
          5    1    5    5  501    0 -0.57587542460E+02 -0.34741840081E+02  0.19874410531E+03  0.20986812501E+03  0.47000000000E+01 0. -1.
        -11    1    6    6    0    0  0.55162612881E+01  0.13497995827E+02  0.65528095183E+02  0.67130889226E+02  0.00000000000E+00 0.  1.
         12    1    6    6    0    0 -0.28010977746E+02  0.34634816698E+02 -0.53167021490E+01  0.44860369189E+02  0.00000000000E+00 0. -1.
         -5    1    3    3    0  503  0.82207167800E+02  0.15254090526E+02  0.68517053265E+02  0.10820065759E+03  0.47000000000E+01 0.  1.
         13    1    4    4    0    0  0.49290392213E+01 -0.53899785179E+02  0.19192053545E+03  0.19940655505E+03  0.00000000000E+00 0. -1.
        -14    1    4    4    0    0 -0.70539481041E+01  0.25254722209E+02  0.57558180754E+02  0.63249532405E+02  0.00000000000E+00 0.  1.
</event>
<event>
12    1  0.8196217E-002  0.1767169E+03  0.7818608E-02  0.1171377E+00
         21   -1    0    0  501  502  0.00000000000E+00  0.00000000000E+00  0.31758524319E+03  0.31758524319E+03  0.00000000000E+00 0. -1.
         21   -1    0    0  502  503 -0.00000000000E+00 -0.00000000000E+00 -0.19479155977E+03  0.19479155977E+03  0.00000000000E+00 0. -1.
         -6    2    1    2    0  503 -0.19005490036E+02  0.27776132224E+02  0.24254584808E+03  0.30009559468E+03  0.17348243530E+03 0.  0.
        -24    2    3    3    0    0  0.15918208361E+02  0.85043910480E+01  0.24619218947E+03  0.25976631843E+03  0.80884065230E+02 0.  0.
          6    2    1    2  501    0  0.19005490036E+02 -0.27776132224E+02 -0.11975216466E+03  0.21228120828E+03  0.17201746503E+03 0.  0.
         24    2    5    5    0    0 -0.15238112693E+00  0.50220587358E+02 -0.63426354648E+02  0.11407123340E+03  0.80418985385E+02 0.  0.
          5    1    5    5  501    0  0.19157871163E+02 -0.77996719582E+02 -0.56325810010E+02  0.98209974882E+02  0.47000000000E+01 0. -1.
        -13    1    6    6    0    0  0.17828309363E+02 -0.15453875763E+02 -0.44926655171E+01  0.24017804527E+02  0.00000000000E+00 0.  1.
         14    1    6    6    0    0 -0.17980690490E+02  0.65674463121E+02 -0.58933689131E+02  0.90053428871E+02  0.00000000000E+00 0. -1.
         -5    1    3    3    0  503 -0.34923698397E+02  0.19271741176E+02 -0.36463413958E+01  0.40329276255E+02  0.47000000000E+01 0.  1.
         11    1    4    4    0    0  0.29602685445E+02 -0.26411899523E+02  0.78783913222E+02  0.88208913407E+02  0.00000000000E+00 0. -1.
        -12    1    4    4    0    0 -0.13684477084E+02  0.34916290571E+02  0.16740827625E+03  0.17155740502E+03  0.00000000000E+00 0.  1.
</event>
<event>
12    1  0.8196217E-002  0.1790679E+03  0.7818608E-02  0.1170291E+00
         21   -1    0    0  501  502  0.00000000000E+00  0.00000000000E+00  0.19836343541E+04  0.19836343541E+04  0.00000000000E+00 0. -1.
         21   -1    0    0  502  503 -0.00000000000E+00 -0.00000000000E+00 -0.16056332541E+02  0.16056332541E+02  0.00000000000E+00 0. -1.
         -6    2    1    2    0  503 -0.37003212534E+02  0.33843273273E+02  0.11706098450E+04  0.11842266333E+04  0.17190318422E+03 0.  0.
        -24    2    3    3    0    0 -0.27882356571E+01  0.77360582014E+02  0.54908851651E+03  0.56022721610E+03  0.79774060884E+02 0.  0.
          6    2    1    2  501    0  0.37003212534E+02 -0.33843273273E+02  0.79696817656E+03  0.81546405341E+03  0.16525357207E+03 0.  0.
         24    2    5    5    0    0  0.34341812314E+02 -0.77373429076E+02  0.41657357411E+03  0.43254878722E+03  0.79993143936E+02 0.  0.
          5    1    5    5  501    0  0.26614002198E+01  0.43530155802E+02  0.38039460244E+03  0.38291526619E+03  0.47000000000E+01 0. -1.
        -13    1    6    6    0    0 -0.24405731554E+02 -0.99142231517E+01  0.11556915593E+03  0.11853337654E+03  0.00000000000E+00 0.  1.
         14    1    6    6    0    0  0.58747543869E+02 -0.67459205924E+02  0.30100441819E+03  0.31401541068E+03  0.00000000000E+00 0. -1.
         -5    1    3    3    0  503 -0.34214976877E+02 -0.43517308741E+02  0.62152132853E+03  0.62399941717E+03  0.47000000000E+01 0.  1.
         13    1    4    4    0    0 -0.20171411852E+02  0.24995760085E+02  0.39947487159E+03  0.40076407887E+03  0.00000000000E+00 0. -1.
        -14    1    4    4    0    0  0.17383176195E+02  0.52364821929E+02  0.14961364492E+03  0.15946313723E+03  0.00000000000E+00 0.  1.
</event>
<event>
12    1  0.8196217E-002  0.1916411E+03  0.7818608E-02  0.1157756E+00
         21   -1    0    0  501  502  0.00000000000E+00  0.00000000000E+00  0.20361916394E+03  0.20361916394E+03  0.00000000000E+00 0. -1.
         21   -1    0    0  502  503 -0.00000000000E+00 -0.00000000000E+00 -0.46187770842E+03  0.46187770842E+03  0.00000000000E+00 0. -1.
         -6    2    1    2    0  503  0.63384783381E+02  0.55428456355E+02 -0.38992606535E+03  0.43298311201E+03  0.16835110428E+03 0.  0.
        -24    2    3    3    0    0  0.81315577695E+02  0.69594671814E+02 -0.39073096404E+03  0.40963931397E+03  0.60646844699E+02 0.  0.
          6    2    1    2  501    0 -0.63384783381E+02 -0.55428456355E+02  0.13166752087E+03  0.23251376035E+03  0.17215216572E+03 0.  0.
         24    2    5    5    0    0 -0.73760537816E+01 -0.60667867764E+02  0.13087630346E+02  0.10118322445E+03  0.79572372675E+02 0.  0.
          5    1    5    5  501    0 -0.56008729599E+02  0.52394114092E+01  0.11857989052E+03  0.13133053590E+03  0.47000000000E+01 0. -1.
        -13    1    6    6    0    0 -0.21133023507E+02  0.11053856266E+02 -0.80252389167E+01  0.25163403596E+02  0.00000000000E+00 0.  1.
         14    1    6    6    0    0  0.13756969725E+02 -0.71721724030E+02  0.21112869262E+02  0.76019820852E+02  0.00000000000E+00 0. -1.
         -5    1    3    3    0  503 -0.17930794314E+02 -0.14166215460E+02  0.80489868596E+00  0.23343798043E+02  0.47000000000E+01 0.  1.
         11    1    4    4    0    0  0.33750080382E+02  0.31729247117E+00 -0.64969125061E+02  0.73213084975E+02  0.00000000000E+00 0. -1.
        -12    1    4    4    0    0  0.47565497313E+02  0.69277379343E+02 -0.32576183898E+03  0.33642622900E+03  0.00000000000E+00 0.  1.
</event>
<event>
12    1  0.8196217E-002  0.2089359E+03  0.7818608E-02  0.1142687E+00
         21   -1    0    0  501  502  0.00000000000E+00  0.00000000000E+00  0.89335399897E+03  0.89335399897E+03  0.00000000000E+00 0.  1.
         21   -1    0    0  502  503 -0.00000000000E+00 -0.00000000000E+00 -0.48719269834E+02  0.48719269834E+02  0.00000000000E+00 0. -1.
         -6    2    1    2    0  503  0.20782809160E+02  0.11484299865E+03  0.39261091478E+03  0.44409761257E+03  0.17163484377E+03 0.  0.
        -24    2    3    3    0    0  0.18375938057E+02  0.13887597490E+03  0.23166421115E+03  0.28128081865E+03  0.76330732387E+02 0.  0.
          6    2    1    2  501    0 -0.20782809160E+02 -0.11484299865E+03  0.45202381436E+03  0.49797565623E+03  0.17330143091E+03 0.  0.
         24    2    5    5    0    0 -0.63675815105E+02 -0.12399100199E+03  0.39010947978E+03  0.42195611433E+03  0.80207095715E+02 0.  0.
          5    1    5    5  501    0  0.42893005945E+02  0.91480033385E+01  0.61914334573E+02  0.76019541893E+02  0.47000000000E+01 0. -1.
        -11    1    6    6    0    0  0.24771292945E+01 -0.79084656981E+02  0.22498107522E+03  0.23848900047E+03  0.00000000000E+00 0.  1.
         12    1    6    6    0    0 -0.66152944400E+02 -0.44906345009E+02  0.16512840456E+03  0.18346711386E+03  0.00000000000E+00 0. -1.
         -5    1    3    3    0  503  0.24068711032E+01 -0.24032976252E+02  0.16094670363E+03  0.16281679393E+03  0.47000000000E+01 0.  1.
         11    1    4    4    0    0  0.31842265939E+02  0.71502666383E+02  0.17681917240E+03  0.19336902784E+03  0.00000000000E+00 0. -1.
        -12    1    4    4    0    0 -0.13466327882E+02  0.67373308521E+02  0.54845038755E+02  0.87911790812E+02  0.00000000000E+00 0.  1.
</event>
<event>
12    1  0.8196217E-002  0.1776623E+03  0.7818608E-02  0.1172124E+00
         21   -1    0    0  503  502  0.00000000000E+00  0.00000000000E+00  0.32040160103E+03  0.32040160103E+03  0.00000000000E+00 0.  1.
         21   -1    0    0  501  503 -0.00000000000E+00 -0.00000000000E+00 -0.30026945846E+03  0.30026945846E+03  0.00000000000E+00 0.  1.
          6    2    1    2  501    0  0.59313113011E+01 -0.22477879985E+02 -0.24714656826E+03  0.29973211968E+03  0.16798059954E+03 0.  0.
         24    2    3    3    0    0  0.52929941490E+02 -0.10723671249E+01 -0.84666682721E+02  0.12917752307E+03  0.81949109971E+02 0.  0.
         -6    2    1    2    0  502 -0.59313113011E+01  0.22477879985E+02  0.26727871083E+03  0.32093893980E+03  0.17613477304E+03 0.  0.
        -24    2    5    5    0    0  0.13793002115E+02 -0.25020583364E+01  0.27526759438E+03  0.28778840257E+03  0.82785318355E+02 0.  0.
          5    1    3    3  501    0 -0.46998630189E+02 -0.21405512860E+02 -0.16247988554E+03  0.17055459662E+03  0.47000000000E+01 0. -1.
        -13    1    4    4    0    0  0.34572504194E+02  0.20157369360E+02 -0.91864657333E+02  0.10020325769E+03  0.00000000000E+00 0.  1.
         14    1    4    4    0    0  0.18357437296E+02 -0.21229736485E+02  0.71979746116E+01  0.28974265371E+02  0.00000000000E+00 0. -1.
         -5    1    5    5    0  502 -0.19724313416E+02  0.24979938322E+02 -0.79888835472E+01  0.33150537230E+02  0.47000000000E+01 0.  1.
         11    1    6    6    0    0  0.65133589972E+01  0.38342958065E+02  0.91993400804E+02  0.99876884563E+02  0.00000000000E+00 0. -1.
        -12    1    6    6    0    0  0.72796431175E+01 -0.40845016402E+02  0.18327419358E+03  0.18791151801E+03  0.00000000000E+00 0.  1.
</event>
<event>
12    1  0.8196217E-002  0.2354343E+03  0.7818608E-02  0.1122959E+00
         21   -1    0    0  503  502  0.00000000000E+00  0.00000000000E+00  0.31958090409E+03  0.31958090409E+03  0.00000000000E+00 0.  1.
         21   -1    0    0  501  503 -0.00000000000E+00 -0.00000000000E+00 -0.23238617951E+03  0.23238617951E+03  0.00000000000E+00 0.  1.
          6    2    1    2  501    0  0.15900542571E+03  0.19176186502E+02 -0.95869207862E+02  0.25373607972E+03  0.17187391193E+03 0.  0.
         24    2    3    3    0    0  0.56599606293E+02 -0.33947837863E+01  0.18142743252E+02  0.98761192895E+02  0.78800850883E+02 0.  0.
         -6    2    1    2    0  502 -0.15900542571E+03 -0.19176186502E+02  0.18306393244E+03  0.29823100388E+03  0.17256557240E+03 0.  0.
        -24    2    5    5    0    0 -0.14252290253E+03  0.30575025915E+02  0.82028603939E+02  0.18431399763E+03  0.77429631940E+02 0.  0.
          5    1    3    3  501    0  0.10240581942E+03  0.22570970288E+02 -0.11401195111E+03  0.15497488683E+03  0.47000000000E+01 0. -1.
        -11    1    4    4    0    0  0.35630077553E+02 -0.39966649982E+02  0.18794089260E+01  0.53575812781E+02  0.00000000000E+00 0.  1.
         12    1    4    4    0    0  0.20969528740E+02  0.36571866196E+02  0.16263334326E+02  0.45185380114E+02  0.00000000000E+00 0. -1.
         -5    1    5    5    0  502 -0.16482523180E+02 -0.49751212417E+02  0.10103532850E+03  0.11391700625E+03  0.47000000000E+01 0.  1.
         11    1    6    6    0    0 -0.16661949522E+01 -0.10828849246E+02  0.24117388637E+02  0.26489405737E+02  0.00000000000E+00 0. -1.
        -12    1    6    6    0    0 -0.14085670758E+03  0.41403875161E+02  0.57911215302E+02  0.15782459189E+03  0.00000000000E+00 0.  1.
</event>
<event>
12    1  0.8196217E-002  0.1740462E+03  0.7818608E-02  0.1173832E+00
         21   -1    0    0  501  502  0.00000000000E+00  0.00000000000E+00  0.55047590672E+03  0.55047590672E+03  0.00000000000E+00 0.  1.
         21   -1    0    0  502  503 -0.00000000000E+00 -0.00000000000E+00 -0.11754559156E+03  0.11754559156E+03  0.00000000000E+00 0.  1.
         -6    2    1    2    0  503 -0.10283202115E+02 -0.12245146902E+02 -0.27300628746E+02  0.17617437009E+03  0.17331011649E+03 0.  0.
        -24    2    3    3    0    0 -0.32992395834E+01  0.57529827743E+02  0.66828996006E+01  0.98108417087E+02  0.79120378502E+02 0.  0.
          6    2    1    2  501    0  0.10283202115E+02  0.12245146902E+02  0.46023094391E+03  0.49184712820E+03  0.17275817757E+03 0.  0.
         24    2    5    5    0    0 -0.32420152224E+02 -0.74479074965E+01  0.42250397830E+03  0.43137559111E+03  0.80428547986E+02 0.  0.
          5    1    5    5  501    0  0.42703354340E+02  0.19693054398E+02  0.37726965606E+02  0.60471537084E+02  0.47000000000E+01 0. -1.
        -11    1    6    6    0    0 -0.24328509616E+02 -0.40969958516E+02  0.31194920125E+03  0.31556729559E+03  0.00000000000E+00 0.  1.
         12    1    6    6    0    0 -0.80916426087E+01  0.33522051020E+02  0.11055477705E+03  0.11580829553E+03  0.00000000000E+00 0. -1.
         -5    1    3    3    0  503 -0.69839625321E+01 -0.69774974645E+02 -0.33983528347E+02  0.78065953003E+02  0.47000000000E+01 0.  1.
         13    1    4    4    0    0 -0.25644549179E+02  0.62748494797E+01  0.27800778574E+02  0.38339273961E+02  0.00000000000E+00 0. -1.
        -14    1    4    4    0    0  0.22345309595E+02  0.51254978263E+02 -0.21117878973E+02  0.59769143126E+02  0.00000000000E+00 0.  1.
</event>
<event>
12    1  0.8196217E-002  0.2433377E+03  0.7818608E-02  0.1118220E+00
         21   -1    0    0  503  502  0.00000000000E+00  0.00000000000E+00  0.20183209339E+04  0.20183209339E+04  0.00000000000E+00 0.  1.
         21   -1    0    0  501  503 -0.00000000000E+00 -0.00000000000E+00 -0.50426733303E+02  0.50426733303E+02  0.00000000000E+00 0. -1.
          6    2    1    2  501    0 -0.16623318009E+03 -0.39566546429E+02  0.30333216324E+03  0.38649322208E+03  0.16783214144E+03 0.  0.
         24    2    3    3    0    0 -0.31731291993E+02 -0.81110684724E+01  0.18769152736E+03  0.20628486583E+03  0.79073839585E+02 0.  0.
         -6    2    1    2    0  502  0.16623318009E+03  0.39566546429E+02  0.16645620374E+04  0.16822544451E+04  0.17324624143E+03 0.  0.
        -24    2    5    5    0    0  0.78396978034E+02  0.83989201012E+02  0.11141530472E+04  0.11230937195E+04  0.82475560921E+02 0.  0.
          5    1    3    3  501    0 -0.13450188809E+03 -0.31455477957E+02  0.11564063588E+03  0.18020835625E+03  0.47000000000E+01 0. -1.
        -11    1    4    4    0    0 -0.23003803743E+01 -0.12993251245E+02 -0.27851646262E+01  0.13486047226E+02  0.00000000000E+00 0.  1.
         12    1    4    4    0    0 -0.29430911619E+02  0.48821827725E+01  0.19047669198E+03  0.19279881861E+03  0.00000000000E+00 0. -1.
         -5    1    5    5    0  502  0.87836202052E+02 -0.44422654583E+02  0.55040899016E+03  0.55916072562E+03  0.47000000000E+01 0.  1.
         11    1    6    6    0    0 -0.14313015514E+02  0.26334502598E+02  0.16690129271E+03  0.16957125330E+03  0.00000000000E+00 0. -1.
        -12    1    6    6    0    0  0.92709993548E+02  0.57654698414E+02  0.94725175449E+03  0.95352246619E+03  0.00000000000E+00 0.  1.
</event>
<event>
12    1  0.8196217E-002  0.1855921E+03  0.7818608E-02  0.1162834E+00
         21   -1    0    0  501  502  0.00000000000E+00  0.00000000000E+00  0.14680361282E+03  0.14680361282E+03  0.00000000000E+00 0. -1.
         21   -1    0    0  502  503 -0.00000000000E+00 -0.00000000000E+00 -0.30040934349E+03  0.30040934349E+03  0.00000000000E+00 0. -1.
         -6    2    1    2    0  503 -0.51439893328E+02 -0.38948225995E+02 -0.18263894822E+03  0.25936366797E+03  0.17248043344E+03 0.  0.
        -24    2    3    3    0    0 -0.89599633557E+02 -0.25331910951E+02 -0.73845553239E+02  0.14317561952E+03  0.79851689056E+02 0.  0.
          6    2    1    2  501    0  0.51439893328E+02  0.38948225995E+02  0.29033217556E+02  0.18784928834E+03  0.17401551791E+03 0.  0.
         24    2    5    5    0    0 -0.69156154640E+01  0.72052220768E+02  0.47002535568E+02  0.11823444605E+03  0.80813350562E+02 0.  0.
          5    1    5    5  501    0  0.58355508792E+02 -0.33103994773E+02 -0.17969318012E+02  0.69614842283E+02  0.47000000000E+01 0. -1.
        -13    1    6    6    0    0 -0.15409995266E+02 -0.14709512373E+02  0.85866700262E+01  0.22968861759E+02  0.00000000000E+00 0.  1.
         14    1    6    6    0    0  0.84943798021E+01  0.86761733141E+02  0.38415865541E+02  0.95265584296E+02  0.00000000000E+00 0. -1.
         -5    1    3    3    0  503  0.38159740229E+02 -0.13616315045E+02 -0.10879339498E+03  0.11618804845E+03  0.47000000000E+01 0.  1.
         11    1    4    4    0    0 -0.56931033839E+02  0.11910105624E+01  0.14026925330E+01  0.56960764273E+02  0.00000000000E+00 0. -1.
        -12    1    4    4    0    0 -0.32668599717E+02 -0.26522921513E+02 -0.75248245772E+02  0.86214855245E+02  0.00000000000E+00 0.  1.
</event>
<event>
12    1  0.8196217E-002  0.1859023E+03  0.7818608E-02  0.1162297E+00
         21   -1    0    0  503  502  0.00000000000E+00  0.00000000000E+00  0.19419045289E+03  0.19419045289E+03  0.00000000000E+00 0.  1.
         21   -1    0    0  501  503 -0.00000000000E+00 -0.00000000000E+00 -0.23106862390E+03  0.23106862390E+03  0.00000000000E+00 0.  1.
          6    2    1    2  501    0  0.21111075588E+02 -0.67432702930E+02 -0.12072851783E+03  0.22166427474E+03  0.17195007631E+03 0.  0.
         24    2    3    3    0    0  0.43602736013E+02 -0.83380523493E+02 -0.14024150459E+03  0.18756069103E+03  0.81595483482E+02 0.  0.
         -6    2    1    2    0  502 -0.21111075588E+02  0.67432702930E+02  0.83850346822E+02  0.20359480205E+03  0.17154333511E+03 0.  0.
        -24    2    5    5    0    0  0.29503568581E+02  0.52071708895E+02  0.10737960224E+03  0.14551280654E+03  0.77856756060E+02 0.  0.
          5    1    3    3  501    0 -0.22491660425E+02  0.15947820563E+02  0.19512986763E+02  0.34103583709E+02  0.47000000000E+01 0. -1.
        -11    1    4    4    0    0 -0.15711414760E+02 -0.43387334182E+02 -0.26556562089E+02  0.53240588945E+02  0.00000000000E+00 0.  1.
         12    1    4    4    0    0  0.59314150773E+02 -0.39993189311E+02 -0.11368494250E+03  0.13432010209E+03  0.00000000000E+00 0. -1.
         -5    1    5    5    0  502 -0.50614644170E+02  0.15360994035E+02 -0.23529255414E+02  0.58081995511E+02  0.47000000000E+01 0.  1.
         13    1    6    6    0    0 -0.15503530534E+02  0.24481718044E+02  0.37601326490E+01  0.29220755893E+02  0.00000000000E+00 0. -1.
        -14    1    6    6    0    0  0.45007099116E+02  0.27589990851E+02  0.10361946959E+03  0.11629205065E+03  0.00000000000E+00 0.  1.
</event>
<event>
12    1  0.8196217E-002  0.1791585E+03  0.7818608E-02  0.1169031E+00
         21   -1    0    0  503  502  0.00000000000E+00  0.00000000000E+00  0.14459683340E+03  0.14459683340E+03  0.00000000000E+00 0.  1.
         21   -1    0    0  501  503 -0.00000000000E+00 -0.00000000000E+00 -0.22853995813E+03  0.22853995813E+03  0.00000000000E+00 0.  1.
          6    2    1    2  501    0 -0.45449709915E+02 -0.23624741290E+02 -0.55129185211E+01  0.17756312537E+03  0.16992488543E+03 0.  0.
         24    2    3    3    0    0 -0.94904815246E+02 -0.22720944644E+02 -0.13614341024E+02  0.12722082369E+03  0.80477465271E+02 0.  0.
         -6    2    1    2    0  502  0.45449709915E+02  0.23624741290E+02 -0.78430206204E+02  0.19557366616E+03  0.17167980987E+03 0.  0.
        -24    2    5    5    0    0  0.80596191924E+02  0.24646507715E+02 -0.10120123059E+03  0.15342003339E+03  0.78694479333E+02 0.  0.
          5    1    3    3  501    0  0.49455105331E+02 -0.90379664558E+00  0.81014225027E+01  0.50342301678E+02  0.47000000000E+01 0. -1.
        -11    1    4    4    0    0 -0.63644964831E+02  0.23641686241E+02 -0.20403125764E+02  0.70893571060E+02  0.00000000000E+00 0.  1.
         12    1    4    4    0    0 -0.31259850415E+02 -0.46362630885E+02  0.67887847407E+01  0.56327252630E+02  0.00000000000E+00 0. -1.
         -5    1    5    5    0  502 -0.35146482009E+02 -0.10217664250E+01  0.22771024383E+02  0.42153632770E+02  0.47000000000E+01 0.  1.
         13    1    6    6    0    0  0.99379718469E+01 -0.24342253930E+02 -0.40059920685E+02  0.47917698778E+02  0.00000000000E+00 0. -1.
        -14    1    6    6    0    0  0.70658220077E+02  0.48988761645E+02 -0.61141309901E+02  0.10550233461E+03  0.00000000000E+00 0.  1.
</event>
<event>
12    1  0.8196217E-002  0.2654908E+03  0.7818608E-02  0.1103923E+00
         21   -1    0    0  503  502  0.00000000000E+00  0.00000000000E+00  0.63666192897E+02  0.63666192897E+02  0.00000000000E+00 0.  1.
         21   -1    0    0  501  503 -0.00000000000E+00 -0.00000000000E+00 -0.14566899704E+04  0.14566899704E+04  0.00000000000E+00 0.  1.
          6    2    1    2  501    0  0.92079846969E+02  0.18011183401E+03 -0.10692018334E+04  0.11016128071E+04  0.17157868485E+03 0.  0.
         24    2    3    3    0    0  0.83314569336E+02  0.17953641866E+03 -0.69259579383E+03  0.72487501992E+03  0.81118541554E+02 0.  0.
         -6    2    1    2    0  502 -0.92079846969E+02 -0.18011183401E+03 -0.32382194412E+03  0.41874335629E+03  0.17194875972E+03 0.  0.
        -24    2    5    5    0    0 -0.38524396266E+02 -0.16978726307E+03 -0.30662315335E+03  0.36136155195E+03  0.79073189199E+02 0.  0.
          5    1    3    3  501    0  0.87652776321E+01  0.57541535338E+00 -0.37660603959E+03  0.37673778713E+03  0.47000000000E+01 0. -1.
        -13    1    4    4    0    0  0.79068321377E+02  0.14626960029E+03 -0.64849164133E+03  0.66946844907E+03  0.00000000000E+00 0.  1.
         14    1    4    4    0    0  0.42462479593E+01  0.33266818376E+02 -0.44104152496E+02  0.55406570855E+02  0.00000000000E+00 0. -1.
         -5    1    5    5    0  502 -0.53555450702E+02 -0.10324570948E+02 -0.17198790775E+02  0.57381804340E+02  0.47000000000E+01 0.  1.
         13    1    6    6    0    0  0.21172932172E+02 -0.41020769627E+02 -0.49629478412E+02  0.67779655686E+02  0.00000000000E+00 0. -1.
        -14    1    6    6    0    0 -0.59697328439E+02 -0.12876649344E+03 -0.25699367493E+03  0.29358189626E+03  0.00000000000E+00 0.  1.
</event>
<event>
12    1  0.8196217E-002  0.1733580E+03  0.7818608E-02  0.1175159E+00
         21   -1    0    0  503  502  0.00000000000E+00  0.00000000000E+00  0.11823849707E+03  0.11823849707E+03  0.00000000000E+00 0.  1.
         21   -1    0    0  501  503 -0.00000000000E+00 -0.00000000000E+00 -0.54301780567E+03  0.54301780567E+03  0.00000000000E+00 0.  1.
          6    2    1    2  501    0  0.94353347054E+01 -0.79415626592E+01 -0.45619456353E+03  0.48802304344E+03  0.17291881671E+03 0.  0.
         24    2    3    3    0    0 -0.63909215482E+02  0.32205702759E+01 -0.22723823532E+03  0.24730099110E+03  0.73660061846E+02 0.  0.
         -6    2    1    2    0  502 -0.94353347054E+01  0.79415626592E+01  0.31415254934E+02  0.17323325930E+03  0.16991394859E+03 0.  0.
        -24    2    5    5    0    0  0.43216765749E+02  0.23078949140E+02  0.60815494093E+02  0.11088064737E+03  0.78712558742E+02 0.  0.
          5    1    3    3  501    0  0.73344550187E+02 -0.11162132935E+02 -0.22895632821E+03  0.24072205234E+03  0.47000000000E+01 0. -1.
        -11    1    4    4    0    0 -0.62246539782E+02  0.17864422898E+02 -0.22263291625E+03  0.23186026982E+03  0.00000000000E+00 0.  1.
         12    1    4    4    0    0 -0.16626757004E+01 -0.14643852622E+02 -0.46053190712E+01  0.15440721287E+02  0.00000000000E+00 0. -1.
         -5    1    5    5    0  502 -0.52652100454E+02 -0.15137386481E+02 -0.29400239159E+02  0.62352611929E+02  0.47000000000E+01 0.  1.
         13    1    6    6    0    0 -0.16836048827E+02  0.27662362576E+02  0.18780493050E+02  0.37434820189E+02  0.00000000000E+00 0. -1.
        -14    1    6    6    0    0  0.60052814576E+02 -0.45834134358E+01  0.42035001043E+02  0.73445827179E+02  0.00000000000E+00 0.  1.
</event>
<event>
12    1  0.8196217E-002  0.1952690E+03  0.7818608E-02  0.1154069E+00
         21   -1    0    0  501  502  0.00000000000E+00  0.00000000000E+00  0.47609713191E+03  0.47609713191E+03  0.00000000000E+00 0.  1.
         21   -1    0    0  502  503 -0.00000000000E+00 -0.00000000000E+00 -0.11072488915E+03  0.11072488915E+03  0.00000000000E+00 0. -1.
         -6    2    1    2    0  503 -0.53366383573E+02  0.73412069159E+02  0.27476212203E+02  0.19719262960E+03  0.17289502057E+03 0.  0.
        -24    2    3    3    0    0 -0.83818101677E+02  0.58154922380E+02  0.65483145558E+02  0.14594124283E+03  0.81260905981E+02 0.  0.
          6    2    1    2  501    0  0.53366383573E+02 -0.73412069159E+02  0.33789603055E+03  0.38962939146E+03  0.17146437657E+03 0.  0.
         24    2    5    5    0    0  0.87386577657E+01  0.24368127419E+02  0.12330737509E+03  0.14958151747E+03  0.80621038468E+02 0.  0.
          5    1    5    5  501    0  0.44627725808E+02 -0.97780196578E+02  0.21458865546E+03  0.24004787398E+03  0.47000000000E+01 0. -1.
        -13    1    6    6    0    0 -0.35227819588E+02  0.36548429011E+01  0.42942116572E+02  0.55663116381E+02  0.00000000000E+00 0.  1.
         14    1    6    6    0    0  0.43966477354E+02  0.20713284518E+02  0.80365258522E+02  0.93918401092E+02  0.00000000000E+00 0. -1.
         -5    1    3    3    0  503  0.30451718104E+02  0.15257146779E+02 -0.38006933355E+02  0.51251386775E+02  0.47000000000E+01 0.  1.
         11    1    4    4    0    0 -0.22190977544E+02  0.63323352188E+02  0.23082401578E+02  0.70958323538E+02  0.00000000000E+00 0. -1.
        -12    1    4    4    0    0 -0.61627124133E+02 -0.51684298081E+01  0.42400743979E+02  0.74982919292E+02  0.00000000000E+00 0.  1.
</event>
<event>
12    1  0.8196217E-002  0.2208507E+03  0.7818608E-02  0.1133479E+00
         21   -1    0    0  501  502  0.00000000000E+00  0.00000000000E+00  0.76601912409E+03  0.76601912409E+03  0.00000000000E+00 0.  1.
         21   -1    0    0  502  503 -0.00000000000E+00 -0.00000000000E+00 -0.63466265833E+02  0.63466265833E+02  0.00000000000E+00 0.  1.
         -6    2    1    2    0  503 -0.10453168885E+03 -0.87732867606E+02  0.33234218942E+03  0.39903177996E+03  0.17364072253E+03 0.  0.
        -24    2    3    3    0    0 -0.65219736386E+02 -0.12473442347E+03  0.28135846062E+03  0.32462764469E+03  0.80051445480E+02 0.  0.
          6    2    1    2  501    0  0.10453168885E+03  0.87732867606E+02  0.37021066884E+03  0.43045360997E+03  0.17207684613E+03 0.  0.
         24    2    5    5    0    0  0.92343884915E+02  0.11714795922E+03  0.22275695333E+03  0.27952820323E+03  0.79147449196E+02 0.  0.
          5    1    5    5  501    0  0.12187803933E+02 -0.29415091611E+02  0.14745371552E+03  0.15092540674E+03  0.47000000000E+01 0. -1.
        -11    1    6    6    0    0  0.63670801471E+02  0.71310028605E+02  0.19839392509E+03  0.22022543144E+03  0.00000000000E+00 0.  1.
         12    1    6    6    0    0  0.28673083445E+02  0.45837930612E+02  0.24363028237E+02  0.59302771790E+02  0.00000000000E+00 0. -1.
         -5    1    3    3    0  503 -0.39311952463E+02  0.37001555865E+02  0.50983728798E+02  0.74404135269E+02  0.47000000000E+01 0.  1.
         11    1    4    4    0    0  0.39096768011E+01 -0.66177062221E+01 -0.36152156394E+01  0.84940798472E+01  0.00000000000E+00 0. -1.
        -12    1    4    4    0    0 -0.69129413187E+02 -0.11811671725E+03  0.28497367626E+03  0.31613356484E+03  0.00000000000E+00 0.  1.
</event>
<event>
12    1  0.8196217E-002  0.1856457E+03  0.7818608E-02  0.1163088E+00
         21   -1    0    0  501  502  0.00000000000E+00  0.00000000000E+00  0.23930284486E+03  0.23930284486E+03  0.00000000000E+00 0.  1.
         21   -1    0    0  502  503 -0.00000000000E+00 -0.00000000000E+00 -0.21096122019E+03  0.21096122019E+03  0.00000000000E+00 0.  1.
         -6    2    1    2    0  503 -0.61713853374E+02  0.25575698254E+02 -0.11470006171E+03  0.21590271058E+03  0.17027965304E+03 0.  0.
        -24    2    3    3    0    0 -0.88028377016E+02  0.17610345138E+00 -0.19516939408E+02  0.11382670781E+03  0.69473608762E+02 0.  0.
          6    2    1    2  501    0  0.61713853374E+02 -0.25575698254E+02  0.14304168639E+03  0.23436135447E+03  0.17320971216E+03 0.  0.
         24    2    5    5    0    0  0.20290733683E+02 -0.72357759461E+02  0.11973223873E+03  0.16750436945E+03  0.89858475207E+02 0.  0.
          5    1    5    5  501    0  0.41423119691E+02  0.46782061207E+02  0.23309447660E+02  0.66856985020E+02  0.47000000000E+01 0. -1.
        -11    1    6    6    0    0  0.36147146463E+02 -0.16436678248E+02  0.65172462260E+01  0.40239968782E+02  0.00000000000E+00 0.  1.
         12    1    6    6    0    0 -0.15856412779E+02 -0.55921081213E+02  0.11321499250E+03  0.12726440067E+03  0.00000000000E+00 0. -1.
         -5    1    3    3    0  503  0.26314523642E+02  0.25399594803E+02 -0.95183122302E+02  0.10207600277E+03  0.47000000000E+01 0.  1.
         11    1    4    4    0    0 -0.17540052094E+02  0.34504740296E+01  0.24747060750E+02  0.30528285478E+02  0.00000000000E+00 0. -1.
        -12    1    4    4    0    0 -0.70488324922E+02 -0.32743705782E+01 -0.44264000158E+02  0.83298422332E+02  0.00000000000E+00 0.  1.
</event>
<event>
12    1  0.8196217E-002  0.2257457E+03  0.7818608E-02  0.1129876E+00
         21   -1    0    0  503  502  0.00000000000E+00  0.00000000000E+00  0.34988539473E+03  0.34988539473E+03  0.00000000000E+00 0.  1.
         21   -1    0    0  501  503 -0.00000000000E+00 -0.00000000000E+00 -0.19979735229E+03  0.19979735229E+03  0.00000000000E+00 0. -1.
          6    2    1    2  501    0  0.43633197772E+02 -0.13751649219E+03 -0.68861732002E+02  0.23601498013E+03  0.17362744926E+03 0.  0.
         24    2    3    3    0    0  0.19107171275E+02 -0.16727705406E+03 -0.51983104718E+02  0.19365704017E+03  0.80337470866E+02 0.  0.
         -6    2    1    2    0  502 -0.43633197772E+02  0.13751649219E+03  0.21894977444E+03  0.31366776689E+03  0.17214477245E+03 0.  0.
        -24    2    5    5    0    0 -0.40466074720E+02  0.15784239101E+03  0.13270469558E+03  0.22487882355E+03  0.80051392551E+02 0.  0.
          5    1    3    3  501    0  0.24526026497E+02  0.29760561862E+02 -0.16878627284E+02  0.42357939953E+02  0.47000000000E+01 0. -1.
        -11    1    4    4    0    0  0.14400925939E+01 -0.30554953526E+02  0.21545617512E+02  0.37415139792E+02  0.00000000000E+00 0.  1.
         12    1    4    4    0    0  0.17667078681E+02 -0.13672210053E+03 -0.73528722230E+02  0.15624190038E+03  0.00000000000E+00 0. -1.
         -5    1    5    5    0  502 -0.31671230521E+01 -0.20325898813E+02  0.86245078866E+02  0.88788943341E+02  0.47000000000E+01 0.  1.
         13    1    6    6    0    0  0.20423424395E+02  0.80826637630E+02  0.61638077730E+02  0.10367889969E+03  0.00000000000E+00 0. -1.
        -14    1    6    6    0    0 -0.60889499115E+02  0.77015753378E+02  0.71066617848E+02  0.12119992386E+03  0.00000000000E+00 0.  1.
</event>
<event>
12    1  0.8196217E-002  0.2104759E+03  0.7818608E-02  0.1141452E+00
         21   -1    0    0  501  502  0.00000000000E+00  0.00000000000E+00  0.13665621749E+03  0.13665621749E+03  0.00000000000E+00 0. -1.
         21   -1    0    0  502  503 -0.00000000000E+00 -0.00000000000E+00 -0.35419607683E+03  0.35419607683E+03  0.00000000000E+00 0. -1.
         -6    2    1    2    0  503 -0.93412951482E+02  0.73886254437E+02 -0.18292431690E+03  0.27885732135E+03  0.17353657211E+03 0.  0.
        -24    2    3    3    0    0  0.11474853300E+02  0.59265338567E+01 -0.46318507270E+02  0.93646057012E+02  0.80357848505E+02 0.  0.
          6    2    1    2  501    0  0.93412951482E+02 -0.73886254437E+02 -0.34615542434E+02  0.21199497297E+03  0.17192578249E+03 0.  0.
         24    2    5    5    0    0  0.10851865867E+02 -0.68390365505E+02 -0.50277631952E+02  0.12765086410E+03  0.94720102109E+02 0.  0.
          5    1    5    5  501    0  0.82561085615E+02 -0.54958889319E+01  0.15662089518E+02  0.84344108870E+02  0.47000000000E+01 0. -1.
        -13    1    6    6    0    0  0.15206453697E+02 -0.45737038115E+02  0.21117247342E+02  0.52621773297E+02  0.00000000000E+00 0.  1.
         14    1    6    6    0    0 -0.43545878300E+01 -0.22653327390E+02 -0.71394879294E+02  0.75029090801E+02  0.00000000000E+00 0. -1.
         -5    1    3    3    0  503 -0.10488780478E+03  0.67959720580E+02 -0.13660580963E+03  0.18521126434E+03  0.47000000000E+01 0.  1.
         13    1    4    4    0    0 -0.22887065669E+02  0.14174393558E+02 -0.51323522228E+02  0.57955458255E+02  0.00000000000E+00 0. -1.
        -14    1    4    4    0    0  0.34361918969E+02 -0.82478597008E+01  0.50050149580E+01  0.35690598757E+02  0.00000000000E+00 0.  1.
</event>
<event>
12    1  0.8196217E-002  0.1785889E+03  0.7818608E-02  0.1169352E+00
         21   -1    0    0  503  502  0.00000000000E+00  0.00000000000E+00  0.19888103566E+03  0.19888103566E+03  0.00000000000E+00 0. -1.
         21   -1    0    0  501  503 -0.00000000000E+00 -0.00000000000E+00 -0.16896776140E+03  0.16896776140E+03  0.00000000000E+00 0. -1.
          6    2    1    2  501    0 -0.31179452937E+02  0.27487777568E+02  0.58012720759E+02  0.18777504917E+03  0.17368436060E+03 0.  0.
         24    2    3    3    0    0  0.28645885032E+02 -0.24852398182E+02 -0.24751297342E+01  0.87777873617E+02  0.79123955949E+02 0.  0.
         -6    2    1    2    0  502  0.31179452937E+02 -0.27487777568E+02 -0.28099446497E+02  0.18007374789E+03  0.17294287954E+03 0.  0.
        -24    2    5    5    0    0 -0.35776539461E+01  0.44007693832E+02 -0.34436023646E+02  0.10018694598E+03  0.83078924496E+02 0.  0.
          5    1    3    3  501    0 -0.59825337969E+02  0.52340175749E+02  0.60487850493E+02  0.99997175549E+02  0.47000000000E+01 0. -1.
        -11    1    4    4    0    0 -0.24370898564E+02 -0.10949241208E+02  0.14501642627E+02  0.30399411487E+02  0.00000000000E+00 0.  1.
         12    1    4    4    0    0  0.53016783596E+02 -0.13903156974E+02 -0.16976772361E+02  0.57378462131E+02  0.00000000000E+00 0. -1.
         -5    1    5    5    0  502  0.34757106883E+02 -0.71495471400E+02  0.63365771484E+01  0.79886801911E+02  0.47000000000E+01 0.  1.
         13    1    6    6    0    0  0.17254469140E+02 -0.15114461411E+01  0.19849045938E+02  0.26343610219E+02  0.00000000000E+00 0. -1.
        -14    1    6    6    0    0 -0.20832123086E+02  0.45519139973E+02 -0.54285069583E+02  0.73843335758E+02  0.00000000000E+00 0.  1.
</event>
<event>
12    1  0.8196217E-002  0.2022432E+03  0.7818608E-02  0.1147953E+00
         21   -1    0    0  503  502  0.00000000000E+00  0.00000000000E+00  0.58695750451E+02  0.58695750451E+02  0.00000000000E+00 0. -1.
         21   -1    0    0  501  503 -0.00000000000E+00 -0.00000000000E+00 -0.75530956387E+03  0.75530956387E+03  0.00000000000E+00 0.  1.
          6    2    1    2  501    0  0.10169950005E+03  0.36615566727E+02 -0.46335991831E+03  0.50557367818E+03  0.17093519865E+03 0.  0.
         24    2    3    3    0    0  0.24108004223E+02  0.76444718865E+02 -0.30776848247E+03  0.32714277701E+03  0.76654855307E+02 0.  0.
         -6    2    1    2    0  502 -0.10169950005E+03 -0.36615566727E+02 -0.23325389510E+03  0.30843163614E+03  0.17040893918E+03 0.  0.
        -24    2    5    5    0    0 -0.55509264730E+02  0.43236137749E+02 -0.13587436913E+03  0.17421280502E+03  0.83292347600E+02 0.  0.
          5    1    3    3  501    0  0.77591495823E+02 -0.39829152138E+02 -0.15559143584E+03  0.17843090117E+03  0.47000000000E+01 0. -1.
        -13    1    4    4    0    0 -0.38504183333E+01  0.76123263750E+02 -0.16626468682E+03  0.18290304286E+03  0.00000000000E+00 0.  1.
         14    1    4    4    0    0  0.27958422557E+02  0.32145511478E+00 -0.14150379565E+03  0.14423973415E+03  0.00000000000E+00 0. -1.
         -5    1    5    5    0  502 -0.46190235316E+02 -0.79851704476E+02 -0.97379525977E+02  0.13421883111E+03  0.47000000000E+01 0.  1.
         11    1    6    6    0    0 -0.24607918402E+02  0.21828504640E+02  0.35051638231E+00  0.32896141486E+02  0.00000000000E+00 0. -1.
        -12    1    6    6    0    0 -0.30901346328E+02  0.21407633109E+02 -0.13622488551E+03  0.14131666353E+03  0.00000000000E+00 0.  1.
</event>
<event>
12    1  0.8196217E-002  0.1825853E+03  0.7818608E-02  0.1165564E+00
         21   -1    0    0  503  502  0.00000000000E+00  0.00000000000E+00  0.18667314795E+03  0.18667314795E+03  0.00000000000E+00 0.  1.
         21   -1    0    0  501  503 -0.00000000000E+00 -0.00000000000E+00 -0.24951711372E+03  0.24951711372E+03  0.00000000000E+00 0.  1.
          6    2    1    2  501    0 -0.14781571521E+02 -0.57392113818E+02 -0.14844425524E+03  0.23453511972E+03  0.17163529906E+03 0.  0.
         24    2    3    3    0    0 -0.70410590735E+02 -0.11006032083E+02 -0.10005687965E+03  0.14730161426E+03  0.81287159930E+02 0.  0.
         -6    2    1    2    0  502  0.14781571521E+02  0.57392113818E+02  0.85600289478E+02  0.20165514195E+03  0.17269926790E+03 0.  0.
        -24    2    5    5    0    0 -0.39814409804E+02  0.32444884045E+02  0.24897379848E+01  0.99026981977E+02  0.84630293841E+02 0.  0.
          5    1    3    3  501    0  0.55629019213E+02 -0.46386081735E+02 -0.48387375594E+02  0.87233505456E+02  0.47000000000E+01 0. -1.
        -11    1    4    4    0    0 -0.73505622000E+02 -0.28939013415E+02 -0.48667179124E+02  0.92784897946E+02  0.00000000000E+00 0.  1.
         12    1    4    4    0    0  0.30950312646E+01  0.17932981331E+02 -0.51389700523E+02  0.54516716315E+02  0.00000000000E+00 0. -1.
         -5    1    5    5    0  502  0.54595981325E+02  0.24947229773E+02  0.83110551493E+02  0.10262815997E+03  0.47000000000E+01 0.  1.
         13    1    6    6    0    0 -0.54632502314E+02  0.44436467418E+02  0.19932148711E+02  0.73188800358E+02  0.00000000000E+00 0. -1.
        -14    1    6    6    0    0  0.14818092510E+02 -0.11991583373E+02 -0.17442410726E+02  0.25838181619E+02  0.00000000000E+00 0.  1.
</event>
<event>
12    1  0.8196217E-002  0.2756114E+03  0.7818608E-02  0.1098202E+00
         21   -1    0    0  503  502  0.00000000000E+00  0.00000000000E+00  0.15739864111E+04  0.15739864111E+04  0.00000000000E+00 0.  1.
         21   -1    0    0  501  503 -0.00000000000E+00 -0.00000000000E+00 -0.53071271772E+02  0.53071271772E+02  0.00000000000E+00 0. -1.
          6    2    1    2  501    0 -0.14033420419E+03 -0.16260772109E+03  0.10074671036E+04  0.10443137334E+04  0.17165735936E+03 0.  0.
         24    2    3    3    0    0 -0.13895431235E+03 -0.17554264736E+03  0.75900645016E+03  0.79546839439E+03  0.80966987849E+02 0.  0.
         -6    2    1    2    0  502  0.14033420419E+03  0.16260772109E+03  0.51344803573E+03  0.58274394951E+03  0.17270398224E+03 0.  0.
        -24    2    5    5    0    0  0.14211632300E+03  0.95643328933E+02  0.45793375893E+03  0.49561570672E+03  0.81159753261E+02 0.  0.
          5    1    3    3  501    0 -0.13798918389E+01  0.12934926272E+02  0.24846065349E+03  0.24884533902E+03  0.47000000000E+01 0. -1.
        -13    1    4    4    0    0 -0.10107520505E+03 -0.12030810598E+03  0.63901720417E+03  0.65805260022E+03  0.00000000000E+00 0.  1.
         14    1    4    4    0    0 -0.37879107299E+02 -0.55234541384E+02  0.11998924600E+03  0.13741579417E+03  0.00000000000E+00 0. -1.
         -5    1    5    5    0  502 -0.17821188115E+01  0.66964392156E+02  0.55514276799E+02  0.87128242796E+02  0.47000000000E+01 0.  1.
         13    1    6    6    0    0  0.10107202460E+03  0.76166475524E+02  0.22371639544E+03  0.25703290011E+03  0.00000000000E+00 0. -1.
        -14    1    6    6    0    0  0.41044298393E+02  0.19476853409E+02  0.23421736349E+03  0.23858280661E+03  0.00000000000E+00 0.  1.
</event>
<event>
12    1  0.8196217E-002  0.1812358E+03  0.7818608E-02  0.1167056E+00
         21   -1    0    0  503  502  0.00000000000E+00  0.00000000000E+00  0.32931006342E+03  0.32931006342E+03  0.00000000000E+00 0. -1.
         21   -1    0    0  501  503 -0.00000000000E+00 -0.00000000000E+00 -0.21157915908E+03  0.21157915908E+03  0.00000000000E+00 0. -1.
          6    2    1    2  501    0  0.46274217207E+02  0.15897282967E+02 -0.13850158121E+03  0.22809892691E+03  0.17450617661E+03 0.  0.
         24    2    3    3    0    0  0.24150977833E+02 -0.31944609450E+02 -0.24196463948E+02  0.10213847985E+03  0.90791367406E+02 0.  0.
         -6    2    1    2    0  502 -0.46274217207E+02 -0.15897282967E+02  0.25623248555E+03  0.31279029560E+03  0.17259390367E+03 0.  0.
        -24    2    5    5    0    0 -0.72461683615E+02  0.37685274763E+02  0.20859854367E+03  0.23631836409E+03  0.75247200999E+02 0.  0.
          5    1    3    3  501    0  0.22123239374E+02  0.47841892417E+02 -0.11430511726E+03  0.12596044706E+03  0.47000000000E+01 0. -1.
        -13    1    4    4    0    0  0.18927336741E+02 -0.48793448413E+02 -0.49005204239E+02  0.71697661933E+02  0.00000000000E+00 0.  1.
         14    1    4    4    0    0  0.52236410923E+01  0.16848838962E+02  0.24808740292E+02  0.30440817918E+02  0.00000000000E+00 0. -1.
         -5    1    5    5    0  502  0.26187466408E+02 -0.53582557729E+02  0.47633941882E+02  0.76471931510E+02  0.47000000000E+01 0.  1.
         13    1    6    6    0    0 -0.29353394243E+02 -0.68304027665E+00  0.12512455676E+02  0.31916294344E+02  0.00000000000E+00 0. -1.
        -14    1    6    6    0    0 -0.43108289373E+02  0.38368315039E+02  0.19608608799E+03  0.20440206974E+03  0.00000000000E+00 0.  1.
</event>
<event>
12    1  0.8196217E-002  0.1960954E+03  0.7818608E-02  0.1157303E+00
         21   -1    0    0  501  502  0.00000000000E+00  0.00000000000E+00  0.46616112487E+03  0.46616112487E+03  0.00000000000E+00 0. -1.
         21   -1    0    0  502  503 -0.00000000000E+00 -0.00000000000E+00 -0.78952800560E+02  0.78952800560E+02  0.00000000000E+00 0. -1.
         -6    2    1    2    0  503 -0.20253883467E+02  0.39056010124E+02  0.14087785434E+03  0.24145390072E+03  0.19109637518E+03 0.  0.
        -24    2    3    3    0    0  0.42484274410E+02  0.69700948282E+02  0.12669417355E+03  0.17005043100E+03  0.78756585165E+02 0.  0.
          6    2    1    2  501    0  0.20253883467E+02 -0.39056010124E+02  0.24633046997E+03  0.30366002470E+03  0.17203231803E+03 0.  0.
         24    2    5    5    0    0  0.13721877722E+02 -0.65681384393E+02  0.76003307896E+02  0.13107668312E+03  0.83079840287E+02 0.  0.
          5    1    5    5  501    0  0.65320057442E+01  0.26625374269E+02  0.17032716207E+03  0.17258334159E+03  0.47000000000E+01 0. -1.
        -11    1    6    6    0    0 -0.55681802900E+01 -0.15612277277E+02  0.75623582487E+02  0.77418822399E+02  0.00000000000E+00 0.  1.
         12    1    6    6    0    0  0.19290058012E+02 -0.50069107116E+02  0.37972540862E+00  0.53657860718E+02  0.00000000000E+00 0. -1.
         -5    1    3    3    0  503 -0.62738157876E+02 -0.30644938158E+02  0.14183680793E+02  0.71403469729E+02  0.47000000000E+01 0.  1.
         11    1    4    4    0    0  0.57017095738E+02  0.33151876608E+02  0.10789381808E+03  0.12645581089E+03  0.00000000000E+00 0. -1.
        -12    1    4    4    0    0 -0.14532821328E+02  0.36549071674E+02  0.18800355470E+02  0.43594620101E+02  0.00000000000E+00 0.  1.
</event>
<event>
12    1  0.8196217E-002  0.5258543E+03  0.7818608E-02  0.1007269E+00
         21   -1    0    0  503  502  0.00000000000E+00  0.00000000000E+00  0.23297586809E+04  0.23297586809E+04  0.00000000000E+00 0. -1.
         21   -1    0    0  501  503 -0.00000000000E+00 -0.00000000000E+00 -0.11963844288E+03  0.11963844288E+03  0.00000000000E+00 0.  1.
          6    2    1    2  501    0 -0.27594134426E+03 -0.41318020507E+03  0.12198740615E+04  0.13283883095E+04  0.17222446819E+03 0.  0.
         24    2    3    3    0    0 -0.27412286208E+03 -0.30666709311E+03  0.95073679086E+03  0.10388968409E+04  0.78855254116E+02 0.  0.
         -6    2    1    2    0  502  0.27594134426E+03  0.41318020507E+03  0.99024617647E+03  0.11210088143E+04  0.17091449424E+03 0.  0.
        -24    2    5    5    0    0  0.27025250022E+03  0.42599872927E+03  0.96451710366E+03  0.10913313363E+04  0.78736974862E+02 0.  0.
          5    1    3    3  501    0 -0.18184821815E+01 -0.10651311197E+03  0.26913727069E+03  0.28949146857E+03  0.47000000000E+01 0. -1.
        -13    1    4    4    0    0 -0.23885680799E+02 -0.71617580253E+02  0.17015123673E+03  0.18614791675E+03  0.00000000000E+00 0.  1.
         14    1    4    4    0    0 -0.25023718128E+03 -0.23504951285E+03  0.78058555412E+03  0.85274892418E+03  0.00000000000E+00 0. -1.
         -5    1    5    5    0  502  0.56888440410E+01 -0.12818524197E+02  0.25729072811E+02  0.29677477939E+02  0.47000000000E+01 0.  1.
         11    1    6    6    0    0  0.24683762438E+02  0.11161716413E+02  0.72299035567E+02  0.77207658851E+02  0.00000000000E+00 0. -1.
        -12    1    6    6    0    0  0.24556873779E+03  0.41483701286E+03  0.89221806809E+03  0.10141236775E+04  0.00000000000E+00 0.  1.
</event>
<event>
12    1  0.8196217E-002  0.1811789E+03  0.7818608E-02  0.1167960E+00
         21   -1    0    0  503  502  0.00000000000E+00  0.00000000000E+00  0.33874400470E+03  0.33874400470E+03  0.00000000000E+00 0. -1.
         21   -1    0    0  501  503 -0.00000000000E+00 -0.00000000000E+00 -0.18022082085E+03  0.18022082085E+03  0.00000000000E+00 0. -1.
          6    2    1    2  501    0 -0.34189732219E+02  0.14899638108E+02 -0.99500084977E+02  0.20670285342E+03  0.17729880343E+03 0.  0.
         24    2    3    3    0    0 -0.63845750076E+02  0.48674038580E+02 -0.74223440075E+02  0.15492266127E+03  0.10975641249E+03 0.  0.
         -6    2    1    2    0  502  0.34189732219E+02 -0.14899638108E+02  0.25802326882E+03  0.31226197212E+03  0.17187377629E+03 0.  0.
        -24    2    5    5    0    0 -0.40551634496E+02 -0.22308984652E+02  0.95362946042E+02  0.13303685970E+03  0.80390227674E+02 0.  0.
          5    1    3    3  501    0  0.29656017857E+02 -0.33774400472E+02 -0.25276644902E+02  0.51780192158E+02  0.47000000000E+01 0. -1.
        -11    1    4    4    0    0 -0.64796010346E+02  0.50789171340E+00  0.19112751526E+01  0.64826182083E+02  0.00000000000E+00 0.  1.
         12    1    4    4    0    0  0.95026027066E+00  0.48166146867E+02 -0.76134715227E+02  0.90096479184E+02  0.00000000000E+00 0. -1.
         -5    1    5    5    0  502  0.74741366715E+02  0.74093465440E+01  0.16266032278E+03  0.17922511242E+03  0.47000000000E+01 0.  1.
         13    1    6    6    0    0 -0.40295296185E+02 -0.12521303901E+02  0.10863614895E+03  0.11654315426E+03  0.00000000000E+00 0. -1.
        -14    1    6    6    0    0 -0.25633831090E+00 -0.97876807502E+01 -0.13273202909E+02  0.16493705444E+02  0.00000000000E+00 0.  1.
</event>
<event>
12    1  0.8196217E-002  0.1765174E+03  0.7818608E-02  0.1171279E+00
         21   -1    0    0  501  502  0.00000000000E+00  0.00000000000E+00  0.19989200882E+03  0.19989200882E+03  0.00000000000E+00 0.  1.
         21   -1    0    0  502  503 -0.00000000000E+00 -0.00000000000E+00 -0.15651719714E+03  0.15651719714E+03  0.00000000000E+00 0.  1.
         -6    2    1    2    0  503 -0.26833525182E+02  0.27865012793E+02  0.84612819048E+01  0.17672006721E+03  0.17222628095E+03 0.  0.
        -24    2    3    3    0    0  0.96615792183E+01  0.19077342966E+02  0.69092538733E+02  0.10525430554E+03  0.76468286226E+02 0.  0.
          6    2    1    2  501    0  0.26833525182E+02 -0.27865012793E+02  0.34913529774E+02  0.17968913876E+03  0.17196724983E+03 0.  0.
         24    2    5    5    0    0  0.81047853720E+02 -0.31546933960E+02  0.77647263722E+01  0.11876379520E+03  0.80502077232E+02 0.  0.
          5    1    5    5  501    0 -0.54214328538E+02  0.36819211671E+01  0.27148803402E+02  0.60925343564E+02  0.47000000000E+01 0. -1.
        -11    1    6    6    0    0  0.71929111671E+02 -0.56791034832E+02  0.50262094202E+01  0.91783884883E+02  0.00000000000E+00 0.  1.
         12    1    6    6    0    0  0.91187420488E+01  0.25244100872E+02  0.27385169519E+01  0.26979910313E+02  0.00000000000E+00 0. -1.
         -5    1    3    3    0  503 -0.36495104401E+02  0.87876698271E+01 -0.60631256829E+02  0.71465761668E+02  0.47000000000E+01 0.  1.
         13    1    4    4    0    0  0.27761261288E+02  0.23167066735E+02  0.77012863474E+02  0.85078679761E+02  0.00000000000E+00 0. -1.
        -14    1    4    4    0    0 -0.18099682070E+02 -0.40897237693E+01 -0.79203247406E+01  0.20175625778E+02  0.00000000000E+00 0.  1.
</event>
<event>
12    1  0.8196217E-002  0.2097823E+03  0.7818608E-02  0.1143036E+00
         21   -1    0    0  503  502  0.00000000000E+00  0.00000000000E+00  0.48325042623E+02  0.48325042623E+02  0.00000000000E+00 0. -1.
         21   -1    0    0  501  503 -0.00000000000E+00 -0.00000000000E+00 -0.12383715535E+04  0.12383715535E+04  0.00000000000E+00 0. -1.
          6    2    1    2  501    0  0.90116625357E+02 -0.55785146441E+02 -0.94626314781E+03  0.96923813297E+03  0.18104039541E+03 0.  0.
         24    2    3    3    0    0  0.72845950390E+02  0.70452093042E+01 -0.28361892210E+03  0.30338124918E+03  0.79021022024E+02 0.  0.
         -6    2    1    2    0  502 -0.90116625357E+02  0.55785146441E+02 -0.24378336311E+03  0.31745846319E+03  0.17354123140E+03 0.  0.
        -24    2    5    5    0    0 -0.34519050959E+02 -0.21771364848E+02 -0.13738910746E+03  0.17446220325E+03  0.99477315547E+02 0.  0.
          5    1    3    3  501    0  0.17270674967E+02 -0.62830355746E+02 -0.66264422571E+03  0.66585688379E+03  0.47000000000E+01 0. -1.
        -13    1    4    4    0    0  0.47441347308E+02 -0.13980918584E+02 -0.61943174353E+02  0.79266035398E+02  0.00000000000E+00 0.  1.
         14    1    4    4    0    0  0.25404603082E+02  0.21026127889E+02 -0.22167574774E+03  0.22411521378E+03  0.00000000000E+00 0. -1.
         -5    1    5    5    0  502 -0.55597574398E+02  0.77556511290E+02 -0.10639425565E+03  0.14299625994E+03  0.47000000000E+01 0.  1.
         11    1    6    6    0    0 -0.14879127864E+02  0.12487438210E+02  0.10018931059E+02  0.21856430144E+02  0.00000000000E+00 0. -1.
        -12    1    6    6    0    0 -0.19639923095E+02 -0.34258803058E+02 -0.14740803852E+03  0.15260577311E+03  0.00000000000E+00 0.  1.
</event>
<event>
12    1  0.8196217E-002  0.2526253E+03  0.7818608E-02  0.1111700E+00
         21   -1    0    0  501  502  0.00000000000E+00  0.00000000000E+00  0.34546433355E+02  0.34546433355E+02  0.00000000000E+00 0. -1.
         21   -1    0    0  502  503 -0.00000000000E+00 -0.00000000000E+00 -0.26052102186E+04  0.26052102186E+04  0.00000000000E+00 0.  1.
         -6    2    1    2    0  503 -0.69058327847E+01 -0.18521989538E+03 -0.19976594484E+04  0.20135350423E+04  0.17124834193E+03 0.  0.
        -24    2    3    3    0    0 -0.92684851113E+01 -0.10716943784E+03 -0.17151124419E+04  0.17203587183E+04  0.80325825118E+02 0.  0.
          6    2    1    2  501    0  0.69058327847E+01  0.18521989538E+03 -0.57300433687E+03  0.62622160968E+03  0.17165498591E+03 0.  0.
         24    2    5    5    0    0 -0.32970604778E+02  0.12460865490E+03 -0.49683206881E+03  0.52092129075E+03  0.88896056745E+02 0.  0.
          5    1    5    5  501    0  0.39876437563E+02  0.60611240479E+02 -0.76172268059E+02  0.10530031893E+03  0.47000000000E+01 0. -1.
        -11    1    6    6    0    0  0.20907125077E+02  0.87435450679E+02 -0.25482603447E+03  0.27021912175E+03  0.00000000000E+00 0.  1.
         12    1    6    6    0    0 -0.53877729855E+02  0.37173204222E+02 -0.24200603433E+03  0.25070216900E+03  0.00000000000E+00 0. -1.
         -5    1    3    3    0  503  0.23626523265E+01 -0.78050457545E+02 -0.28254700650E+03  0.29317632396E+03  0.47000000000E+01 0.  1.
         11    1    4    4    0    0 -0.78186658593E+01  0.47399324924E+01 -0.26340053168E+02  0.27881838116E+02  0.00000000000E+00 0. -1.
        -12    1    4    4    0    0 -0.14498192520E+01 -0.11190937033E+03 -0.16887723887E+04  0.16924768802E+04  0.00000000000E+00 0.  1.
</event>
<event>
12    1  0.8196217E-002  0.1890009E+03  0.7818608E-02  0.1159567E+00
         21   -1    0    0  501  502  0.00000000000E+00  0.00000000000E+00  0.21131472113E+03  0.21131472113E+03  0.00000000000E+00 0.  1.
         21   -1    0    0  502  503 -0.00000000000E+00 -0.00000000000E+00 -0.31769687965E+03  0.31769687965E+03  0.00000000000E+00 0.  1.
         -6    2    1    2    0  503 -0.73160026329E+02  0.21525708736E+02 -0.23466936187E+03  0.30131553954E+03  0.17293235494E+03 0.  0.
        -24    2    3    3    0    0  0.25643510021E+02  0.31090632742E+02 -0.91310296080E+02  0.12688062816E+03  0.78338410641E+02 0.  0.
          6    2    1    2  501    0  0.73160026329E+02 -0.21525708736E+02  0.12828720335E+03  0.22769606124E+03  0.17196553192E+03 0.  0.
         24    2    5    5    0    0  0.47638561435E+02  0.52842394393E+02  0.89910867458E+02  0.14007875079E+03  0.80475717796E+02 0.  0.
          5    1    5    5  501    0  0.25521464894E+02 -0.74368103129E+02  0.38376335893E+02  0.87617310447E+02  0.47000000000E+01 0. -1.
        -13    1    6    6    0    0  0.15101858715E+02 -0.90809090092E+01  0.62520427685E+02  0.64956392472E+02  0.00000000000E+00 0.  1.
         14    1    6    6    0    0  0.32536702720E+02  0.61923303402E+02  0.27390439773E+02  0.75122358317E+02  0.00000000000E+00 0. -1.
         -5    1    3    3    0  503 -0.98803536350E+02 -0.95649240060E+01 -0.14335906579E+03  0.17443491138E+03  0.47000000000E+01 0.  1.
         13    1    4    4    0    0 -0.84598587750E+01 -0.22727445397E+02 -0.28347228265E+02  0.37305111380E+02  0.00000000000E+00 0. -1.
        -14    1    4    4    0    0  0.34103368796E+02  0.53818078139E+02 -0.62963067815E+02  0.89575516781E+02  0.00000000000E+00 0.  1.
</event>
<event>
12    1  0.8196217E-002  0.1991208E+03  0.7818608E-02  0.1150671E+00
         21   -1    0    0  501  502  0.00000000000E+00  0.00000000000E+00  0.58315051819E+03  0.58315051819E+03  0.00000000000E+00 0. -1.
         21   -1    0    0  502  503 -0.00000000000E+00 -0.00000000000E+00 -0.67831709088E+02  0.67831709088E+02  0.00000000000E+00 0.  1.
         -6    2    1    2    0  503 -0.96279157033E+02  0.29664406007E+02  0.27199015449E+03  0.33656539553E+03  0.17072776068E+03 0.  0.
        -24    2    3    3    0    0 -0.44937098431E+02  0.28696415634E+02  0.50666091156E+02  0.10931360786E+03  0.80867700509E+02 0.  0.
          6    2    1    2  501    0  0.96279157033E+02 -0.29664406007E+02  0.24332865461E+03  0.31441683174E+03  0.17175405925E+03 0.  0.
         24    2    5    5    0    0  0.10858519501E+03 -0.42950932753E+02  0.12162235303E+03  0.19128079231E+03  0.90337243423E+02 0.  0.
          5    1    5    5  501    0 -0.12306037980E+02  0.13286526746E+02  0.12170630158E+03  0.12313603944E+03  0.47000000000E+01 0. -1.
        -13    1    6    6    0    0 -0.13210764129E+02  0.10181777470E+01 -0.53956869477E+00  0.13260924145E+02  0.00000000000E+00 0.  1.
         14    1    6    6    0    0  0.12179595914E+03 -0.43969110500E+02  0.12216192172E+03  0.17801986816E+03  0.00000000000E+00 0. -1.
         -5    1    3    3    0  503 -0.51342058602E+02  0.96799037366E+00  0.22132406334E+03  0.22725178767E+03  0.47000000000E+01 0.  1.
         13    1    4    4    0    0 -0.20935573936E+02 -0.26543366785E+02  0.31237885303E+02  0.46028839378E+02  0.00000000000E+00 0. -1.
        -14    1    4    4    0    0 -0.24001524496E+02  0.55239782418E+02  0.19428205854E+02  0.63284768487E+02  0.00000000000E+00 0.  1.
</event>
<event>
12    1  0.8196217E-002  0.2235044E+03  0.7818608E-02  0.1131412E+00
         21   -1    0    0  501  502  0.00000000000E+00  0.00000000000E+00  0.16426897545E+03  0.16426897545E+03  0.00000000000E+00 0. -1.
         21   -1    0    0  502  503 -0.00000000000E+00 -0.00000000000E+00 -0.32542481327E+03  0.32542481327E+03  0.00000000000E+00 0.  1.
         -6    2    1    2    0  503 -0.68805468097E+02 -0.12531004848E+03 -0.16758459111E+02  0.22413175003E+03  0.17180627092E+03 0.  0.
        -24    2    3    3    0    0 -0.88426918205E+01 -0.10977517438E+03 -0.60089962401E+02  0.14839156235E+03  0.79249416950E+02 0.  0.
          6    2    1    2  501    0  0.68805468097E+02  0.12531004848E+03 -0.14439737870E+03  0.26556203869E+03  0.17098477339E+03 0.  0.
         24    2    5    5    0    0  0.36789170604E+02  0.19949787303E+02 -0.77070070093E+01  0.89971105977E+02  0.79271463128E+02 0.  0.
          5    1    5    5  501    0  0.32016297493E+02  0.10536026117E+03 -0.13669037169E+03  0.17559093272E+03  0.47000000000E+01 0. -1.
        -11    1    6    6    0    0  0.33808223603E+02  0.56559376629E+01 -0.41104264877E+02  0.53521455558E+02  0.00000000000E+00 0.  1.
         12    1    6    6    0    0  0.29809470011E+01  0.14293849640E+02  0.33397257868E+02  0.36449650418E+02  0.00000000000E+00 0. -1.
         -5    1    3    3    0  503 -0.59962776277E+02 -0.15534874099E+02  0.43331503290E+02  0.75740187678E+02  0.47000000000E+01 0.  1.
         13    1    4    4    0    0  0.34355941085E+02 -0.40248868968E+02 -0.32057766330E+02  0.61870853583E+02  0.00000000000E+00 0. -1.
        -14    1    4    4    0    0 -0.43198632906E+02 -0.69526305408E+02 -0.28032196070E+02  0.86520708765E+02  0.00000000000E+00 0.  1.
</event>
<event>
12    1  0.8196217E-002  0.1954761E+03  0.7818608E-02  0.1153902E+00
         21   -1    0    0  503  502  0.00000000000E+00  0.00000000000E+00  0.99718778873E+02  0.99718778873E+02  0.00000000000E+00 0.  1.
         21   -1    0    0  501  503 -0.00000000000E+00 -0.00000000000E+00 -0.40652182479E+03  0.40652182479E+03  0.00000000000E+00 0.  1.
          6    2    1    2  501    0  0.15704612706E+02 -0.88369726203E+02 -0.21781492713E+03  0.29266749794E+03  0.17365217679E+03 0.  0.
         24    2    3    3    0    0  0.44720802887E+01 -0.96207160728E+02 -0.23740243312E+03  0.26830860725E+03  0.79710577697E+02 0.  0.
         -6    2    1    2    0  502 -0.15704612706E+02  0.88369726203E+02 -0.88988118787E+02  0.21357310572E+03  0.17215906259E+03 0.  0.
        -24    2    5    5    0    0  0.54431265241E+02  0.73927084412E+02 -0.66396151977E+02  0.13833934839E+03  0.79381042263E+02 0.  0.
          5    1    3    3  501    0  0.11232532417E+02  0.78374345246E+01  0.19587505995E+02  0.24358890687E+02  0.47000000000E+01 0. -1.
        -13    1    4    4    0    0 -0.21717171216E+02 -0.68229292490E+02 -0.84889104561E+02  0.11105418476E+03  0.00000000000E+00 0.  1.
         14    1    4    4    0    0  0.26189251504E+02 -0.27977868238E+02 -0.15251332856E+03  0.15725442249E+03  0.00000000000E+00 0. -1.
         -5    1    5    5    0  502 -0.70135877946E+02  0.14442641791E+02 -0.22591966811E+02  0.75233757327E+02  0.47000000000E+01 0.  1.
         11    1    6    6    0    0  0.49707647506E+02  0.52832595094E+01 -0.14169735690E+02  0.51957140618E+02  0.00000000000E+00 0. -1.
        -12    1    6    6    0    0  0.47236177344E+01  0.68643824903E+02 -0.52226416286E+02  0.86382207774E+02  0.00000000000E+00 0.  1.
</event>
<event>
12    1  0.8196217E-002  0.2293338E+03  0.7818608E-02  0.1127486E+00
         21   -1    0    0  503  502  0.00000000000E+00  0.00000000000E+00  0.54832220294E+02  0.54832220294E+02  0.00000000000E+00 0. -1.
         21   -1    0    0  501  503 -0.00000000000E+00 -0.00000000000E+00 -0.11255794485E+04  0.11255794485E+04  0.00000000000E+00 0. -1.
          6    2    1    2  501    0  0.11638332271E+03  0.95141172802E+02 -0.77036078775E+03  0.80377219023E+03  0.17319662213E+03 0.  0.
         24    2    3    3    0    0  0.87849311236E+02  0.13057993157E+03 -0.68126705337E+03  0.70362290696E+03  0.78687846468E+02 0.  0.
         -6    2    1    2    0  502 -0.11638332271E+03 -0.95141172802E+02 -0.30038644042E+03  0.37663947853E+03  0.17037711886E+03 0.  0.
        -24    2    5    5    0    0 -0.11092827449E+03 -0.97447288938E+02 -0.31677071262E+03  0.35859480901E+03  0.80283849359E+02 0.  0.
          5    1    3    3  501    0  0.28534011471E+02 -0.35438758765E+02 -0.89093734386E+02  0.10014928327E+03  0.47000000000E+01 0. -1.
        -13    1    4    4    0    0 -0.15334931440E+01 -0.69963084099E+01 -0.83799371279E+01  0.11023759742E+02  0.00000000000E+00 0.  1.
         14    1    4    4    0    0  0.89382804380E+02  0.13757623998E+03 -0.67288711624E+03  0.69259914722E+03  0.00000000000E+00 0. -1.
         -5    1    5    5    0  502 -0.54550482147E+01  0.23061161354E+01  0.16384272201E+02  0.18044669523E+02  0.47000000000E+01 0.  1.
         13    1    6    6    0    0 -0.11989203014E+03 -0.69219534419E+02 -0.25936949211E+03  0.29400336099E+03  0.00000000000E+00 0. -1.
        -14    1    6    6    0    0  0.89637556477E+01 -0.28227754519E+02 -0.57401220513E+02  0.64591448017E+02  0.00000000000E+00 0.  1.
</event>
<event>
12    1  0.8196217E-002  0.1737854E+03  0.7818608E-02  0.1174994E+00
         21   -1    0    0  503  502  0.00000000000E+00  0.00000000000E+00  0.43104186430E+02  0.43104186430E+02  0.00000000000E+00 0. -1.
         21   -1    0    0  501  503 -0.00000000000E+00 -0.00000000000E+00 -0.80283906053E+03  0.80283906053E+03  0.00000000000E+00 0. -1.
          6    2    1    2  501    0 -0.28275642581E+02  0.11858030768E+02 -0.21363979130E+03  0.27286280840E+03  0.16694917467E+03 0.  0.
         24    2    3    3    0    0 -0.38752597333E+02  0.89155275465E+01 -0.23300628441E+03  0.25015651056E+03  0.81884679684E+02 0.  0.
         -6    2    1    2    0  502  0.28275642581E+02 -0.11858030768E+02 -0.54609508280E+03  0.57308043856E+03  0.17105912646E+03 0.  0.
        -24    2    5    5    0    0  0.80182442725E+02 -0.80478996394E+01 -0.28377161843E+03  0.30560235916E+03  0.79827800217E+02 0.  0.
          5    1    3    3  501    0  0.10476954752E+02  0.29425032214E+01  0.19366493114E+02  0.22706297841E+02  0.47000000000E+01 0. -1.
        -13    1    4    4    0    0 -0.32580238361E+01 -0.44450147788E+01 -0.19942193370E+03  0.19949807146E+03  0.00000000000E+00 0.  1.
         14    1    4    4    0    0 -0.35494573497E+02  0.13360542325E+02 -0.33584350713E+02  0.50658439097E+02  0.00000000000E+00 0. -1.
         -5    1    5    5    0  502 -0.51906800144E+02 -0.38101311286E+01 -0.26232346438E+03  0.26747807941E+03  0.47000000000E+01 0.  1.
         13    1    6    6    0    0  0.52880684835E+02 -0.31441144929E+02 -0.24550291036E+03  0.25309403671E+03  0.00000000000E+00 0. -1.
        -14    1    6    6    0    0  0.27301757890E+02  0.23393245289E+02 -0.38268708068E+02  0.52508322448E+02  0.00000000000E+00 0.  1.
</event>
<event>
12    1  0.8196217E-002  0.2572139E+03  0.7818608E-02  0.1108968E+00
         21   -1    0    0  501  502  0.00000000000E+00  0.00000000000E+00  0.63038491985E+03  0.63038491985E+03  0.00000000000E+00 0.  1.
         21   -1    0    0  502  503 -0.00000000000E+00 -0.00000000000E+00 -0.19859721035E+03  0.19859721035E+03  0.00000000000E+00 0. -1.
         -6    2    1    2    0  503  0.17689182693E+03 -0.72078128220E+02 -0.69499305975E+02  0.26555718205E+03  0.17089320759E+03 0.  0.
        -24    2    3    3    0    0  0.10977209388E+03 -0.68337585283E+02  0.20574021808E+02  0.15306565079E+03  0.79283446700E+02 0.  0.
          6    2    1    2  501    0 -0.17689182693E+03  0.72078128220E+02  0.50128701547E+03  0.56342494815E+03  0.17225860011E+03 0.  0.
         24    2    5    5    0    0 -0.12767172959E+03  0.89996604738E+02  0.47080368341E+03  0.50263832695E+03  0.81177090396E+02 0.  0.
          5    1    5    5  501    0 -0.49220097347E+02 -0.17918476517E+02  0.30483332067E+02  0.60786621205E+02  0.47000000000E+01 0. -1.
        -13    1    6    6    0    0 -0.82982174976E+02  0.22633156104E+02  0.32204355161E+03  0.33333219205E+03  0.00000000000E+00 0.  1.
         14    1    6    6    0    0 -0.44689554612E+02  0.67363448634E+02  0.14876013180E+03  0.16930613490E+03  0.00000000000E+00 0. -1.
         -5    1    3    3    0  503  0.67119733050E+02 -0.37405429371E+01 -0.90073327782E+02  0.11249153125E+03  0.47000000000E+01 0.  1.
         13    1    4    4    0    0  0.82771585500E+02 -0.76049877040E+01 -0.11905068265E+01  0.83128746596E+02  0.00000000000E+00 0. -1.
        -14    1    4    4    0    0  0.27000508385E+02 -0.60732597579E+02  0.21764528634E+02  0.69936904195E+02  0.00000000000E+00 0.  1.
</event>
<event>
12    1  0.8196217E-002  0.1809963E+03  0.7818608E-02  0.1167280E+00
         21   -1    0    0  503  502  0.00000000000E+00  0.00000000000E+00  0.38774909873E+02  0.38774909873E+02  0.00000000000E+00 0. -1.
         21   -1    0    0  501  503 -0.00000000000E+00 -0.00000000000E+00 -0.15293295692E+04  0.15293295692E+04  0.00000000000E+00 0. -1.
          6    2    1    2  501    0  0.10067762836E+01 -0.54409987876E+02 -0.12750823835E+04  0.12878644171E+04  0.17262158505E+03 0.  0.
         24    2    3    3    0    0  0.66228242512E+01  0.27599305729E+02 -0.40250913058E+03  0.41141519666E+03  0.80270046461E+02 0.  0.
         -6    2    1    2    0  502 -0.10067762836E+01  0.54409987876E+02 -0.21547227584E+03  0.28024006203E+03  0.17071827768E+03 0.  0.
        -24    2    5    5    0    0  0.36130210630E+02  0.66715415270E+02 -0.73300257762E+02  0.13270853298E+03  0.80512658523E+02 0.  0.
          5    1    3    3  501    0 -0.56160479676E+01 -0.82009293605E+02 -0.87257325295E+03  0.87644922043E+03  0.47000000000E+01 0. -1.
        -11    1    4    4    0    0 -0.15613156731E+02 -0.21400456473E+02 -0.20510853793E+03  0.20681214310E+03  0.00000000000E+00 0.  1.
         12    1    4    4    0    0  0.22235980982E+02  0.48999762202E+02 -0.19740059265E+03  0.20460305356E+03  0.00000000000E+00 0. -1.
         -5    1    5    5    0  502 -0.37136986914E+02 -0.12305427394E+02 -0.14217201808E+03  0.14753152905E+03  0.47000000000E+01 0.  1.
         11    1    6    6    0    0  0.58407565981E+02  0.28007623498E+02 -0.52795203272E+02  0.83565568426E+02  0.00000000000E+00 0. -1.
        -12    1    6    6    0    0 -0.22277355351E+02  0.38707791772E+02 -0.20505054490E+02  0.49142964552E+02  0.00000000000E+00 0.  1.
</event>
<event>
12    1  0.8196217E-002  0.2117827E+03  0.7818608E-02  0.1140202E+00
         21   -1    0    0  501  502  0.00000000000E+00  0.00000000000E+00  0.65863298240E+02  0.65863298240E+02  0.00000000000E+00 0.  1.
         21   -1    0    0  502  503 -0.00000000000E+00 -0.00000000000E+00 -0.13194680960E+04  0.13194680960E+04  0.00000000000E+00 0. -1.
         -6    2    1    2    0  503 -0.19271364776E+02  0.12288629581E+03 -0.11087298222E+04  0.11287370207E+04  0.17115202618E+03 0.  0.
        -24    2    3    3    0    0 -0.70533400867E+02  0.76615094152E+02 -0.54299650965E+03  0.55878518819E+03  0.80937282911E+02 0.  0.
          6    2    1    2  501    0  0.19271364776E+02 -0.12288629581E+03 -0.14487497557E+03  0.25659437355E+03  0.17140445383E+03 0.  0.
         24    2    5    5    0    0 -0.24873028351E+02 -0.31347070374E+02 -0.11171531520E+02  0.88585867247E+02  0.78239033730E+02 0.  0.
          5    1    5    5  501    0  0.44144393128E+02 -0.91539225440E+02 -0.13370344405E+03  0.16800850630E+03  0.47000000000E+01 0. -1.
        -13    1    6    6    0    0  0.18030047690E+02 -0.29042900020E+02 -0.26198467833E+02  0.43068925899E+02  0.00000000000E+00 0.  1.
         14    1    6    6    0    0 -0.42903076041E+02 -0.23041703535E+01  0.15026936313E+02  0.45516941349E+02  0.00000000000E+00 0. -1.
         -5    1    3    3    0  503  0.51262036090E+02  0.46271201663E+02 -0.56573331251E+03  0.56995183247E+03  0.47000000000E+01 0.  1.
         11    1    4    4    0    0 -0.66762330721E+02  0.14486303815E+02 -0.32346181067E+03  0.33059734536E+03  0.00000000000E+00 0. -1.
        -12    1    4    4    0    0 -0.37710701461E+01  0.62128790337E+02 -0.21953469898E+03  0.22818784283E+03  0.00000000000E+00 0.  1.
</event>
<event>
12    1  0.8196217E-002  0.2536960E+03  0.7818608E-02  0.1111496E+00
         21   -1    0    0  501  502  0.00000000000E+00  0.00000000000E+00  0.79056095568E+03  0.79056095568E+03  0.00000000000E+00 0.  1.
         21   -1    0    0  502  503 -0.00000000000E+00 -0.00000000000E+00 -0.38345399386E+03  0.38345399386E+03  0.00000000000E+00 0.  1.
         -6    2    1    2    0  503  0.15947579865E+03 -0.90615181638E+02 -0.31804163356E+03  0.40683180925E+03  0.17526550955E+03 0.  0.
        -24    2    3    3    0    0  0.26115437371E+02 -0.65575934199E+01 -0.16891273003E+03  0.18977839654E+03  0.82215031041E+02 0.  0.
          6    2    1    2  501    0 -0.15947579865E+03  0.90615181638E+02  0.72514859538E+03  0.76718314030E+03  0.17054572370E+03 0.  0.
         24    2    5    5    0    0 -0.14682019988E+03  0.91775927281E+02  0.72875055569E+03  0.75316259720E+03  0.78724414732E+02 0.  0.
          5    1    5    5  501    0 -0.12655598766E+02 -0.11607456435E+01 -0.36019603140E+01  0.14020543095E+02  0.47000000000E+01 0. -1.
        -13    1    6    6    0    0 -0.51054923380E+02  0.45902772978E+02  0.44362548926E+03  0.44890672137E+03  0.00000000000E+00 0.  1.
         14    1    6    6    0    0 -0.95765276501E+02  0.45873154303E+02  0.28512506643E+03  0.30425587583E+03  0.00000000000E+00 0. -1.
         -5    1    3    3    0  503  0.13336036128E+03 -0.84057588218E+02 -0.14912890353E+03  0.21705341270E+03  0.47000000000E+01 0.  1.
         11    1    4    4    0    0  0.11886906190E+02 -0.36879055183E+02 -0.14084913713E+03  0.14608163020E+03  0.00000000000E+00 0. -1.
        -12    1    4    4    0    0  0.14228531181E+02  0.30321461763E+02 -0.28063592892E+02  0.43696766345E+02  0.00000000000E+00 0.  1.
</event>
<event>
12    1  0.8196217E-002  0.1919069E+03  0.7818608E-02  0.1157262E+00
         21   -1    0    0  501  502  0.00000000000E+00  0.00000000000E+00  0.13845965117E+03  0.13845965117E+03  0.00000000000E+00 0. -1.
         21   -1    0    0  502  503 -0.00000000000E+00 -0.00000000000E+00 -0.27058227065E+03  0.27058227065E+03  0.00000000000E+00 0. -1.
         -6    2    1    2    0  503  0.78262142957E+02 -0.30495777661E+02 -0.10026136685E+03  0.21450810349E+03  0.17001890867E+03 0.  0.
        -24    2    3    3    0    0  0.65910607495E+02  0.29894189563E+02 -0.10690962906E+03  0.15233256200E+03  0.80855858839E+02 0.  0.
          6    2    1    2  501    0 -0.78262142957E+02  0.30495777661E+02 -0.31861252627E+02  0.19453381834E+03  0.17254944678E+03 0.  0.
         24    2    5    5    0    0 -0.32023507149E+02  0.61682436118E+02  0.31188877066E+02  0.11022469688E+03  0.79664984867E+02 0.  0.
          5    1    5    5  501    0 -0.46238635808E+02 -0.31186658457E+02 -0.63050129694E+02  0.84309121461E+02  0.47000000000E+01 0. -1.
        -11    1    6    6    0    0  0.14774741719E+02  0.39804949300E+01 -0.16057258050E+02  0.22180461421E+02  0.00000000000E+00 0.  1.
         12    1    6    6    0    0 -0.46798248869E+02  0.57701941188E+02  0.47246135116E+02  0.88044235458E+02  0.00000000000E+00 0. -1.
         -5    1    3    3    0  503  0.12351535462E+02 -0.60389967224E+02  0.66482622090E+01  0.62175541493E+02  0.47000000000E+01 0.  1.
         13    1    4    4    0    0  0.80861993997E+02  0.70019308144E+01 -0.79146918645E+02  0.11336632586E+03  0.00000000000E+00 0. -1.
        -14    1    4    4    0    0 -0.14951386502E+02  0.22892258749E+02 -0.27762710417E+02  0.38966236136E+02  0.00000000000E+00 0.  1.
</event>
<event>
12    1  0.8196217E-002  0.1966440E+03  0.7818608E-02  0.1152779E+00
         21   -1    0    0  503  502  0.00000000000E+00  0.00000000000E+00  0.10330550197E+03  0.10330550197E+03  0.00000000000E+00 0.  1.
         21   -1    0    0  501  503 -0.00000000000E+00 -0.00000000000E+00 -0.62222275771E+03  0.62222275771E+03  0.00000000000E+00 0. -1.
          6    2    1    2  501    0 -0.81371096266E+02  0.49326415861E+02 -0.48948140683E+03  0.52750441879E+03  0.17208867949E+03 0.  0.
         24    2    3    3    0    0  0.16314870834E+02 -0.62148776168E+01 -0.25943265851E+03  0.27143431110E+03  0.77887619229E+02 0.  0.
         -6    2    1    2    0  502  0.81371096266E+02 -0.49326415861E+02 -0.29435848910E+02  0.19802384089E+03  0.17115087423E+03 0.  0.
        -24    2    5    5    0    0  0.57163633526E+02 -0.88379241009E+02 -0.56420396265E+02  0.14453197048E+03  0.81410430142E+02 0.  0.
          5    1    3    3  501    0 -0.97685967100E+02  0.55541293478E+02 -0.23004874832E+03  0.25607010769E+03  0.47000000000E+01 0. -1.
        -13    1    4    4    0    0 -0.11948460992E+02 -0.26824589757E+02 -0.42250025682E+02  0.51452784239E+02  0.00000000000E+00 0.  1.
         14    1    4    4    0    0  0.28263331826E+02  0.20609712141E+02 -0.21718263282E+03  0.21998152686E+03  0.00000000000E+00 0. -1.
         -5    1    5    5    0  502  0.24207462740E+02  0.39052825148E+02  0.26984547355E+02  0.53491870413E+02  0.47000000000E+01 0.  1.
         11    1    6    6    0    0  0.63744497598E+02 -0.73660443265E+02 -0.72752820688E+02  0.12158204964E+03  0.00000000000E+00 0. -1.
        -12    1    6    6    0    0 -0.65808640716E+01 -0.14718797744E+02  0.16332424423E+02  0.22949920839E+02  0.00000000000E+00 0.  1.
</event>
<event>
12    1  0.8196217E-002  0.2405543E+03  0.7818608E-02  0.1120161E+00
         21   -1    0    0  501  502  0.00000000000E+00  0.00000000000E+00  0.57786337071E+02  0.57786337071E+02  0.00000000000E+00 0. -1.
         21   -1    0    0  502  503 -0.00000000000E+00 -0.00000000000E+00 -0.11939439357E+04  0.11939439357E+04  0.00000000000E+00 0. -1.
         -6    2    1    2    0  503 -0.14666459391E+03 -0.76049244138E+02 -0.83534563942E+03  0.86929207738E+03  0.17484961499E+03 0.  0.
        -24    2    3    3    0    0 -0.10018013965E+03 -0.72180640998E+02 -0.79191911830E+03  0.80538806096E+03  0.79170281641E+02 0.  0.
          6    2    1    2  501    0  0.14666459391E+03  0.76049244138E+02 -0.30081195924E+03  0.38243819542E+03  0.16875173438E+03 0.  0.
         24    2    5    5    0    0  0.90021836699E+02 -0.17863210323E+02 -0.14368077026E+03  0.19076072779E+03  0.85571409705E+02 0.  0.
          5    1    5    5  501    0  0.56642757206E+02  0.93912454462E+02 -0.15713118898E+03  0.19167746763E+03  0.47000000000E+01 0. -1.
        -11    1    6    6    0    0  0.34679769791E+02  0.32912625958E+02 -0.75254765057E+02  0.89158325713E+02  0.00000000000E+00 0.  1.
         12    1    6    6    0    0  0.55342066908E+02 -0.50775836282E+02 -0.68426005204E+02  0.10160240208E+03  0.00000000000E+00 0. -1.
         -5    1    3    3    0  503 -0.46484454260E+02 -0.38686031403E+01 -0.43426521117E+02  0.63904016419E+02  0.47000000000E+01 0.  1.
         13    1    4    4    0    0 -0.69324830037E+02 -0.77031430317E+02 -0.43798735067E+03  0.45008076237E+03  0.00000000000E+00 0. -1.
        -14    1    4    4    0    0 -0.30855309608E+02  0.48507893192E+01 -0.35393176764E+03  0.35530729859E+03  0.00000000000E+00 0.  1.
</event>
<event>
12    1  0.8196217E-002  0.1786743E+03  0.7818608E-02  0.1170444E+00
         21   -1    0    0  501  502  0.00000000000E+00  0.00000000000E+00  0.36029834826E+03  0.36029834826E+03  0.00000000000E+00 0. -1.
         21   -1    0    0  502  503 -0.00000000000E+00 -0.00000000000E+00 -0.85949558145E+02  0.85949558145E+02  0.00000000000E+00 0. -1.
         -6    2    1    2    0  503 -0.34273988850E+02  0.33684921449E+02  0.13564815782E+03  0.22433222092E+03  0.17209050636E+03 0.  0.
        -24    2    3    3    0    0 -0.34619476161E+02  0.75715756331E+02  0.14078340369E+03  0.18172739499E+03  0.79205400377E+02 0.  0.
          6    2    1    2  501    0  0.34273988850E+02 -0.33684921449E+02  0.13870063230E+03  0.22191568549E+03  0.16643114438E+03 0.  0.
         24    2    5    5    0    0 -0.95528529293E+00  0.33074530464E+02  0.35027140760E+02  0.93587165570E+02  0.80229793931E+02 0.  0.
          5    1    5    5  501    0  0.35229274143E+02 -0.66759451913E+02  0.10367349154E+03  0.12832851992E+03  0.47000000000E+01 0. -1.
        -13    1    6    6    0    0 -0.24816218654E+01  0.50251420027E+02  0.49865523535E+02  0.70837377840E+02  0.00000000000E+00 0.  1.
         14    1    6    6    0    0  0.15263365725E+01 -0.17176889563E+02 -0.14838382775E+02  0.22749787730E+02  0.00000000000E+00 0. -1.
         -5    1    3    3    0  503  0.34548731126E+00 -0.42030834882E+02 -0.51352458724E+01  0.42604825930E+02  0.47000000000E+01 0.  1.
         13    1    4    4    0    0 -0.84523744122E+00  0.77126369735E+02  0.11796488241E+03  0.14094291332E+03  0.00000000000E+00 0. -1.
        -14    1    4    4    0    0 -0.33774238720E+02 -0.14106134043E+01  0.22818521286E+02  0.40784481668E+02  0.00000000000E+00 0.  1.
</event>
<event>
12    1  0.8196217E-002  0.1895614E+03  0.7818608E-02  0.1158867E+00
         21   -1    0    0  503  502  0.00000000000E+00  0.00000000000E+00  0.52341809041E+03  0.52341809041E+03  0.00000000000E+00 0.  1.
         21   -1    0    0  501  503 -0.00000000000E+00 -0.00000000000E+00 -0.79556739093E+02  0.79556739093E+02  0.00000000000E+00 0.  1.
          6    2    1    2  501    0  0.54658536801E+00 -0.80893148953E+02  0.33364805868E+03  0.38373762656E+03  0.17143377342E+03 0.  0.
         24    2    3    3    0    0  0.32025191009E+02  0.91378915313E+01  0.21399226211E+03  0.23064912105E+03  0.79354992780E+02 0.  0.
         -6    2    1    2    0  502 -0.54658536801E+00  0.80893148953E+02  0.11021329264E+03  0.21923720295E+03  0.17138839220E+03 0.  0.
        -24    2    5    5    0    0 -0.65683994572E+02  0.34591610620E+02  0.70000336646E+02  0.12964989158E+03  0.79988002767E+02 0.  0.
          5    1    3    3  501    0 -0.31478605641E+02 -0.90031040484E+02  0.11965579657E+03  0.15308850550E+03  0.47000000000E+01 0. -1.
        -11    1    4    4    0    0  0.10587838194E+02 -0.15325479178E+02  0.18824653922E+03  0.18916588529E+03  0.00000000000E+00 0.  1.
         12    1    4    4    0    0  0.21437352815E+02  0.24463370709E+02  0.25745722888E+02  0.41483235761E+02  0.00000000000E+00 0. -1.
         -5    1    5    5    0  502  0.65137409204E+02  0.46301538332E+02  0.40212955992E+02  0.89587311375E+02  0.47000000000E+01 0.  1.
         13    1    6    6    0    0 -0.26155339600E+02  0.49168210327E+02  0.67409802171E+02  0.87439671346E+02  0.00000000000E+00 0. -1.
        -14    1    6    6    0    0 -0.39528654972E+02 -0.14576599707E+02  0.25905344746E+01  0.42210220229E+02  0.00000000000E+00 0.  1.
</event>
<event>
12    1  0.8196217E-002  0.2033897E+03  0.7818608E-02  0.1146996E+00
         21   -1    0    0  503  502  0.00000000000E+00  0.00000000000E+00  0.34353540756E+03  0.34353540756E+03  0.00000000000E+00 0. -1.
         21   -1    0    0  501  503 -0.00000000000E+00 -0.00000000000E+00 -0.13347431490E+03  0.13347431490E+03  0.00000000000E+00 0. -1.
          6    2    1    2  501    0  0.27653140909E+01 -0.10765182173E+03  0.29827143926E+02  0.20556513400E+03  0.17254218069E+03 0.  0.
         24    2    3    3    0    0 -0.64485770058E+02 -0.64697777401E+02  0.19350400922E+01  0.12090216866E+03  0.79179372732E+02 0.  0.
         -6    2    1    2    0  502 -0.27653140909E+01  0.10765182173E+03  0.18023394873E+03  0.27144458845E+03  0.17205036077E+03 0.  0.
        -24    2    5    5    0    0  0.13201411312E+02 -0.14969885378E+00  0.12919327179E+03  0.15101475468E+03  0.77073049664E+02 0.  0.
          5    1    3    3  501    0  0.67251084149E+02 -0.42954044330E+02  0.27892103834E+02  0.84662965338E+02  0.47000000000E+01 0. -1.
        -13    1    4    4    0    0  0.92260573404E+01  0.40614265754E+00  0.18963593046E+02  0.21092722610E+02  0.00000000000E+00 0.  1.
         14    1    4    4    0    0 -0.73711827399E+02 -0.65103920059E+02 -0.17028552953E+02  0.99809446052E+02  0.00000000000E+00 0. -1.
         -5    1    5    5    0  502 -0.15966725403E+02  0.10780152059E+03  0.51040676939E+02  0.12042983377E+03  0.47000000000E+01 0.  1.
         13    1    6    6    0    0 -0.16733774002E+02  0.89894807439E+01  0.11515552835E+03  0.11671172035E+03  0.00000000000E+00 0. -1.
        -14    1    6    6    0    0  0.29935185314E+02 -0.91391795977E+01  0.14037743438E+02  0.34303034332E+02  0.00000000000E+00 0.  1.
</event>
<event>
12    1  0.8196217E-002  0.1810220E+03  0.7818608E-02  0.1167654E+00
         21   -1    0    0  503  502  0.00000000000E+00  0.00000000000E+00  0.10872752242E+03  0.10872752242E+03  0.00000000000E+00 0. -1.
         21   -1    0    0  501  503 -0.00000000000E+00 -0.00000000000E+00 -0.38713508876E+03  0.38713508876E+03  0.00000000000E+00 0. -1.
          6    2    1    2  501    0 -0.56610142759E+01 -0.43163958716E+02 -0.26073036209E+03  0.31741028066E+03  0.17570939114E+03 0.  0.
         24    2    3    3    0    0 -0.59462656055E+02  0.12934604661E+02 -0.16622846563E+03  0.19495880493E+03  0.81694071843E+02 0.  0.
         -6    2    1    2    0  502  0.56610142759E+01  0.43163958716E+02 -0.17677204241E+02  0.17845233052E+03  0.17215567462E+03 0.  0.
        -24    2    5    5    0    0 -0.37575227909E+02  0.18380711810E+01  0.43657333845E+02  0.92654794539E+02  0.72551167424E+02 0.  0.
          5    1    3    3  501    0  0.53801641779E+02 -0.56098563377E+02 -0.94501896465E+02  0.12245147572E+03  0.47000000000E+01 0. -1.
        -13    1    4    4    0    0 -0.31599796669E+02  0.47620860324E+02 -0.86996784541E+02  0.10409002838E+03  0.00000000000E+00 0.  1.
         14    1    4    4    0    0 -0.27862859386E+02 -0.34686255663E+02 -0.79231681085E+02  0.90868776555E+02  0.00000000000E+00 0. -1.
         -5    1    5    5    0  502  0.43236242185E+02  0.41325887535E+02 -0.61334538086E+02  0.85797535985E+02  0.47000000000E+01 0.  1.
         13    1    6    6    0    0 -0.14547803234E+02  0.29497958721E+02 -0.37831150643E+01  0.33107100557E+02  0.00000000000E+00 0. -1.
        -14    1    6    6    0    0 -0.23027424675E+02 -0.27659887540E+02  0.47440448910E+02  0.59547693983E+02  0.00000000000E+00 0.  1.
</event>
<event>
12    1  0.8196217E-002  0.1784998E+03  0.7818608E-02  0.1169639E+00
         21   -1    0    0  501  502  0.00000000000E+00  0.00000000000E+00  0.20206942540E+03  0.20206942540E+03  0.00000000000E+00 0.  1.
         21   -1    0    0  502  503 -0.00000000000E+00 -0.00000000000E+00 -0.22350083358E+03  0.22350083358E+03  0.00000000000E+00 0. -1.
         -6    2    1    2    0  503 -0.89192883085E+01  0.40951859366E+02 -0.12739770512E+03  0.21929968288E+03  0.17350955925E+03 0.  0.
        -24    2    3    3    0    0 -0.10854307586E+02  0.26893484419E+02  0.76525992719E+01  0.83424530914E+02  0.77846095504E+02 0.  0.
          6    2    1    2  501    0  0.89192883085E+01 -0.40951859366E+02  0.10596629694E+03  0.20627057610E+03  0.17193628467E+03 0.  0.
         24    2    5    5    0    0  0.43170666068E+02 -0.44262485653E+02  0.13066508750E+03  0.16365323949E+03  0.76721207346E+02 0.  0.
          5    1    5    5  501    0 -0.34251377760E+02  0.33106262874E+01 -0.24698790560E+02  0.42617336613E+02  0.47000000000E+01 0. -1.
        -13    1    6    6    0    0  0.35473084692E+01 -0.49863517908E+01  0.99617261432E+02  0.99805039336E+02  0.00000000000E+00 0.  1.
         14    1    6    6    0    0  0.39623357599E+02 -0.39276133862E+02  0.31047826072E+02  0.63848200150E+02  0.00000000000E+00 0. -1.
         -5    1    3    3    0  503  0.19350192778E+01  0.14058374947E+02 -0.13505030439E+03  0.13587515197E+03  0.47000000000E+01 0.  1.
         13    1    4    4    0    0 -0.11888920539E+02 -0.21989962340E+02 -0.15407658872E+02  0.29364959173E+02  0.00000000000E+00 0. -1.
        -14    1    4    4    0    0  0.10346129529E+01  0.48883446760E+02  0.23060258144E+02  0.54059571740E+02  0.00000000000E+00 0.  1.
</event>
<event>
12    1  0.8196217E-002  0.1747894E+03  0.7818608E-02  0.1174015E+00
         21   -1    0    0  501  502  0.00000000000E+00  0.00000000000E+00  0.20896363327E+04  0.20896363327E+04  0.00000000000E+00 0. -1.
         21   -1    0    0  502  503 -0.00000000000E+00 -0.00000000000E+00 -0.30409917913E+02  0.30409917913E+02  0.00000000000E+00 0.  1.
         -6    2    1    2    0  503  0.44704685829E+01  0.40484818080E+02  0.25151557901E+03  0.30390479502E+03  0.16564731319E+03 0.  0.
        -24    2    3    3    0    0 -0.42625369440E+02  0.99511518483E+00  0.21397781628E+03  0.23173396833E+03  0.78078254624E+02 0.  0.
          6    2    1    2  501    0 -0.44704685829E+01 -0.40484818080E+02  0.18077108358E+04  0.18161414556E+04  0.16997739660E+03 0.  0.
         24    2    5    5    0    0  0.47747007897E+02 -0.46713795196E+02  0.75377833870E+03  0.76088733293E+03  0.79409030297E+02 0.  0.
          5    1    5    5  501    0 -0.52217476480E+02  0.62289771157E+01  0.10539324971E+04  0.10552541227E+04  0.47000000000E+01 0. -1.
        -11    1    6    6    0    0 -0.66502680611E+00  0.68349436999E+01  0.38761821269E+03  0.38767903931E+03  0.00000000000E+00 0.  1.
         12    1    6    6    0    0  0.48412034703E+02 -0.53548738896E+02  0.36616012602E+03  0.37320829362E+03  0.00000000000E+00 0. -1.
         -5    1    3    3    0  503  0.47095838023E+02  0.39489702895E+02  0.37537762727E+02  0.72170826685E+02  0.47000000000E+01 0.  1.
         13    1    4    4    0    0  0.15853801524E+02  0.18723303391E+02  0.36058542988E+02  0.43613342397E+02  0.00000000000E+00 0. -1.
        -14    1    4    4    0    0 -0.58479170964E+02 -0.17728188206E+02  0.17791927329E+03  0.18812062594E+03  0.00000000000E+00 0.  1.
</event>
<event>
12    1  0.8196217E-002  0.8500179E+03  0.7818608E-02  0.9490332E-01
         21   -1    0    0  503  502  0.00000000000E+00  0.00000000000E+00  0.47803352644E+03  0.47803352644E+03  0.00000000000E+00 0. -1.
         21   -1    0    0  501  503 -0.00000000000E+00 -0.00000000000E+00 -0.19139952061E+04  0.19139952061E+04  0.00000000000E+00 0.  1.
          6    2    1    2  501    0 -0.41093491581E+03  0.72392429190E+03 -0.12665162451E+04  0.15252864376E+04  0.17175980973E+03 0.  0.
         24    2    3    3    0    0 -0.26705633045E+03  0.38945854558E+03 -0.62612914719E+03  0.78861411700E+03  0.82930538515E+02 0.  0.
         -6    2    1    2    0  502  0.41093491581E+03 -0.72392429190E+03 -0.16944543464E+03  0.86674229499E+03  0.17203652278E+03 0.  0.
        -24    2    5    5    0    0  0.36606177305E+03 -0.68926045066E+03 -0.12454396986E+03  0.79426186749E+03  0.79117148554E+02 0.  0.
          5    1    3    3  501    0 -0.14387858536E+03  0.33446574632E+03 -0.64038709788E+03  0.73667232059E+03  0.47000000000E+01 0. -1.
        -13    1    4    4    0    0 -0.21681902542E+03  0.35257681215E+03 -0.57211808710E+03  0.70614446386E+03  0.00000000000E+00 0.  1.
         14    1    4    4    0    0 -0.50237305039E+02  0.36881733434E+02 -0.54011060084E+02  0.82469653146E+02  0.00000000000E+00 0. -1.
         -5    1    5    5    0  502  0.44873142760E+02 -0.34663841242E+02 -0.44901464779E+02  0.72480427497E+02  0.47000000000E+01 0.  1.
         13    1    6    6    0    0  0.84666107518E+02 -0.98615189329E+02 -0.27507849077E+02  0.13285325397E+03  0.00000000000E+00 0. -1.
        -14    1    6    6    0    0  0.28139566553E+03 -0.59064526133E+03 -0.97036120779E+02  0.66140861353E+03  0.00000000000E+00 0.  1.
</event>
<event>
12    1  0.8196217E-002  0.2017150E+03  0.7818608E-02  0.1148449E+00
         21   -1    0    0  503  502  0.00000000000E+00  0.00000000000E+00  0.38866400373E+02  0.38866400373E+02  0.00000000000E+00 0.  1.
         21   -1    0    0  501  503 -0.00000000000E+00 -0.00000000000E+00 -0.10452949092E+04  0.10452949092E+04  0.00000000000E+00 0.  1.
          6    2    1    2  501    0 -0.36178494860E+02  0.97000707529E+02 -0.47980637958E+03  0.52048353472E+03  0.17312113469E+03 0.  0.
         24    2    3    3    0    0  0.44351072355E+02  0.30254440030E+02 -0.17562025927E+03  0.19878280235E+03  0.76090592591E+02 0.  0.
         -6    2    1    2    0  502  0.36178494860E+02 -0.97000707529E+02 -0.52662212924E+03  0.56367777485E+03  0.17228971560E+03 0.  0.
        -24    2    5    5    0    0  0.10400243729E+02  0.33420614181E+01 -0.11148281415E+03  0.13578067221E+03  0.76737465762E+02 0.  0.
          5    1    3    3  501    0 -0.80529567215E+02  0.66746267499E+02 -0.30418612030E+03  0.32170073237E+03  0.47000000000E+01 0. -1.
        -11    1    4    4    0    0 -0.11363840846E+02  0.19042539291E+02 -0.11252242947E+02  0.24867009325E+02  0.00000000000E+00 0.  1.
         12    1    4    4    0    0  0.55714913201E+02  0.11211900739E+02 -0.16436801633E+03  0.17391579302E+03  0.00000000000E+00 0. -1.
         -5    1    5    5    0  502  0.25778251131E+02 -0.10034276895E+03 -0.41513931509E+03  0.42789710264E+03  0.47000000000E+01 0.  1.
         11    1    6    6    0    0 -0.20061867126E+02  0.21206169794E+02 -0.89602057478E+02  0.94237512988E+02  0.00000000000E+00 0. -1.
        -12    1    6    6    0    0  0.30462110855E+02 -0.17864108376E+02 -0.21880756671E+02  0.41543159224E+02  0.00000000000E+00 0.  1.
</event>
<event>
12    1  0.8196217E-002  0.1853696E+03  0.7818608E-02  0.1163334E+00
         21   -1    0    0  503  502  0.00000000000E+00  0.00000000000E+00  0.15795401354E+03  0.15795401354E+03  0.00000000000E+00 0. -1.
         21   -1    0    0  501  503 -0.00000000000E+00 -0.00000000000E+00 -0.21441337528E+03  0.21441337528E+03  0.00000000000E+00 0. -1.
          6    2    1    2  501    0 -0.46083890349E+02  0.45184314847E+02 -0.27738857563E+02  0.18478606093E+03  0.17091254149E+03 0.  0.
         24    2    3    3    0    0  0.31311198690E+02 -0.11114636423E+02 -0.16101196037E+02  0.88260950795E+02  0.80167453591E+02 0.  0.
         -6    2    1    2    0  502  0.46083890349E+02 -0.45184314847E+02 -0.28720504178E+02  0.18758132788E+03  0.17377151651E+03 0.  0.
        -24    2    5    5    0    0 -0.19475514102E+02  0.93344812596E+01 -0.52361035237E+02  0.98973769797E+02  0.81164653063E+02 0.  0.
          5    1    3    3  501    0 -0.77395089039E+02  0.56298951270E+02 -0.11637661526E+02  0.96525110139E+02  0.47000000000E+01 0. -1.
        -13    1    4    4    0    0 -0.15062415238E+02  0.21262193069E+02  0.72894861243E+01  0.27057232210E+02  0.00000000000E+00 0.  1.
         14    1    4    4    0    0  0.46373613928E+02 -0.32376829493E+02 -0.23390682161E+02  0.61203718585E+02  0.00000000000E+00 0. -1.
         -5    1    5    5    0  502  0.65559404451E+02 -0.54518796106E+02  0.23640531059E+02  0.88607558084E+02  0.47000000000E+01 0.  1.
         13    1    6    6    0    0 -0.14605948008E+02 -0.90847923712E+01 -0.70560046272E+02  0.72626354029E+02  0.00000000000E+00 0. -1.
        -14    1    6    6    0    0 -0.48695660935E+01  0.18419273631E+02  0.18199011035E+02  0.26347415768E+02  0.00000000000E+00 0.  1.
</event>
<event>
12    1  0.8196217E-002  0.1999118E+03  0.7818608E-02  0.1149964E+00
         21   -1    0    0  503  502  0.00000000000E+00  0.00000000000E+00  0.11255005784E+04  0.11255005784E+04  0.00000000000E+00 0. -1.
         21   -1    0    0  501  503 -0.00000000000E+00 -0.00000000000E+00 -0.40015132544E+02  0.40015132544E+02  0.00000000000E+00 0. -1.
          6    2    1    2  501    0 -0.94849983555E+02 -0.36548319534E+02  0.34359977731E+03  0.39716742610E+03  0.17131508499E+03 0.  0.
         24    2    3    3    0    0 -0.15225656390E+02 -0.60856499405E+02  0.26767485103E+03  0.28439506461E+03  0.72769449417E+02 0.  0.
         -6    2    1    2    0  502  0.94849983555E+02  0.36548319534E+02  0.74188566853E+03  0.76834828483E+03  0.17214076389E+03 0.  0.
        -24    2    5    5    0    0  0.42815973897E+01  0.58934860094E+02  0.28111240399E+03  0.29820162570E+03  0.80052333423E+02 0.  0.
          5    1    3    3  501    0 -0.79624327165E+02  0.24308179871E+02  0.75924926288E+02  0.11277236149E+03  0.47000000000E+01 0. -1.
        -13    1    4    4    0    0 -0.23494895865E+02 -0.74777892610E+02  0.20002107649E+03  0.21483057137E+03  0.00000000000E+00 0.  1.
         14    1    4    4    0    0  0.82692394749E+01  0.13921393205E+02  0.67653774539E+02  0.69564493240E+02  0.00000000000E+00 0. -1.
         -5    1    5    5    0  502  0.90568386165E+02 -0.22386540560E+02  0.46077326454E+03  0.47014665912E+03  0.47000000000E+01 0.  1.
         13    1    6    6    0    0 -0.85818742098E+01  0.19877701950E+02  0.23665228003E+03  0.23764063887E+03  0.00000000000E+00 0. -1.
        -14    1    6    6    0    0  0.12863471599E+02  0.39057158144E+02  0.44460123958E+02  0.60560986833E+02  0.00000000000E+00 0.  1.
</event>
<event>
12    1  0.8196217E-002  0.2008770E+03  0.7818608E-02  0.1149614E+00
         21   -1    0    0  503  502  0.00000000000E+00  0.00000000000E+00  0.19925994466E+03  0.19925994466E+03  0.00000000000E+00 0.  1.
         21   -1    0    0  501  503 -0.00000000000E+00 -0.00000000000E+00 -0.23480357866E+03  0.23480357866E+03  0.00000000000E+00 0. -1.
          6    2    1    2  501    0 -0.90950781561E+02 -0.52839285259E+02 -0.10170302823E+03  0.22257210722E+03  0.16772239632E+03 0.  0.
         24    2    3    3    0    0 -0.44540354706E+02 -0.65319692690E+02 -0.12799136032E+01  0.11114239735E+03  0.78105626298E+02 0.  0.
         -6    2    1    2    0  502  0.90950781561E+02  0.52839285259E+02  0.66159394239E+02  0.21149141610E+03  0.17113596613E+03 0.  0.
        -24    2    5    5    0    0  0.20815678498E+02  0.86922347067E+02  0.60144116756E+02  0.13314053003E+03  0.78232340283E+02 0.  0.
          5    1    3    3  501    0 -0.46410426855E+02  0.12480407430E+02 -0.10042311463E+03  0.11142970987E+03  0.47000000000E+01 0. -1.
        -11    1    4    4    0    0 -0.54006427063E+02 -0.75886633383E+02 -0.11226092041E+02  0.93816312189E+02  0.00000000000E+00 0.  1.
         12    1    4    4    0    0  0.94660723570E+01  0.10566940693E+02  0.99461784375E+01  0.17326085161E+02  0.00000000000E+00 0. -1.
         -5    1    5    5    0  502  0.70135103063E+02 -0.34083061808E+02  0.60152774831E+01  0.78350886065E+02  0.47000000000E+01 0.  1.
         13    1    6    6    0    0 -0.24425457286E+02  0.94662644398E+01  0.20605839956E+01  0.26276589057E+02  0.00000000000E+00 0. -1.
        -14    1    6    6    0    0  0.45241135784E+02  0.77456082627E+02  0.58083532760E+02  0.10686394098E+03  0.00000000000E+00 0.  1.
</event>
<event>
12    1  0.8196217E-002  0.2438816E+03  0.7818608E-02  0.1117377E+00
         21   -1    0    0  501  502  0.00000000000E+00  0.00000000000E+00  0.39135257443E+03  0.39135257443E+03  0.00000000000E+00 0. -1.
         21   -1    0    0  502  503 -0.00000000000E+00 -0.00000000000E+00 -0.16327001496E+03  0.16327001496E+03  0.00000000000E+00 0. -1.
         -6    2    1    2    0  503 -0.17148151585E+03 -0.14749011406E+02  0.39574169934E+02  0.24707158618E+03  0.17278544544E+03 0.  0.
        -24    2    3    3    0    0 -0.34490046326E+02  0.18078698239E+02 -0.21552156364E+02  0.93439431311E+02  0.82158561662E+02 0.  0.
          6    2    1    2  501    0  0.17148151585E+03  0.14749011406E+02  0.18850838953E+03  0.30755100322E+03  0.17154813622E+03 0.  0.
         24    2    5    5    0    0  0.11790033489E+03 -0.48809528175E+02  0.16046600620E+03  0.21969261620E+03  0.78947118115E+02 0.  0.
          5    1    5    5  501    0  0.53581180954E+02  0.63558539580E+02  0.28042383335E+02  0.87858387017E+02  0.47000000000E+01 0. -1.
        -13    1    6    6    0    0  0.25480985928E+02  0.21043779381E+02  0.24950176755E+02  0.41408122568E+02  0.00000000000E+00 0.  1.
         14    1    6    6    0    0  0.92419348967E+02 -0.69853307556E+02  0.13551582944E+03  0.17828449363E+03  0.00000000000E+00 0. -1.
         -5    1    3    3    0  503 -0.13699146952E+03 -0.32827709644E+02  0.61126326298E+02  0.15363215487E+03  0.47000000000E+01 0.  1.
         11    1    4    4    0    0 -0.24265004610E+02 -0.17795956022E+02  0.21118189548E+02  0.36762269098E+02  0.00000000000E+00 0. -1.
        -12    1    4    4    0    0 -0.10225041715E+02  0.35874654261E+02 -0.42670345911E+02  0.56677162213E+02  0.00000000000E+00 0.  1.
</event>
<event>
12    1  0.8196217E-002  0.1954019E+03  0.7818608E-02  0.1154853E+00
         21   -1    0    0  503  502  0.00000000000E+00  0.00000000000E+00  0.43634374911E+03  0.43634374911E+03  0.00000000000E+00 0. -1.
         21   -1    0    0  501  503 -0.00000000000E+00 -0.00000000000E+00 -0.85185250498E+02  0.85185250498E+02  0.00000000000E+00 0. -1.
          6    2    1    2  501    0  0.47270100012E+02 -0.79301411005E+02  0.16684239387E+03  0.25291343453E+03  0.16614946533E+03 0.  0.
         24    2    3    3    0    0  0.27891086531E+02 -0.55957686994E+02  0.18951050058E+03  0.21475051174E+03  0.79337109985E+02 0.  0.
         -6    2    1    2    0  502 -0.47270100012E+02  0.79301411005E+02  0.18431610474E+03  0.26861556508E+03  0.17221706998E+03 0.  0.
        -24    2    5    5    0    0 -0.65820569239E+02  0.11370928963E+03  0.14017502846E+03  0.20946705170E+03  0.83458116811E+02 0.  0.
          5    1    3    3  501    0  0.19379013481E+02 -0.23343724011E+02 -0.22668106707E+02  0.38162922790E+02  0.47000000000E+01 0. -1.
        -13    1    4    4    0    0  0.19143715756E+01  0.19822939815E+02  0.50874344250E+02  0.54633439067E+02  0.00000000000E+00 0.  1.
         14    1    4    4    0    0  0.25976714955E+02 -0.75780626808E+02  0.13863615633E+03  0.16011707267E+03  0.00000000000E+00 0. -1.
         -5    1    5    5    0  502  0.18550469227E+02 -0.34407878623E+02  0.44141076280E+02  0.59148513380E+02  0.47000000000E+01 0.  1.
         13    1    6    6    0    0 -0.51201069144E+02  0.16059012432E+02  0.70599724993E+02  0.88677858177E+02  0.00000000000E+00 0. -1.
        -14    1    6    6    0    0 -0.14619500095E+02  0.97650277196E+02  0.69575303470E+02  0.12078919352E+03  0.00000000000E+00 0.  1.
</event>
<event>
12    1  0.8196217E-002  0.2460706E+03  0.7818608E-02  0.1116802E+00
         21   -1    0    0  501  502  0.00000000000E+00  0.00000000000E+00  0.10805742143E+03  0.10805742143E+03  0.00000000000E+00 0.  1.
         21   -1    0    0  502  503 -0.00000000000E+00 -0.00000000000E+00 -0.54901545451E+03  0.54901545451E+03  0.00000000000E+00 0.  1.
         -6    2    1    2    0  503  0.48505312317E+02  0.16927886859E+03 -0.23925313981E+03  0.33889747558E+03  0.16309915197E+03 0.  0.
        -24    2    3    3    0    0  0.42045899686E+02  0.67023365037E+02 -0.19863443119E+03  0.22858028967E+03  0.80828970220E+02 0.  0.
          6    2    1    2  501    0 -0.48505312317E+02 -0.16927886859E+03 -0.20170489327E+03  0.31817540036E+03  0.17187966940E+03 0.  0.
         24    2    5    5    0    0  0.30758651506E+02 -0.78539603551E+02 -0.14003359967E+03  0.18274339294E+03  0.81677259124E+02 0.  0.
          5    1    5    5  501    0 -0.79263963822E+02 -0.90739265038E+02 -0.61671293595E+02  0.13543200742E+03  0.47000000000E+01 0. -1.
        -11    1    6    6    0    0  0.21194554827E+02 -0.66945500308E+02 -0.38458316978E+02  0.80062171533E+02  0.00000000000E+00 0.  1.
         12    1    6    6    0    0  0.95640966790E+01 -0.11594103243E+02 -0.10157528270E+03  0.10268122141E+03  0.00000000000E+00 0. -1.
         -5    1    3    3    0  503  0.64594126311E+01  0.10225550355E+03 -0.40618708614E+02  0.11031718591E+03  0.47000000000E+01 0.  1.
         13    1    4    4    0    0 -0.18426945308E+02  0.68218159471E+00 -0.65227079463E+02  0.67783401954E+02  0.00000000000E+00 0. -1.
        -14    1    4    4    0    0  0.60472844994E+02  0.66341183442E+02 -0.13340735173E+03  0.16079688771E+03  0.00000000000E+00 0.  1.
</event>
<event>
12    1  0.8196217E-002  0.1983688E+03  0.7818608E-02  0.1151387E+00
         21   -1    0    0  501  502  0.00000000000E+00  0.00000000000E+00  0.50388307661E+02  0.50388307661E+02  0.00000000000E+00 0.  1.
         21   -1    0    0  502  503 -0.00000000000E+00 -0.00000000000E+00 -0.90528083628E+03  0.90528083628E+03  0.00000000000E+00 0.  1.
         -6    2    1    2    0  503 -0.92949302197E+02 -0.34948590249E+02 -0.60681480482E+03  0.63803297474E+03  0.17029648490E+03 0.  0.
        -24    2    3    3    0    0  0.47758547570E+01 -0.21113130408E+02 -0.40704921632E+03  0.41516528619E+03  0.78769139176E+02 0.  0.
          6    2    1    2  501    0  0.92949302197E+02  0.34948590249E+02 -0.24807772380E+03  0.31763616920E+03  0.17172420388E+03 0.  0.
         24    2    5    5    0    0  0.79837524052E+02  0.55845550474E+02 -0.84597073826E+02  0.15223781797E+03  0.80789433510E+02 0.  0.
          5    1    5    5  501    0  0.13111778145E+02 -0.20896960225E+02 -0.16348064998E+03  0.16539835123E+03  0.47000000000E+01 0. -1.
        -13    1    6    6    0    0  0.85041161751E+02  0.52256217746E+02 -0.96453164853E+02  0.13880174529E+03  0.00000000000E+00 0.  1.
         14    1    6    6    0    0 -0.52036376983E+01  0.35893327287E+01  0.11856091028E+02  0.13436072685E+02  0.00000000000E+00 0. -1.
         -5    1    3    3    0  503 -0.97725156954E+02 -0.13835459841E+02 -0.19976558850E+03  0.22286768855E+03  0.47000000000E+01 0.  1.
         13    1    4    4    0    0  0.16695636990E+02 -0.38194696770E+01 -0.15642004968E+02  0.23194933984E+02  0.00000000000E+00 0. -1.
        -14    1    4    4    0    0 -0.11919782233E+02 -0.17293660731E+02 -0.39140721136E+03  0.39197035221E+03  0.00000000000E+00 0.  1.
</event>
<event>
12    1  0.8196217E-002  0.1959269E+03  0.7818608E-02  0.1153225E+00
         21   -1    0    0  503  502  0.00000000000E+00  0.00000000000E+00  0.16242928635E+03  0.16242928635E+03  0.00000000000E+00 0.  1.
         21   -1    0    0  501  503 -0.00000000000E+00 -0.00000000000E+00 -0.31088516165E+03  0.31088516165E+03  0.00000000000E+00 0.  1.
          6    2    1    2  501    0 -0.57466043455E+02 -0.74477603820E+02 -0.19013058481E+03  0.27300438406E+03  0.17185021040E+03 0.  0.
         24    2    3    3    0    0  0.33713919529E+02 -0.27083912679E+02 -0.65160120776E+02  0.11114131079E+03  0.78970772617E+02 0.  0.
         -6    2    1    2    0  502  0.57466043455E+02  0.74477603820E+02  0.41674709514E+02  0.20031006394E+03  0.17186646177E+03 0.  0.
        -24    2    5    5    0    0  0.85500280675E+01  0.10601688614E+03  0.34683632552E+02  0.14150132268E+03  0.86642869448E+02 0.  0.
          5    1    3    3  501    0 -0.91179962984E+02 -0.47393691141E+02 -0.12497046403E+03  0.16186307327E+03  0.47000000000E+01 0. -1.
        -13    1    4    4    0    0  0.27731127536E+00 -0.26627696489E+02 -0.72212562019E+02  0.76966000515E+02  0.00000000000E+00 0.  1.
         14    1    4    4    0    0  0.33436608253E+02 -0.45621618976E+00  0.70524412426E+01  0.34175310272E+02  0.00000000000E+00 0. -1.
         -5    1    5    5    0  502  0.48916015388E+02 -0.31539282325E+02  0.69910769615E+01  0.58808741256E+02  0.47000000000E+01 0.  1.
         11    1    6    6    0    0 -0.38049195752E+02  0.46135859858E+02  0.49474446210E+01  0.60006133607E+02  0.00000000000E+00 0. -1.
        -12    1    6    6    0    0  0.46599223820E+02  0.59881026287E+02  0.29736187931E+02  0.81495189075E+02  0.00000000000E+00 0.  1.
</event>
<event>
12    1  0.8196217E-002  0.2535522E+03  0.7818608E-02  0.1111144E+00
         21   -1    0    0  503  502  0.00000000000E+00  0.00000000000E+00  0.23626550870E+03  0.23626550870E+03  0.00000000000E+00 0. -1.
         21   -1    0    0  501  503 -0.00000000000E+00 -0.00000000000E+00 -0.27251797640E+03  0.27251797640E+03  0.00000000000E+00 0. -1.
          6    2    1    2  501    0 -0.12059948349E+03  0.14100225929E+03 -0.32345955344E+02  0.25520123139E+03  0.17220782541E+03 0.  0.
         24    2    3    3    0    0  0.44493179330E+00  0.79360964220E+02  0.78655095857E+01  0.11346044107E+03  0.80703437601E+02 0.  0.
         -6    2    1    2    0  502  0.12059948349E+03 -0.14100225929E+03 -0.39065123510E+01  0.25358225371E+03  0.17280863988E+03 0.  0.
        -24    2    5    5    0    0  0.15352207798E+03 -0.13090931386E+03 -0.11413052415E+02  0.21802662238E+03  0.81847867516E+02 0.  0.
          5    1    3    3  501    0 -0.12104441528E+03  0.61641295066E+02 -0.40211464929E+02  0.14174079032E+03  0.47000000000E+01 0. -1.
        -11    1    4    4    0    0 -0.12594457054E+02  0.29976469107E+01  0.30182091874E+02  0.32841511922E+02  0.00000000000E+00 0.  1.
         12    1    4    4    0    0  0.13039388847E+02  0.76363317309E+02 -0.22316582288E+02  0.80618929148E+02  0.00000000000E+00 0. -1.
         -5    1    5    5    0  502 -0.32922594495E+02 -0.10092945424E+02  0.75065400635E+01  0.35555631331E+02  0.47000000000E+01 0.  1.
         13    1    6    6    0    0  0.82682399068E+02 -0.84072482427E+02  0.32647733971E+02  0.12235373288E+03  0.00000000000E+00 0. -1.
        -14    1    6    6    0    0  0.70839678915E+02 -0.46836831435E+02 -0.44060786386E+02  0.95672889496E+02  0.00000000000E+00 0.  1.
</event>
<event>
12    1  0.8196217E-002  0.1942060E+03  0.7818608E-02  0.1155501E+00
         21   -1    0    0  501  502  0.00000000000E+00  0.00000000000E+00  0.98692929084E+02  0.98692929084E+02  0.00000000000E+00 0.  1.
         21   -1    0    0  502  503 -0.00000000000E+00 -0.00000000000E+00 -0.51387034494E+03  0.51387034494E+03  0.00000000000E+00 0.  1.
         -6    2    1    2    0  503  0.89312210172E+02  0.20515958456E+02 -0.36527134133E+03  0.41204748914E+03  0.16721963123E+03 0.  0.
        -24    2    3    3    0    0  0.44486032051E+02  0.53624252681E+02 -0.33083937519E+03  0.34637256482E+03  0.75264161213E+02 0.  0.
          6    2    1    2  501    0 -0.89312210172E+02 -0.20515958456E+02 -0.49906074523E+02  0.20051578488E+03  0.17122613199E+03 0.  0.
         24    2    5    5    0    0 -0.98141906138E+02  0.32969543309E+02 -0.56863629324E+01  0.13040062730E+03  0.79076952082E+02 0.  0.
          5    1    5    5  501    0  0.88296959660E+01 -0.53485501765E+02 -0.44219711591E+02  0.70115157584E+02  0.47000000000E+01 0. -1.
        -13    1    6    6    0    0 -0.38105344774E+02 -0.81136654243E+01  0.30189779789E+02  0.49287642170E+02  0.00000000000E+00 0.  1.
         14    1    6    6    0    0 -0.60036561364E+02  0.41083208733E+02 -0.35876142721E+02  0.81112985130E+02  0.00000000000E+00 0. -1.
         -5    1    3    3    0  503  0.44826178121E+02 -0.33108294225E+02 -0.34431966143E+02  0.65674924316E+02  0.47000000000E+01 0.  1.
         11    1    4    4    0    0  0.10594528858E+02  0.56268495653E+02 -0.12179738464E+03  0.13458451081E+03  0.00000000000E+00 0. -1.
        -12    1    4    4    0    0  0.33891503193E+02 -0.26442429727E+01 -0.20904199055E+03  0.21178805402E+03  0.00000000000E+00 0.  1.
</event>
<event>
12    1  0.8196217E-002  0.3177937E+03  0.7818608E-02  0.1077130E+00
         21   -1    0    0  501  502  0.00000000000E+00  0.00000000000E+00  0.97364331361E+02  0.97364331361E+02  0.00000000000E+00 0. -1.
         21   -1    0    0  502  503 -0.00000000000E+00 -0.00000000000E+00 -0.10273937555E+04  0.10273937555E+04  0.00000000000E+00 0.  1.
         -6    2    1    2    0  503  0.11200668675E+03  0.24249945649E+03 -0.43776578112E+03  0.54095446643E+03  0.17216669642E+03 0.  0.
        -24    2    3    3    0    0  0.12345027128E+03  0.16328225593E+03 -0.38746353712E+03  0.44630391839E+03  0.84605735013E+02 0.  0.
          6    2    1    2  501    0 -0.11200668675E+03 -0.24249945649E+03 -0.49226364302E+03  0.58380362043E+03  0.16477769484E+03 0.  0.
         24    2    5    5    0    0 -0.20526039297E+02 -0.16495869401E+03 -0.36138548146E+03  0.40622979950E+03  0.82404458485E+02 0.  0.
          5    1    5    5  501    0 -0.91480647458E+02 -0.77540762481E+02 -0.13087816156E+03  0.17757382093E+03  0.47000000000E+01 0. -1.
        -13    1    6    6    0    0 -0.47493546921E+02 -0.84017612874E+02 -0.23170725899E+03  0.25100368551E+03  0.00000000000E+00 0.  1.
         14    1    6    6    0    0  0.26967507624E+02 -0.80941081132E+02 -0.12967822247E+03  0.15522611400E+03  0.00000000000E+00 0. -1.
         -5    1    3    3    0  503 -0.11443584526E+02  0.79217200561E+02 -0.50302243997E+02  0.94650548032E+02  0.47000000000E+01 0.  1.
         11    1    4    4    0    0 -0.10670075221E+02  0.30025961433E+02 -0.45385089455E+02  0.55454622982E+02  0.00000000000E+00 0. -1.
        -12    1    4    4    0    0  0.13412034650E+03  0.13325629449E+03 -0.34207844767E+03  0.39084929541E+03  0.00000000000E+00 0.  1.
</event>
<event>
12    1  0.8196217E-002  0.1898967E+03  0.7818608E-02  0.1158699E+00
         21   -1    0    0  503  502  0.00000000000E+00  0.00000000000E+00  0.29938646525E+03  0.29938646525E+03  0.00000000000E+00 0. -1.
         21   -1    0    0  501  503 -0.00000000000E+00 -0.00000000000E+00 -0.12813982337E+03  0.12813982337E+03  0.00000000000E+00 0. -1.
          6    2    1    2  501    0  0.14815041175E+02 -0.77170705657E+02  0.13949373360E+03  0.23562524481E+03  0.17287553622E+03 0.  0.
         24    2    3    3    0    0 -0.11222877734E+02  0.24220464499E+02  0.86148220061E+02  0.11804133256E+03  0.76155475750E+02 0.  0.
         -6    2    1    2    0  502 -0.14815041175E+02  0.77170705657E+02  0.31752908271E+02  0.19190104381E+03  0.17217131055E+03 0.  0.
        -24    2    5    5    0    0 -0.56106253703E+01  0.12187521420E+03  0.15958944508E+02  0.14337523989E+03  0.73598400463E+02 0.  0.
          5    1    3    3  501    0  0.26037918909E+02 -0.10139117016E+03  0.53345513544E+02  0.11758391226E+03  0.47000000000E+01 0. -1.
        -11    1    4    4    0    0 -0.45625223562E+01  0.38284661968E+02  0.93375561899E+01  0.39670163951E+02  0.00000000000E+00 0.  1.
         12    1    4    4    0    0 -0.66603553782E+01 -0.14064197469E+02  0.76810663871E+02  0.78371168605E+02  0.00000000000E+00 0. -1.
         -5    1    5    5    0  502 -0.92044158045E+01 -0.44704508544E+02  0.15793963763E+02  0.48525803917E+02  0.47000000000E+01 0.  1.
         13    1    6    6    0    0 -0.97271468515E+01  0.51978232470E+02 -0.28857932408E+02  0.60242296598E+02  0.00000000000E+00 0. -1.
        -14    1    6    6    0    0  0.41165214813E+01  0.69896981731E+02  0.44816876916E+02  0.83132943294E+02  0.00000000000E+00 0.  1.
</event>
<event>
12    1  0.8196217E-002  0.2359360E+03  0.7818608E-02  0.1122824E+00
         21   -1    0    0  501  502  0.00000000000E+00  0.00000000000E+00  0.31586166415E+03  0.31586166415E+03  0.00000000000E+00 0.  1.
         21   -1    0    0  502  503 -0.00000000000E+00 -0.00000000000E+00 -0.25405317659E+03  0.25405317659E+03  0.00000000000E+00 0.  1.
         -6    2    1    2    0  503 -0.67449402201E+02  0.14333832605E+03 -0.12817749633E+03  0.26699489571E+03  0.17251523468E+03 0.  0.
        -24    2    3    3    0    0 -0.43901688520E+02  0.19121714831E+02 -0.70886509198E+02  0.12811146067E+03  0.95365879299E+02 0.  0.
          6    2    1    2  501    0  0.67449402201E+02 -0.14333832605E+03  0.18998598390E+03  0.30291994504E+03  0.17484427772E+03 0.  0.
         24    2    5    5    0    0  0.99127841789E+02 -0.60819859351E+02  0.77874369861E+02  0.16007763729E+03  0.77685572467E+02 0.  0.
          5    1    5    5  501    0 -0.31678439588E+02 -0.82518466698E+02  0.11211161404E+03  0.14284230775E+03  0.47000000000E+01 0. -1.
        -11    1    6    6    0    0 -0.69969565762E+01 -0.20517261011E+02 -0.12338259300E+01  0.21712616773E+02  0.00000000000E+00 0.  1.
         12    1    6    6    0    0  0.10612479837E+03 -0.40302598340E+02  0.79108195791E+02  0.13836502052E+03  0.00000000000E+00 0. -1.
         -5    1    3    3    0  503 -0.23547713680E+02  0.12421661122E+03 -0.57290987137E+02  0.13888343504E+03  0.47000000000E+01 0.  1.
         11    1    4    4    0    0 -0.42423838352E+02 -0.12894208028E+02 -0.82795099067E+02  0.93920557338E+02  0.00000000000E+00 0. -1.
        -12    1    4    4    0    0 -0.14778501681E+01  0.32015922859E+02  0.11908589869E+02  0.34190903327E+02  0.00000000000E+00 0.  1.
</event>
<event>
12    1  0.8196217E-002  0.1993529E+03  0.7818608E-02  0.1153858E+00
         21   -1    0    0  501  502  0.00000000000E+00  0.00000000000E+00  0.40537051128E+02  0.40537051128E+02  0.00000000000E+00 0. -1.
         21   -1    0    0  502  503 -0.00000000000E+00 -0.00000000000E+00 -0.98217922818E+03  0.98217922818E+03  0.00000000000E+00 0. -1.
         -6    2    1    2    0  503  0.50356889719E+02  0.36604751845E+02 -0.63440811613E+03  0.66499265827E+03  0.18938282269E+03 0.  0.
        -24    2    3    3    0    0  0.66762081055E+00  0.30792108080E+02 -0.59475363497E+03  0.60098189239E+03  0.80614818909E+02 0.  0.
          6    2    1    2  501    0 -0.50356889719E+02 -0.36604751845E+02 -0.30723406091E+03  0.35772362104E+03  0.17233019661E+03 0.  0.
         24    2    5    5    0    0 -0.35545760086E+02  0.45462686121E+02 -0.21034252387E+03  0.22979983949E+03  0.72343845566E+02 0.  0.
          5    1    5    5  501    0 -0.14811129634E+02 -0.82067437966E+02 -0.96891537042E+02  0.12792378155E+03  0.47000000000E+01 0. -1.
        -13    1    6    6    0    0  0.59835862623E+01  0.42959410351E+02 -0.61532270213E+02  0.75283029428E+02  0.00000000000E+00 0.  1.
         14    1    6    6    0    0 -0.41529346348E+02  0.25032757700E+01 -0.14881025366E+03  0.15451681006E+03  0.00000000000E+00 0. -1.
         -5    1    3    3    0  503  0.49689268909E+02  0.58126437650E+01 -0.39654481163E+02  0.64010765880E+02  0.47000000000E+01 0.  1.
         11    1    4    4    0    0  0.25396230482E+02  0.49018860046E+02 -0.35470601926E+03  0.35897656924E+03  0.00000000000E+00 0. -1.
        -12    1    4    4    0    0 -0.24728609671E+02 -0.18226751966E+02 -0.24004761571E+03  0.24200532315E+03  0.00000000000E+00 0.  1.
</event>
<event>
12    1  0.8196217E-002  0.2121497E+03  0.7818608E-02  0.1139948E+00
         21   -1    0    0  501  502  0.00000000000E+00  0.00000000000E+00  0.34238798067E+03  0.34238798067E+03  0.00000000000E+00 0.  1.
         21   -1    0    0  502  503 -0.00000000000E+00 -0.00000000000E+00 -0.13418765563E+03  0.13418765563E+03  0.00000000000E+00 0. -1.
         -6    2    1    2    0  503 -0.94120897654E+02 -0.83430780646E+02  0.68762879511E+02  0.22301532284E+03  0.17084514067E+03 0.  0.
        -24    2    3    3    0    0 -0.81903586693E+02 -0.16583367519E+02 -0.12302478482E+02  0.11713084997E+03  0.81148502433E+02 0.  0.
          6    2    1    2  501    0  0.94120897654E+02  0.83430780646E+02  0.13943744553E+03  0.25356031346E+03  0.17038366357E+03 0.  0.
         24    2    5    5    0    0  0.22172067769E+00  0.90953496734E+02  0.62600266500E+02  0.13190634199E+03  0.72165794958E+02 0.  0.
          5    1    5    5  501    0  0.93899176976E+02 -0.75227160875E+01  0.76837179030E+02  0.12165397147E+03  0.47000000000E+01 0. -1.
        -13    1    6    6    0    0  0.44068347227E+01  0.46704432341E+02  0.72515960160E+02  0.86367173571E+02  0.00000000000E+00 0.  1.
         14    1    6    6    0    0 -0.41851140450E+01  0.44249064392E+02 -0.99156936600E+01  0.45539168415E+02  0.00000000000E+00 0. -1.
         -5    1    3    3    0  503 -0.12217310961E+02 -0.66847413127E+02  0.81065357992E+02  0.10588447287E+03  0.47000000000E+01 0.  1.
         11    1    4    4    0    0 -0.50798066596E+02 -0.33721635261E+02 -0.39282259215E+02  0.72530601429E+02  0.00000000000E+00 0. -1.
        -12    1    4    4    0    0 -0.31105520097E+02  0.17138267742E+02  0.26979780734E+02  0.44600248544E+02  0.00000000000E+00 0.  1.
</event>
<event>
12    1  0.8196217E-002  0.1749712E+03  0.7818608E-02  0.1172874E+00
         21   -1    0    0  501  502  0.00000000000E+00  0.00000000000E+00  0.55453169916E+03  0.55453169916E+03  0.00000000000E+00 0.  1.
         21   -1    0    0  502  503 -0.00000000000E+00 -0.00000000000E+00 -0.12125814072E+03  0.12125814072E+03  0.00000000000E+00 0.  1.
         -6    2    1    2    0  503  0.30769426139E+02 -0.21893555826E+00 -0.32884097599E+02  0.17803453618E+03  0.17224438070E+03 0.  0.
        -24    2    3    3    0    0  0.27516151491E+02  0.42979613231E+02  0.29943385444E+02  0.10157486682E+03  0.82561864632E+02 0.  0.
          6    2    1    2  501    0 -0.30769426139E+02  0.21893555826E+00  0.46615765604E+03  0.49775530369E+03  0.17178642714E+03 0.  0.
         24    2    5    5    0    0 -0.11779353061E+02  0.65335915685E+02  0.32545778337E+03  0.34148826255E+03  0.79271241123E+02 0.  0.
          5    1    5    5  501    0 -0.18990073078E+02 -0.65116980127E+02  0.14069987267E+03  0.15626704114E+03  0.47000000000E+01 0. -1.
        -11    1    6    6    0    0 -0.32476630958E+02  0.18726270169E+02  0.23210980498E+03  0.23511777117E+03  0.00000000000E+00 0.  1.
         12    1    6    6    0    0  0.20697277897E+02  0.46609645516E+02  0.93347978389E+02  0.10637049138E+03  0.00000000000E+00 0. -1.
         -5    1    3    3    0  503  0.32532746482E+01 -0.43198548790E+02 -0.62827483043E+02  0.76459669363E+02  0.47000000000E+01 0.  1.
         11    1    4    4    0    0  0.53659538640E+02  0.32500148138E+02  0.33267341783E+01  0.62822550699E+02  0.00000000000E+00 0. -1.
        -12    1    4    4    0    0 -0.26143387149E+02  0.10479465093E+02  0.26616651266E+02  0.38752316123E+02  0.00000000000E+00 0.  1.
</event>
<event>
12    1  0.8196217E-002  0.1726884E+03  0.7818608E-02  0.1176103E+00
         21   -1    0    0  503  502  0.00000000000E+00  0.00000000000E+00  0.87046867162E+02  0.87046867162E+02  0.00000000000E+00 0. -1.
         21   -1    0    0  501  503 -0.00000000000E+00 -0.00000000000E+00 -0.34473939368E+03  0.34473939368E+03  0.00000000000E+00 0. -1.
          6    2    1    2  501    0 -0.97050263019E+01  0.39339108114E+01 -0.93531802368E+02  0.19639118292E+03  0.17237063406E+03 0.  0.
         24    2    3    3    0    0  0.45827432345E+02 -0.46276645057E+02 -0.48075201895E+02  0.10867945959E+03  0.72514263882E+02 0.  0.
         -6    2    1    2    0  502  0.97050263019E+01 -0.39339108114E+01 -0.16416072415E+03  0.23539507792E+03  0.16838181661E+03 0.  0.
        -24    2    5    5    0    0  0.19505722099E+02  0.17008087924E+02 -0.18508162988E+03  0.20386104478E+03  0.81451627432E+02 0.  0.
          5    1    3    3  501    0 -0.55532458647E+02  0.50210555868E+02 -0.45456600473E+02  0.87711723335E+02  0.47000000000E+01 0. -1.
        -13    1    4    4    0    0  0.30238750102E+02 -0.62889356068E+02 -0.49957084134E+02  0.85820530000E+02  0.00000000000E+00 0.  1.
         14    1    4    4    0    0  0.15588682243E+02  0.16612711011E+02  0.18818822389E+01  0.22858929589E+02  0.00000000000E+00 0. -1.
         -5    1    5    5    0  502 -0.98006957968E+01 -0.20941998735E+02  0.20920905731E+02  0.31534033134E+02  0.47000000000E+01 0.  1.
         11    1    6    6    0    0  0.17018003226E+02  0.19920288489E+02 -0.89478618105E+01  0.27685638123E+02  0.00000000000E+00 0. -1.
        -12    1    6    6    0    0  0.24877188726E+01 -0.29122005650E+01 -0.17613376807E+03  0.17617540666E+03  0.00000000000E+00 0.  1.
</event>
<event>
12    1  0.8196217E-002  0.1834526E+03  0.7818608E-02  0.1166786E+00
         21   -1    0    0  503  502  0.00000000000E+00  0.00000000000E+00  0.23447514174E+03  0.23447514174E+03  0.00000000000E+00 0.  1.
         21   -1    0    0  501  503 -0.00000000000E+00 -0.00000000000E+00 -0.13805255268E+03  0.13805255268E+03  0.00000000000E+00 0.  1.
          6    2    1    2  501    0  0.21550495988E+02  0.15381908255E+02  0.68127408468E+02  0.18690585354E+03  0.17202158971E+03 0.  0.
         24    2    3    3    0    0  0.54456972882E+01  0.72327867432E+02  0.14424973434E+02  0.10685431804E+03  0.77128395545E+02 0.  0.
         -6    2    1    2    0  502 -0.21550495988E+02 -0.15381908255E+02  0.28295180585E+02  0.18562184087E+03  0.18153188036E+03 0.  0.
        -24    2    5    5    0    0  0.38582682526E+02  0.18301713798E+02 -0.30226427823E+02  0.95082047393E+02  0.79393845345E+02 0.  0.
          5    1    3    3  501    0  0.16104798699E+02 -0.56945959177E+02  0.53702435035E+02  0.80051535503E+02  0.47000000000E+01 0. -1.
        -11    1    4    4    0    0 -0.27609084474E+02  0.33241682276E+02 -0.17394322761E+02  0.46581471106E+02  0.00000000000E+00 0.  1.
         12    1    4    4    0    0  0.33054781762E+02  0.39086185156E+02  0.31819296195E+02  0.60272846936E+02  0.00000000000E+00 0. -1.
         -5    1    5    5    0  502 -0.60133178514E+02 -0.33683622052E+02  0.58521608407E+02  0.90539793480E+02  0.47000000000E+01 0.  1.
         13    1    6    6    0    0 -0.18090302365E+02  0.10455674328E+02 -0.31563613091E+02  0.37852897335E+02  0.00000000000E+00 0. -1.
        -14    1    6    6    0    0  0.56672984892E+02  0.78460394702E+01  0.13371852680E+01  0.57229150058E+02  0.00000000000E+00 0.  1.
</event>
<event>
12    1  0.8196217E-002  0.1908021E+03  0.7818608E-02  0.1157882E+00
         21   -1    0    0  501  502  0.00000000000E+00  0.00000000000E+00  0.18525395962E+03  0.18525395962E+03  0.00000000000E+00 0. -1.
         21   -1    0    0  502  503 -0.00000000000E+00 -0.00000000000E+00 -0.26524366407E+03  0.26524366407E+03  0.00000000000E+00 0. -1.
         -6    2    1    2    0  503 -0.30380712568E+02  0.75941478675E+02 -0.15514466280E+03  0.24542763019E+03  0.17168214639E+03 0.  0.
        -24    2    3    3    0    0  0.52353250287E+01  0.90022987246E+02 -0.42118807414E+02  0.12599679246E+03  0.77263516037E+02 0.  0.
          6    2    1    2  501    0  0.30380712568E+02 -0.75941478675E+02  0.75154958349E+02  0.20506999350E+03  0.17238137542E+03 0.  0.
         24    2    5    5    0    0  0.12619110630E+02 -0.50327313347E+02  0.11788577164E+03  0.15197034780E+03  0.80658855898E+02 0.  0.
          5    1    5    5  501    0  0.17761601938E+02 -0.25614165328E+02 -0.42730813290E+02  0.53099645698E+02  0.47000000000E+01 0. -1.
        -13    1    6    6    0    0 -0.15862231792E+02 -0.24026762336E+02  0.98314982674E+00  0.28807330480E+02  0.00000000000E+00 0.  1.
         14    1    6    6    0    0  0.28481342423E+02 -0.26300551011E+02  0.11690262181E+03  0.12316301732E+03  0.00000000000E+00 0. -1.
         -5    1    3    3    0  503 -0.35616037597E+02 -0.14081508571E+02 -0.11302585538E+03  0.11943083774E+03  0.47000000000E+01 0.  1.
         11    1    4    4    0    0 -0.22768619493E+02  0.96782034368E+01  0.94731379348E+01  0.26491847760E+02  0.00000000000E+00 0. -1.
        -12    1    4    4    0    0  0.28003944522E+02  0.80344783809E+02 -0.51591945348E+02  0.99504944696E+02  0.00000000000E+00 0.  1.
</event>
<event>
12    1  0.8196217E-002  0.3651509E+03  0.7818608E-02  0.1056860E+00
         21   -1    0    0  503  502  0.00000000000E+00  0.00000000000E+00  0.56171973798E+03  0.56171973798E+03  0.00000000000E+00 0. -1.
         21   -1    0    0  501  503 -0.00000000000E+00 -0.00000000000E+00 -0.23612491092E+03  0.23612491092E+03  0.00000000000E+00 0.  1.
          6    2    1    2  501    0  0.30322400050E+03 -0.10746568074E+03  0.18432970200E+03  0.40632069066E+03  0.16620889747E+03 0.  0.
         24    2    3    3    0    0  0.19973828980E+03 -0.16893976643E+02  0.68404869281E+02  0.22639519845E+03  0.79967298837E+02 0.  0.
         -6    2    1    2    0  502 -0.30322400050E+03  0.10746568074E+03  0.14126512505E+03  0.39152395824E+03  0.17274694585E+03 0.  0.
        -24    2    5    5    0    0 -0.90979601975E+02 -0.23628163018E+01  0.79279782817E+02  0.14459429999E+03  0.79620077561E+02 0.  0.
          5    1    3    3  501    0  0.10348571071E+03 -0.90571704099E+02  0.11592483272E+03  0.17992549221E+03  0.47000000000E+01 0. -1.
        -11    1    4    4    0    0  0.64897516764E+02  0.68155703842E+01 -0.13806429850E+02  0.66699004393E+02  0.00000000000E+00 0.  1.
         12    1    4    4    0    0  0.13484077303E+03 -0.23709547027E+02  0.82211299131E+02  0.15969619406E+03  0.00000000000E+00 0. -1.
         -5    1    5    5    0  502 -0.21224439853E+03  0.10982849704E+03  0.61985342238E+02  0.24692965825E+03  0.47000000000E+01 0.  1.
         13    1    6    6    0    0 -0.99682326921E+01  0.10912200045E+02  0.57910452190E+02  0.59766731930E+02  0.00000000000E+00 0. -1.
        -14    1    6    6    0    0 -0.81011369283E+02 -0.13275016347E+02  0.21369330627E+02  0.84827568063E+02  0.00000000000E+00 0.  1.
</event>
<event>
12    1  0.8196217E-002  0.1826623E+03  0.7818608E-02  0.1165683E+00
         21   -1    0    0  503  502  0.00000000000E+00  0.00000000000E+00  0.24441024229E+03  0.24441024229E+03  0.00000000000E+00 0. -1.
         21   -1    0    0  501  503 -0.00000000000E+00 -0.00000000000E+00 -0.18679621085E+03  0.18679621085E+03  0.00000000000E+00 0. -1.
          6    2    1    2  501    0 -0.40281979137E+01  0.58867578399E+02  0.14205296096E+03  0.22997168347E+03  0.17095705109E+03 0.  0.
         24    2    3    3    0    0  0.29249405636E+02 -0.18448082554E+02  0.37654737598E+02  0.95784540396E+02  0.80999626143E+02 0.  0.
         -6    2    1    2    0  502  0.40281979137E+01 -0.58867578399E+02 -0.84438929516E+02  0.20123476967E+03  0.17286955065E+03 0.  0.
        -24    2    5    5    0    0  0.40465656136E+02 -0.86294914399E+02 -0.26539826368E+02  0.12738124391E+03  0.80233019004E+02 0.  0.
          5    1    3    3  501    0 -0.33277603550E+02  0.77315660952E+02  0.10439822336E+03  0.13418714307E+03  0.47000000000E+01 0. -1.
        -13    1    4    4    0    0  0.49084161242E+01 -0.41070864655E+02 -0.50539190778E+01  0.41670739979E+02  0.00000000000E+00 0.  1.
         14    1    4    4    0    0  0.24340989512E+02  0.22622782101E+02  0.42708656676E+02  0.54113800417E+02  0.00000000000E+00 0. -1.
         -5    1    5    5    0  502 -0.36437458222E+02  0.27427336000E+02 -0.57899103148E+02  0.73853525759E+02  0.47000000000E+01 0.  1.
         13    1    6    6    0    0  0.14406719453E+02 -0.37886945212E+02  0.28529481264E+02  0.49567181523E+02  0.00000000000E+00 0. -1.
        -14    1    6    6    0    0  0.26058936683E+02 -0.48407969186E+02 -0.55069307633E+02  0.77814062386E+02  0.00000000000E+00 0.  1.
</event>
<event>
12    1  0.8196217E-002  0.2231292E+03  0.7818608E-02  0.1131600E+00
         21   -1    0    0  501  502  0.00000000000E+00  0.00000000000E+00  0.11776530216E+04  0.11776530216E+04  0.00000000000E+00 0. -1.
         21   -1    0    0  502  503 -0.00000000000E+00 -0.00000000000E+00 -0.46061745012E+02  0.46061745012E+02  0.00000000000E+00 0.  1.
         -6    2    1    2    0  503 -0.36512312750E+02  0.13956087054E+03  0.38951853636E+03  0.44882214751E+03  0.17001836478E+03 0.  0.
        -24    2    3    3    0    0 -0.56421947332E+01  0.11502941892E+03  0.38487816578E+03  0.40884241084E+03  0.75876958495E+02 0.  0.
          6    2    1    2  501    0  0.36512312750E+02 -0.13956087054E+03  0.74207274020E+03  0.77489261907E+03  0.17022406930E+03 0.  0.
         24    2    5    5    0    0  0.23480415244E+02 -0.17035986956E+03  0.66437478405E+03  0.69017266225E+03  0.73284616267E+02 0.  0.
          5    1    5    5  501    0  0.13031897506E+02  0.30798999018E+02  0.77697956150E+02  0.84719956817E+02  0.47000000000E+01 0. -1.
        -13    1    6    6    0    0  0.43365719146E+02 -0.11752568042E+03  0.37584418276E+03  0.39617132767E+03  0.00000000000E+00 0.  1.
         14    1    6    6    0    0 -0.19885303902E+02 -0.52834189139E+02  0.28853060129E+03  0.29400133458E+03  0.00000000000E+00 0. -1.
         -5    1    3    3    0  503 -0.30870118017E+02  0.24531451624E+02  0.46403705759E+01  0.39979736671E+02  0.47000000000E+01 0.  1.
         13    1    4    4    0    0 -0.90973947059E+01  0.25915501031E+02  0.21714308049E+03  0.21887323544E+03  0.00000000000E+00 0. -1.
        -14    1    4    4    0    0  0.34551999727E+01  0.89113917888E+02  0.16773508529E+03  0.18996917541E+03  0.00000000000E+00 0.  1.
</event>
<event>
12    1  0.8196217E-002  0.2145209E+03  0.7818608E-02  0.1138292E+00
         21   -1    0    0  501  502  0.00000000000E+00  0.00000000000E+00  0.42514490551E+03  0.42514490551E+03  0.00000000000E+00 0.  1.
         21   -1    0    0  502  503 -0.00000000000E+00 -0.00000000000E+00 -0.26755595742E+03  0.26755595742E+03  0.00000000000E+00 0. -1.
         -6    2    1    2    0  503  0.54197197073E+01  0.12784942364E+03 -0.18912399654E+03  0.28498886880E+03  0.17051662905E+03 0.  0.
        -24    2    3    3    0    0 -0.79408069034E+01  0.15547503865E+03 -0.18355468233E+03  0.25344864786E+03  0.79425132290E+02 0.  0.
          6    2    1    2  501    0 -0.54197197073E+01 -0.12784942364E+03  0.34671294463E+03  0.40771199413E+03  0.17217536321E+03 0.  0.
         24    2    5    5    0    0 -0.68038811170E+02 -0.54078310263E+02  0.19956847771E+03  0.23153903386E+03  0.78924035885E+02 0.  0.
          5    1    5    5  501    0  0.62619091463E+02 -0.73771113380E+02  0.14714446692E+03  0.17617296027E+03  0.47000000000E+01 0. -1.
        -13    1    6    6    0    0 -0.60066703390E+02 -0.42726704354E+02  0.20405445732E+03  0.21696036890E+03  0.00000000000E+00 0.  1.
         14    1    6    6    0    0 -0.79721077802E+01 -0.11351605909E+02 -0.44859796062E+01  0.14578664966E+02  0.00000000000E+00 0. -1.
         -5    1    3    3    0  503  0.13360526611E+02 -0.27625615010E+02 -0.55693142140E+01  0.31540220938E+02  0.47000000000E+01 0.  1.
         13    1    4    4    0    0  0.28954993047E+02  0.11506418979E+03 -0.11020349938E+03  0.16193508165E+03  0.00000000000E+00 0. -1.
        -14    1    4    4    0    0 -0.36895799950E+02  0.40410848859E+02 -0.73351182953E+02  0.91513566208E+02  0.00000000000E+00 0.  1.
</event>
<event>
12    1  0.8196217E-002  0.2048412E+03  0.7818608E-02  0.1146077E+00
         21   -1    0    0  501  502  0.00000000000E+00  0.00000000000E+00  0.28940849738E+03  0.28940849738E+03  0.00000000000E+00 0. -1.
         21   -1    0    0  502  503 -0.00000000000E+00 -0.00000000000E+00 -0.14685251870E+03  0.14685251870E+03  0.00000000000E+00 0.  1.
         -6    2    1    2    0  503 -0.11172587193E+03  0.59159527667E+01  0.10329099372E+03  0.22941002417E+03  0.17158747289E+03 0.  0.
        -24    2    3    3    0    0 -0.10043213354E+03  0.45416327822E+02  0.12332662805E+03  0.18346065204E+03  0.79366853145E+02 0.  0.
          6    2    1    2  501    0  0.11172587193E+03 -0.59159527667E+01  0.39264984962E+02  0.20685099190E+03  0.16949314102E+03 0.  0.
         24    2    5    5    0    0  0.76512832186E+02 -0.68702858007E+02  0.33240354209E+02  0.13445941910E+03  0.80000737799E+02 0.  0.
          5    1    5    5  501    0  0.35213039745E+02  0.62786905240E+02  0.60246307536E+01  0.72391572807E+02  0.47000000000E+01 0. -1.
        -13    1    6    6    0    0  0.35699069112E+01  0.95833511419E+01 -0.14128598946E+02  0.17441392222E+02  0.00000000000E+00 0.  1.
         14    1    6    6    0    0  0.72942925275E+02 -0.78286209149E+02  0.47368953155E+02  0.11701802687E+03  0.00000000000E+00 0. -1.
         -5    1    3    3    0  503 -0.11293738390E+02 -0.39500375056E+02 -0.20035634337E+02  0.45949372136E+02  0.47000000000E+01 0.  1.
         11    1    4    4    0    0 -0.58982405163E+02  0.32606299776E+02  0.18313786474E+02  0.69839026904E+02  0.00000000000E+00 0. -1.
        -12    1    4    4    0    0 -0.41449728378E+02  0.12810028046E+02  0.10501284158E+03  0.11362162513E+03  0.00000000000E+00 0.  1.
</event>
<event>
12    1  0.8196217E-002  0.2020653E+03  0.7818608E-02  0.1148378E+00
         21   -1    0    0  501  502  0.00000000000E+00  0.00000000000E+00  0.29893766051E+03  0.29893766051E+03  0.00000000000E+00 0.  1.
         21   -1    0    0  502  503 -0.00000000000E+00 -0.00000000000E+00 -0.23695264519E+03  0.23695264519E+03  0.00000000000E+00 0. -1.
         -6    2    1    2    0  503 -0.69221662956E+02 -0.80073004662E+02 -0.14450518193E+03  0.24698102815E+03  0.17004280627E+03 0.  0.
        -24    2    3    3    0    0 -0.85932345483E+02 -0.18725092012E+02 -0.41832919306E+02  0.12612368741E+03  0.80138594435E+02 0.  0.
          6    2    1    2  501    0  0.69221662956E+02  0.80073004662E+02  0.20649019725E+03  0.28890927755E+03  0.17212508358E+03 0.  0.
         24    2    5    5    0    0  0.65886081917E+02  0.11059724623E+03  0.20893916637E+03  0.25774932129E+03  0.78780776302E+02 0.  0.
          5    1    5    5  501    0  0.33355810393E+01 -0.30524241572E+02 -0.24489691258E+01  0.31159956261E+02  0.47000000000E+01 0. -1.
        -13    1    6    6    0    0  0.36458703469E+02  0.21035802038E+02  0.12366291347E+03  0.13063023461E+03  0.00000000000E+00 0.  1.
         14    1    6    6    0    0  0.29427378447E+02  0.89561444196E+02  0.85276252902E+02  0.12711908668E+03  0.00000000000E+00 0. -1.
         -5    1    3    3    0  503  0.16710682527E+02 -0.61347912650E+02 -0.10267226263E+03  0.12085734074E+03  0.47000000000E+01 0.  1.
         13    1    4    4    0    0 -0.16884311290E+02  0.14078541372E+01 -0.50886287708E+02  0.53632791254E+02  0.00000000000E+00 0. -1.
        -14    1    4    4    0    0 -0.69048034193E+02 -0.20132946149E+02  0.90533684016E+01  0.72490896159E+02  0.00000000000E+00 0.  1.
</event>
<event>
12    1  0.8196217E-002  0.2102422E+03  0.7818608E-02  0.1141481E+00
         21   -1    0    0  503  502  0.00000000000E+00  0.00000000000E+00  0.47045105052E+03  0.47045105052E+03  0.00000000000E+00 0. -1.
         21   -1    0    0  501  503 -0.00000000000E+00 -0.00000000000E+00 -0.10509521633E+03  0.10509521633E+03  0.00000000000E+00 0.  1.
          6    2    1    2  501    0 -0.71430710370E+02 -0.92501421561E+02  0.27758455623E+03  0.34821685243E+03  0.17476536007E+03 0.  0.
         24    2    3    3    0    0 -0.67622761162E+02 -0.13287035747E+03  0.21982028223E+03  0.27748529784E+03  0.80310424708E+02 0.  0.
         -6    2    1    2    0  502  0.71430710370E+02  0.92501421561E+02  0.87771277953E+02  0.22732941442E+03  0.17411492197E+03 0.  0.
        -24    2    5    5    0    0 -0.95697727373E+01  0.23085328403E+01  0.66840005520E+02  0.10421953015E+03  0.79354988831E+02 0.  0.
          5    1    3    3  501    0 -0.38079492076E+01  0.40368935907E+02  0.57764274006E+02  0.70731554591E+02  0.47000000000E+01 0. -1.
        -11    1    4    4    0    0 -0.59800116674E+02 -0.10886295517E+03  0.11365507075E+03  0.16835876001E+03  0.00000000000E+00 0.  1.
         12    1    4    4    0    0 -0.78226444889E+01 -0.24007402297E+02  0.10616521147E+03  0.10912653783E+03  0.00000000000E+00 0. -1.
         -5    1    5    5    0  502  0.81000483107E+02  0.90192888721E+02  0.20931272432E+02  0.12310988427E+03  0.47000000000E+01 0.  1.
         13    1    6    6    0    0 -0.26362389782E+02 -0.28434212124E+02  0.14832711558E+02  0.41514929198E+02  0.00000000000E+00 0. -1.
        -14    1    6    6    0    0  0.16792617045E+02  0.30742744964E+02  0.52007293962E+02  0.62704600951E+02  0.00000000000E+00 0.  1.
</event>
<event>
12    1  0.8196217E-002  0.2423592E+03  0.7818608E-02  0.1118310E+00
         21   -1    0    0  503  502  0.00000000000E+00  0.00000000000E+00  0.44099201028E+03  0.44099201028E+03  0.00000000000E+00 0. -1.
         21   -1    0    0  501  503 -0.00000000000E+00 -0.00000000000E+00 -0.16458631203E+03  0.16458631203E+03  0.00000000000E+00 0. -1.
          6    2    1    2  501    0 -0.47652784869E+02  0.16346001601E+03  0.53017703112E+01  0.24193654919E+03  0.17179994274E+03 0.  0.
         24    2    3    3    0    0  0.39128210066E+02  0.97722118025E+02  0.14865193113E+02  0.13254751240E+03  0.79165901145E+02 0.  0.
         -6    2    1    2    0  502  0.47652784869E+02 -0.16346001601E+03  0.27110392793E+03  0.36364177312E+03  0.17247618582E+03 0.  0.
        -24    2    5    5    0    0 -0.23789617771E+02 -0.72468950713E+02  0.43422715016E+02  0.10821230032E+03  0.63298301952E+02 0.  0.
          5    1    3    3  501    0 -0.86780994935E+02  0.65737897981E+02 -0.95634228017E+01  0.10938903678E+03  0.47000000000E+01 0. -1.
        -11    1    4    4    0    0  0.17770701992E+02  0.37011603438E+02  0.45487311476E+02  0.61276032375E+02  0.00000000000E+00 0.  1.
         12    1    4    4    0    0  0.21357508074E+02  0.60710514588E+02 -0.30622118363E+02  0.71271480030E+02  0.00000000000E+00 0. -1.
         -5    1    5    5    0  502  0.71442402640E+02 -0.90991065294E+02  0.22768121292E+03  0.25542947280E+03  0.47000000000E+01 0.  1.
         11    1    6    6    0    0  0.14416409297E+02 -0.24852189986E+02  0.36971744306E+02  0.46822794461E+02  0.00000000000E+00 0. -1.
        -12    1    6    6    0    0 -0.38206027068E+02 -0.47616760726E+02  0.64509707104E+01  0.61389505858E+02  0.00000000000E+00 0.  1.
</event>
<event>
12    1  0.8196217E-002  0.1870756E+03  0.7818608E-02  0.1161613E+00
         21   -1    0    0  501  502  0.00000000000E+00  0.00000000000E+00  0.14353048934E+03  0.14353048934E+03  0.00000000000E+00 0. -1.
         21   -1    0    0  502  503 -0.00000000000E+00 -0.00000000000E+00 -0.31618765597E+03  0.31618765597E+03  0.00000000000E+00 0.  1.
         -6    2    1    2    0  503  0.34741268935E+02  0.56913126224E+02 -0.19871865990E+03  0.27292193945E+03  0.17478907156E+03 0.  0.
        -24    2    3    3    0    0  0.59184430141E+02  0.14918710397E+02 -0.20012555795E+03  0.22408477683E+03  0.80239538716E+02 0.  0.
          6    2    1    2  501    0 -0.34741268935E+02 -0.56913126224E+02  0.26061493278E+02  0.18679620586E+03  0.17253278352E+03 0.  0.
         24    2    5    5    0    0  0.44377602752E+02 -0.38873062103E+02  0.29880690629E+02  0.10542104971E+03  0.82099058864E+02 0.  0.
          5    1    5    5  501    0 -0.79118871687E+02 -0.18040064122E+02 -0.38191973503E+01  0.81375156153E+02  0.47000000000E+01 0. -1.
        -13    1    6    6    0    0  0.19376567587E+02  0.16495645128E+02 -0.15316414476E+02  0.29701013990E+02  0.00000000000E+00 0.  1.
         14    1    6    6    0    0  0.25001035165E+02 -0.55368707231E+02  0.45197105104E+02  0.75720035721E+02  0.00000000000E+00 0. -1.
         -5    1    3    3    0  503 -0.24443161206E+02  0.41994415828E+02  0.14068980434E+01  0.48837162618E+02  0.47000000000E+01 0.  1.
         11    1    4    4    0    0  0.36870836258E+01  0.36803465884E+02 -0.47415630239E+02  0.60135943309E+02  0.00000000000E+00 0. -1.
        -12    1    4    4    0    0  0.55497346515E+02 -0.21884755487E+02 -0.15270992771E+03  0.16394883352E+03  0.00000000000E+00 0.  1.
</event>
<event>
12    1  0.8196217E-002  0.1841710E+03  0.7818608E-02  0.1164447E+00
         21   -1    0    0  501  502  0.00000000000E+00  0.00000000000E+00  0.27272299632E+03  0.27272299632E+03  0.00000000000E+00 0. -1.
         21   -1    0    0  502  503 -0.00000000000E+00 -0.00000000000E+00 -0.14836837541E+03  0.14836837541E+03  0.00000000000E+00 0. -1.
         -6    2    1    2    0  503  0.48846819371E+02 -0.24634140712E+02 -0.25187451769E+02  0.18588532348E+03  0.17585816190E+03 0.  0.
        -24    2    3    3    0    0  0.10038807465E+03 -0.27779454245E+02 -0.27788931021E+02  0.13396951002E+03  0.79537043671E+02 0.  0.
          6    2    1    2  501    0 -0.48846819371E+02  0.24634140712E+02  0.14954207269E+03  0.23520604825E+03  0.17310748389E+03 0.  0.
         24    2    5    5    0    0 -0.69800208796E+02 -0.56791943954E+01  0.29055941524E+02  0.10912297795E+03  0.78480916035E+02 0.  0.
          5    1    5    5  501    0  0.20953389425E+02  0.30313335107E+02  0.12048613116E+03  0.12608307030E+03  0.47000000000E+01 0. -1.
        -11    1    6    6    0    0 -0.90294542709E+01  0.29794784144E+02 -0.39814917246E+01  0.31386501604E+02  0.00000000000E+00 0.  1.
         12    1    6    6    0    0 -0.60770754525E+02 -0.35473978539E+02  0.33037433248E+02  0.77736476345E+02  0.00000000000E+00 0. -1.
         -5    1    3    3    0  503 -0.51541255282E+02  0.31453135334E+01  0.26014792520E+01  0.51915813463E+02  0.47000000000E+01 0.  1.
         13    1    4    4    0    0  0.40584257389E+02 -0.93383834216E+01 -0.52215622644E+02  0.66788910762E+02  0.00000000000E+00 0. -1.
        -14    1    4    4    0    0  0.59803817263E+02 -0.18441070824E+02  0.24426691623E+02  0.67180599253E+02  0.00000000000E+00 0.  1.
</event>
<event>
12    1  0.8196217E-002  0.1822044E+03  0.7818608E-02  0.1165917E+00
         21   -1    0    0  503  502  0.00000000000E+00  0.00000000000E+00  0.80159039982E+02  0.80159039982E+02  0.00000000000E+00 0.  1.
         21   -1    0    0  501  503 -0.00000000000E+00 -0.00000000000E+00 -0.72462627780E+03  0.72462627780E+03  0.00000000000E+00 0. -1.
          6    2    1    2  501    0 -0.49150046021E+02 -0.37710427633E+02 -0.58703631585E+03  0.61466258623E+03  0.17134951242E+03 0.  0.
         24    2    3    3    0    0 -0.30592610311E+02 -0.49390290707E+02 -0.16089050953E+03  0.18792714609E+03  0.77817398832E+02 0.  0.
         -6    2    1    2    0  502  0.49150046021E+02  0.37710427633E+02 -0.57430921972E+02  0.19012273156E+03  0.17032480407E+03 0.  0.
        -24    2    5    5    0    0 -0.22448520668E+01 -0.35930647138E+02 -0.71551846516E+01  0.87097573435E+02  0.78985694061E+02 0.  0.
          5    1    3    3  501    0 -0.18557435710E+02  0.11679863074E+02 -0.42614580632E+03  0.42673544014E+03  0.47000000000E+01 0. -1.
        -13    1    4    4    0    0  0.16097837656E+02 -0.39133644325E+02 -0.11118276920E+03  0.11896298022E+03  0.00000000000E+00 0.  1.
         14    1    4    4    0    0 -0.46690447967E+02 -0.10256646383E+02 -0.49707740325E+02  0.68964165874E+02  0.00000000000E+00 0. -1.
         -5    1    5    5    0  502  0.51394898088E+02  0.73641074771E+02 -0.50275737320E+02  0.10302515812E+03  0.47000000000E+01 0.  1.
         11    1    6    6    0    0  0.14346638336E+02  0.13652539157E+02 -0.24961072590E+02  0.31863348880E+02  0.00000000000E+00 0. -1.
        -12    1    6    6    0    0 -0.16591490403E+02 -0.49583186295E+02  0.17805887938E+02  0.55234224555E+02  0.00000000000E+00 0.  1.
</event>
<event>
12    1  0.8196217E-002  0.2119963E+03  0.7818608E-02  0.1140256E+00
         21   -1    0    0  503  502  0.00000000000E+00  0.00000000000E+00  0.36182148305E+03  0.36182148305E+03  0.00000000000E+00 0. -1.
         21   -1    0    0  501  503 -0.00000000000E+00 -0.00000000000E+00 -0.17933584409E+03  0.17933584409E+03  0.00000000000E+00 0.  1.
          6    2    1    2  501    0 -0.10302894690E+03  0.68062997727E+02 -0.60022730815E+02  0.21905059098E+03  0.17068361854E+03 0.  0.
         24    2    3    3    0    0 -0.84189391631E+02 -0.22756411773E+02 -0.37258124670E+02  0.12342940464E+03  0.78999633770E+02 0.  0.
         -6    2    1    2    0  502  0.10302894690E+03 -0.68062997727E+02  0.24250836977E+03  0.32210673616E+03  0.17232209525E+03 0.  0.
        -24    2    5    5    0    0  0.82258155106E+00  0.14255138804E+02  0.18844875690E+02  0.62742387601E+02  0.58117056355E+02 0.  0.
          5    1    3    3  501    0 -0.18839555266E+02  0.90819409500E+02 -0.22764606146E+02  0.95621186342E+02  0.47000000000E+01 0. -1.
        -11    1    4    4    0    0 -0.66190863596E+02  0.13759849432E+02 -0.46024598341E+02  0.81785252536E+02  0.00000000000E+00 0.  1.
         12    1    4    4    0    0 -0.17998528035E+02 -0.36516261205E+02  0.87664736710E+01  0.41644152104E+02  0.00000000000E+00 0. -1.
         -5    1    5    5    0  502  0.10220636535E+03 -0.82318136531E+02  0.22366349408E+03  0.25936434856E+03  0.47000000000E+01 0.  1.
         13    1    6    6    0    0 -0.18169158426E+02 -0.43543430759E+01  0.28817536392E+02  0.34344272088E+02  0.00000000000E+00 0. -1.
        -14    1    6    6    0    0  0.18991739977E+02  0.18609481880E+02 -0.99726607025E+01  0.28398115513E+02  0.00000000000E+00 0.  1.
</event>
<event>
12    1  0.8196217E-002  0.2418335E+03  0.7818608E-02  0.1118659E+00
         21   -1    0    0  503  502  0.00000000000E+00  0.00000000000E+00  0.65594668408E+03  0.65594668408E+03  0.00000000000E+00 0.  1.
         21   -1    0    0  501  503 -0.00000000000E+00 -0.00000000000E+00 -0.18174559355E+03  0.18174559355E+03  0.00000000000E+00 0.  1.
          6    2    1    2  501    0 -0.15492985690E+03 -0.71853868072E+02 -0.62263547461E+02  0.24923856355E+03  0.17051942206E+03 0.  0.
         24    2    3    3    0    0 -0.14689360890E+03 -0.82589435630E+02  0.22618851251E+01  0.18316697250E+03  0.71737552772E+02 0.  0.
         -6    2    1    2    0  502  0.15492985690E+03  0.71853868072E+02  0.53646463799E+03  0.58845371409E+03  0.17122274058E+03 0.  0.
        -24    2    5    5    0    0  0.46650220112E+02 -0.21479689921E+02  0.16899454736E+03  0.19412898712E+03  0.80556107689E+02 0.  0.
          5    1    3    3  501    0 -0.80362480052E+01  0.10735567558E+02 -0.64525432586E+02  0.66071591045E+02  0.47000000000E+01 0. -1.
        -13    1    4    4    0    0 -0.74037513082E+02 -0.70848295966E+02  0.25864541643E+02  0.10568826283E+03  0.00000000000E+00 0.  1.
         14    1    4    4    0    0 -0.72856095817E+02 -0.11741139665E+02 -0.23602656518E+02  0.77478709676E+02  0.00000000000E+00 0. -1.
         -5    1    5    5    0  502  0.10827963679E+03  0.93333557993E+02  0.36747009063E+03  0.39432472697E+03  0.47000000000E+01 0.  1.
         11    1    6    6    0    0 -0.43191221104E+01  0.16961006851E+02  0.94117965161E+02  0.95731509626E+02  0.00000000000E+00 0. -1.
        -12    1    6    6    0    0  0.50969342223E+02 -0.38440696771E+02  0.74876582200E+02  0.98397477492E+02  0.00000000000E+00 0.  1.
</event>
<event>
12    1  0.8196217E-002  0.1853952E+03  0.7818608E-02  0.1162732E+00
         21   -1    0    0  501  502  0.00000000000E+00  0.00000000000E+00  0.10245718233E+03  0.10245718233E+03  0.00000000000E+00 0.  1.
         21   -1    0    0  502  503 -0.00000000000E+00 -0.00000000000E+00 -0.45997284430E+03  0.45997284430E+03  0.00000000000E+00 0.  1.
         -6    2    1    2    0  503 -0.68974813066E+02 -0.89281918626E+00 -0.32521680298E+03  0.37424232258E+03  0.17185175328E+03 0.  0.
        -24    2    3    3    0    0 -0.64505333107E+01  0.21619181263E+02 -0.64224443353E+02  0.10488163965E+03  0.79789603542E+02 0.  0.
          6    2    1    2  501    0  0.68974813066E+02  0.89281918626E+00 -0.32298858994E+02  0.18818770405E+03  0.17208449582E+03 0.  0.
         24    2    5    5    0    0  0.11152001854E+03  0.67755348328E+01 -0.41976959302E+02  0.14391066172E+03  0.80408898991E+02 0.  0.
          5    1    5    5  501    0 -0.42545205474E+02 -0.58827156466E+01  0.96781003085E+01  0.44277042333E+02  0.47000000000E+01 0. -1.
        -13    1    6    6    0    0  0.58956469489E+02  0.15025906503E+02  0.18276896563E+02  0.63527065955E+02  0.00000000000E+00 0.  1.
         14    1    6    6    0    0  0.52563549051E+02 -0.82503716703E+01 -0.60253855865E+02  0.80383595765E+02  0.00000000000E+00 0. -1.
         -5    1    3    3    0  503 -0.62524279755E+02 -0.22512000449E+02 -0.26099235963E+03  0.26936068293E+03  0.47000000000E+01 0.  1.
         11    1    4    4    0    0 -0.76988274418E+01 -0.28781986052E+02 -0.11512752548E+02  0.31940853719E+02  0.00000000000E+00 0. -1.
        -12    1    4    4    0    0  0.12482941311E+01  0.50401167315E+02 -0.52711690805E+02  0.72940785932E+02  0.00000000000E+00 0.  1.
</event>
<event>
12    1  0.8196217E-002  0.1924363E+03  0.7818608E-02  0.1156283E+00
         21   -1    0    0  503  502  0.00000000000E+00  0.00000000000E+00  0.58356480317E+03  0.58356480317E+03  0.00000000000E+00 0. -1.
         21   -1    0    0  501  503 -0.00000000000E+00 -0.00000000000E+00 -0.99404776220E+02  0.99404776220E+02  0.00000000000E+00 0. -1.
          6    2    1    2  501    0  0.75299584441E+02  0.37061563914E+02  0.36724730006E+02  0.19590926920E+03  0.17317086657E+03 0.  0.
         24    2    3    3    0    0  0.65478614565E+02 -0.35796310162E+02  0.54894420648E+02  0.12003470876E+03  0.76328953241E+02 0.  0.
         -6    2    1    2    0  502 -0.75299584441E+02 -0.37061563914E+02  0.44743529694E+03  0.48706031018E+03  0.17316412409E+03 0.  0.
        -24    2    5    5    0    0 -0.11392465837E+03 -0.33336424357E+02  0.40450189379E+03  0.42899879016E+03  0.79548946615E+02 0.  0.
          5    1    3    3  501    0  0.98209698755E+01  0.72857874076E+02 -0.18169690642E+02  0.75874560441E+02  0.47000000000E+01 0. -1.
        -13    1    4    4    0    0 -0.24984136759E+01 -0.36760960654E+00  0.42271452661E+02  0.42346817091E+02  0.00000000000E+00 0.  1.
         14    1    4    4    0    0  0.67977028241E+02 -0.35428700556E+02  0.12622967988E+02  0.77687891671E+02  0.00000000000E+00 0. -1.
         -5    1    5    5    0  502  0.38625073933E+02 -0.37251395571E+01  0.42933403155E+02  0.58061520024E+02  0.47000000000E+01 0.  1.
         13    1    6    6    0    0 -0.35837677634E+02 -0.44553656051E+02  0.23773048128E+03  0.24451001848E+03  0.00000000000E+00 0. -1.
        -14    1    6    6    0    0 -0.78086980740E+02  0.11217231694E+02  0.16677141250E+03  0.18448877168E+03  0.00000000000E+00 0.  1.
</event>
<event>
12    1  0.8196217E-002  0.1870862E+03  0.7818608E-02  0.1161369E+00
         21   -1    0    0  501  502  0.00000000000E+00  0.00000000000E+00  0.20527905232E+04  0.20527905232E+04  0.00000000000E+00 0. -1.
         21   -1    0    0  502  503 -0.00000000000E+00 -0.00000000000E+00 -0.18354192992E+02  0.18354192992E+02  0.00000000000E+00 0. -1.
         -6    2    1    2    0  503  0.38822265256E+02 -0.57867153381E+02  0.72809437217E+03  0.75147409489E+03  0.17244165620E+03 0.  0.
        -24    2    3    3    0    0 -0.45548280592E+02 -0.21962862917E+02  0.37884640106E+03  0.39035951141E+03  0.79365857522E+02 0.  0.
          6    2    1    2  501    0 -0.38822265256E+02  0.57867153381E+02  0.13063419580E+04  0.13196706213E+04  0.17362448463E+03 0.  0.
         24    2    5    5    0    0 -0.26329796776E+02  0.22599748075E+02  0.23342432058E+03  0.24609053653E+03  0.69782748000E+02 0.  0.
          5    1    5    5  501    0 -0.12492468480E+02  0.35267405306E+02  0.10729176374E+04  0.10735800847E+04  0.47000000000E+01 0. -1.
        -11    1    6    6    0    0 -0.42139990037E+02 -0.59025239234E+01  0.98738024882E+02  0.10751658526E+03  0.00000000000E+00 0.  1.
         12    1    6    6    0    0  0.15810193261E+02  0.28502271998E+02  0.13468629570E+03  0.13857395127E+03  0.00000000000E+00 0. -1.
         -5    1    3    3    0  503  0.84370545848E+02 -0.35904290465E+02  0.34924797111E+03  0.36111458349E+03  0.47000000000E+01 0.  1.
         11    1    4    4    0    0 -0.80877830309E+01 -0.29217192638E+02  0.44513826342E+02  0.53856636690E+02  0.00000000000E+00 0. -1.
        -12    1    4    4    0    0 -0.37460497561E+02  0.72543297217E+01  0.33433257472E+03  0.33650287472E+03  0.00000000000E+00 0.  1.
</event>
<event>
12    1  0.8196217E-002  0.1758553E+03  0.7818608E-02  0.1171920E+00
         21   -1    0    0  501  502  0.00000000000E+00  0.00000000000E+00  0.42564044335E+02  0.42564044335E+02  0.00000000000E+00 0.  1.
         21   -1    0    0  502  503 -0.00000000000E+00 -0.00000000000E+00 -0.13035769363E+04  0.13035769363E+04  0.00000000000E+00 0.  1.
         -6    2    1    2    0  503 -0.35846323985E+02  0.99196329738E+01 -0.10784181565E+04  0.10926337293E+04  0.17169562672E+03 0.  0.
        -24    2    3    3    0    0 -0.14454078252E+02  0.71760732262E+02 -0.56239485147E+03  0.57245674884E+03  0.77847525750E+02 0.  0.
          6    2    1    2  501    0  0.35846323985E+02 -0.99196329738E+01 -0.18259473551E+03  0.25350725131E+03  0.17187708098E+03 0.  0.
         24    2    5    5    0    0  0.66652501075E+02  0.21238648227E+02 -0.58377822931E+02  0.12170516329E+03  0.80687920307E+02 0.  0.
          5    1    5    5  501    0 -0.30806177090E+02 -0.31158281200E+02 -0.12421691258E+03  0.13180208802E+03  0.47000000000E+01 0. -1.
        -11    1    6    6    0    0  0.27810035179E+02 -0.22642170336E+02 -0.51420859879E+02  0.62691074045E+02  0.00000000000E+00 0.  1.
         12    1    6    6    0    0  0.38842465896E+02  0.43880818563E+02 -0.69569630518E+01  0.59014089246E+02  0.00000000000E+00 0. -1.
         -5    1    3    3    0  503 -0.21392245733E+02 -0.61841099288E+02 -0.51602330499E+03  0.52017698049E+03  0.47000000000E+01 0.  1.
         11    1    4    4    0    0 -0.28567707384E+02  0.18593389888E+02 -0.80315660188E+02  0.87249259734E+02  0.00000000000E+00 0. -1.
        -12    1    4    4    0    0  0.14113629132E+02  0.53167342375E+02 -0.48207919128E+03  0.48520748911E+03  0.00000000000E+00 0.  1.
</event>
<event>
12    1  0.8196217E-002  0.1827667E+03  0.7818608E-02  0.1165491E+00
         21   -1    0    0  501  502  0.00000000000E+00  0.00000000000E+00  0.17927665315E+04  0.17927665315E+04  0.00000000000E+00 0.  1.
         21   -1    0    0  502  503 -0.00000000000E+00 -0.00000000000E+00 -0.20915798788E+02  0.20915798788E+02  0.00000000000E+00 0. -1.
         -6    2    1    2    0  503 -0.47643376333E+02  0.42690117542E+02  0.11979816516E+04  0.12118431064E+04  0.17120554716E+03 0.  0.
        -24    2    3    3    0    0  0.33525991869E+01 -0.35992666847E+02  0.65828747080E+03  0.66404435783E+03  0.79409086202E+02 0.  0.
          6    2    1    2  501    0  0.47643376333E+02 -0.42690117542E+02  0.57386908111E+03  0.60183922395E+03  0.16968321006E+03 0.  0.
         24    2    5    5    0    0  0.48995106425E+02  0.27706362029E+02  0.21140708751E+03  0.23257200591E+03  0.78921596109E+02 0.  0.
          5    1    5    5  501    0 -0.13517300919E+01 -0.70396479570E+02  0.36246199360E+03  0.36926721804E+03  0.47000000000E+01 0. -1.
        -13    1    6    6    0    0  0.28461703902E+02  0.12195202337E+02  0.20322292294E+03  0.20556835349E+03  0.00000000000E+00 0.  1.
         14    1    6    6    0    0  0.20533402523E+02  0.15511159692E+02  0.81841645701E+01  0.27003652417E+02  0.00000000000E+00 0. -1.
         -5    1    3    3    0  503 -0.50995975520E+02  0.78682784388E+02  0.53969418082E+03  0.54779874853E+03  0.47000000000E+01 0.  1.
         13    1    4    4    0    0  0.36290403449E+02 -0.32010113439E+02  0.26674708918E+03  0.27110081212E+03  0.00000000000E+00 0. -1.
        -14    1    4    4    0    0 -0.32937804263E+02 -0.39825534078E+01  0.39154038162E+03  0.39294354571E+03  0.00000000000E+00 0.  1.
</event>
<event>
12    1  0.8196217E-002  0.1994898E+03  0.7818608E-02  0.1150177E+00
         21   -1    0    0  503  502  0.00000000000E+00  0.00000000000E+00  0.13977067184E+03  0.13977067184E+03  0.00000000000E+00 0.  1.
         21   -1    0    0  501  503 -0.00000000000E+00 -0.00000000000E+00 -0.43090084069E+03  0.43090084069E+03  0.00000000000E+00 0.  1.
          6    2    1    2  501    0 -0.38746387629E+02 -0.90491920090E+02 -0.31177453713E+03  0.37011633316E+03  0.17347238372E+03 0.  0.
         24    2    3    3    0    0 -0.32542779563E+02 -0.12932180441E+03 -0.27110523219E+03  0.31335078874E+03  0.83111420915E+02 0.  0.
         -6    2    1    2    0  502  0.38746387629E+02  0.90491920090E+02  0.20644368281E+02  0.20055517937E+03  0.17351115202E+03 0.  0.
        -24    2    5    5    0    0 -0.37706136141E+02  0.42262484201E+02 -0.22074752819E+02  0.10046481928E+03  0.79987592330E+02 0.  0.
          5    1    3    3  501    0 -0.62036080655E+01  0.38829884316E+02 -0.40669304937E+02  0.56765544418E+02  0.47000000000E+01 0. -1.
        -13    1    4    4    0    0 -0.31155781598E+02 -0.40992558589E+02 -0.37780975051E+02  0.63862936532E+02  0.00000000000E+00 0.  1.
         14    1    4    4    0    0 -0.13869979648E+01 -0.88329245817E+02 -0.23332425714E+03  0.24948785221E+03  0.00000000000E+00 0. -1.
         -5    1    5    5    0  502  0.76452523769E+02  0.48229435889E+02  0.42719121100E+02  0.10009036010E+03  0.47000000000E+01 0.  1.
         13    1    6    6    0    0 -0.48584410897E+02  0.26206052409E+02  0.16223221500E+02  0.57536032891E+02  0.00000000000E+00 0. -1.
        -14    1    6    6    0    0  0.10878274756E+02  0.16056431792E+02 -0.38297974319E+02  0.42928786385E+02  0.00000000000E+00 0.  1.
</event>
<event>
12    1  0.8196217E-002  0.2305473E+03  0.7818608E-02  0.1126531E+00
         21   -1    0    0  503  502  0.00000000000E+00  0.00000000000E+00  0.29603048274E+03  0.29603048274E+03  0.00000000000E+00 0. -1.
         21   -1    0    0  501  503 -0.00000000000E+00 -0.00000000000E+00 -0.10962581696E+04  0.10962581696E+04  0.00000000000E+00 0.  1.
          6    2    1    2  501    0  0.92736386845E+02 -0.11994840985E+03 -0.10373454926E+04  0.10626559883E+04  0.17367907202E+03 0.  0.
         24    2    3    3    0    0  0.80388048012E+02 -0.51238323847E+01 -0.53638605192E+03  0.54853575311E+03  0.81810658378E+02 0.  0.
         -6    2    1    2    0  502 -0.92736386845E+02  0.11994840985E+03  0.23711780577E+03  0.32963266397E+03  0.17159598153E+03 0.  0.
        -24    2    5    5    0    0 -0.28251444618E+01  0.63951261329E+02  0.18494803097E+03  0.21146546230E+03  0.80088215859E+02 0.  0.
          5    1    3    3  501    0  0.12348338833E+02 -0.11482457746E+03 -0.50095944066E+03  0.51412023521E+03  0.47000000000E+01 0. -1.
        -13    1    4    4    0    0  0.82463143701E+02 -0.84579885928E+01 -0.53795674364E+03  0.54430613230E+03  0.00000000000E+00 0.  1.
         14    1    4    4    0    0 -0.20750956898E+01  0.33341562081E+01  0.15706917121E+01  0.42296208100E+01  0.00000000000E+00 0. -1.
         -5    1    5    5    0  502 -0.89911242383E+02  0.55997148517E+02  0.52169774799E+02  0.11816720167E+03  0.47000000000E+01 0.  1.
         11    1    6    6    0    0 -0.36417561593E+02  0.80499716965E+01  0.68888931380E+02  0.78337256165E+02  0.00000000000E+00 0. -1.
        -12    1    6    6    0    0  0.33592417132E+02  0.55901289632E+02  0.11605909959E+03  0.13312820613E+03  0.00000000000E+00 0.  1.
</event>
<event>
12    1  0.8196217E-002  0.1902192E+03  0.7818608E-02  0.1159671E+00
         21   -1    0    0  501  502  0.00000000000E+00  0.00000000000E+00  0.23254082577E+03  0.23254082577E+03  0.00000000000E+00 0. -1.
         21   -1    0    0  502  503 -0.00000000000E+00 -0.00000000000E+00 -0.16015514473E+03  0.16015514473E+03  0.00000000000E+00 0. -1.
         -6    2    1    2    0  503  0.67315382731E+02 -0.42558778489E+02 -0.12274194152E+02  0.18448781605E+03  0.16595929636E+03 0.  0.
        -24    2    3    3    0    0 -0.24962431405E+02 -0.39014261849E+02 -0.16320337995E+02  0.91933940602E+02  0.77719112147E+02 0.  0.
          6    2    1    2  501    0 -0.67315382731E+02  0.42558778489E+02  0.84659875188E+02  0.20820815445E+03  0.17274469813E+03 0.  0.
         24    2    5    5    0    0 -0.10825116810E+03  0.27543984378E+02  0.34480122113E+02  0.14156522395E+03  0.79842641118E+02 0.  0.
          5    1    5    5  501    0  0.40935785373E+02  0.15014794110E+02  0.50179753075E+02  0.66642930495E+02  0.47000000000E+01 0. -1.
        -13    1    6    6    0    0 -0.19339079175E+02  0.13812356455E+02 -0.24386773218E+02  0.34051371223E+02  0.00000000000E+00 0.  1.
         14    1    6    6    0    0 -0.88912088929E+02  0.13731627924E+02  0.58866895331E+02  0.10751385273E+03  0.00000000000E+00 0. -1.
         -5    1    3    3    0  503  0.92277814137E+02 -0.35445166393E+01  0.40461438428E+01  0.92553875446E+02  0.47000000000E+01 0.  1.
         13    1    4    4    0    0 -0.18927472246E+02 -0.61782292960E+02 -0.20952114233E+02  0.67928580287E+02  0.00000000000E+00 0. -1.
        -14    1    4    4    0    0 -0.60349591594E+01  0.22768031110E+02  0.46317762382E+01  0.24005360314E+02  0.00000000000E+00 0.  1.
</event>
<event>
12    1  0.8196217E-002  0.2124712E+03  0.7818608E-02  0.1139918E+00
         21   -1    0    0  501  502  0.00000000000E+00  0.00000000000E+00  0.31601268833E+03  0.31601268833E+03  0.00000000000E+00 0. -1.
         21   -1    0    0  502  503 -0.00000000000E+00 -0.00000000000E+00 -0.14421331137E+03  0.14421331137E+03  0.00000000000E+00 0.  1.
         -6    2    1    2    0  503  0.11594871962E+03 -0.35903859160E+02  0.56120296036E+02  0.21830524552E+03  0.17255289018E+03 0.  0.
        -24    2    3    3    0    0  0.10297821362E+03  0.15773494663E+02 -0.15426945020E+02  0.12897506794E+03  0.74453085244E+02 0.  0.
          6    2    1    2  501    0 -0.11594871962E+03  0.35903859160E+02  0.11567908092E+03  0.24192075417E+03  0.17438695150E+03 0.  0.
         24    2    5    5    0    0 -0.12406978040E+03  0.39705729497E+02  0.31625536458E+02  0.15725969947E+03  0.82222765439E+02 0.  0.
          5    1    5    5  501    0  0.81210607837E+01 -0.38018703372E+01  0.84053544466E+02  0.84661054704E+02  0.47000000000E+01 0. -1.
        -11    1    6    6    0    0 -0.91916833692E+02  0.65156428628E+02  0.18315218896E+02  0.11414688673E+03  0.00000000000E+00 0.  1.
         12    1    6    6    0    0 -0.32152946713E+02 -0.25450699130E+02  0.13310317562E+02  0.43112812737E+02  0.00000000000E+00 0. -1.
         -5    1    3    3    0  503  0.12970506002E+02 -0.51677353823E+02  0.71547241056E+02  0.89330177582E+02  0.47000000000E+01 0.  1.
         13    1    4    4    0    0  0.43145663651E+02  0.39342193387E+02  0.11057807764E+02  0.59427532213E+02  0.00000000000E+00 0. -1.
        -14    1    4    4    0    0  0.59832549967E+02 -0.23568698724E+02 -0.26484752783E+02  0.69547535722E+02  0.00000000000E+00 0.  1.
</event>
<event>
12    1  0.8196217E-002  0.1829927E+03  0.7818608E-02  0.1165435E+00
         21   -1    0    0  501  502  0.00000000000E+00  0.00000000000E+00  0.27823497433E+02  0.27823497433E+02  0.00000000000E+00 0.  1.
         21   -1    0    0  502  503 -0.00000000000E+00 -0.00000000000E+00 -0.12822769156E+04  0.12822769156E+04  0.00000000000E+00 0.  1.
         -6    2    1    2    0  503  0.42313448078E+02 -0.38169908736E+02 -0.79976335458E+03  0.81996842365E+03  0.17169572688E+03 0.  0.
        -24    2    3    3    0    0  0.69219288964E+02  0.27405324403E+02 -0.45598854756E+03  0.46893104185E+03  0.80177333069E+02 0.  0.
          6    2    1    2  501    0 -0.42313448078E+02  0.38169908736E+02 -0.45469006355E+03  0.49013198935E+03  0.17389348254E+03 0.  0.
         24    2    5    5    0    0 -0.12603448702E+02 -0.25430822143E+02 -0.11177173911E+03  0.14007084573E+03  0.79506896099E+02 0.  0.
          5    1    5    5  501    0 -0.29709999376E+02  0.63600730880E+02 -0.34291832444E+03  0.35006114362E+03  0.47000000000E+01 0. -1.
        -11    1    6    6    0    0  0.83994335546E-01  0.28355845485E+02 -0.47373431243E+02  0.55211439177E+02  0.00000000000E+00 0.  1.
         12    1    6    6    0    0 -0.12687443038E+02 -0.53786667628E+02 -0.64398307865E+02  0.84859406557E+02  0.00000000000E+00 0. -1.
         -5    1    3    3    0  503 -0.26905840886E+02 -0.65575233139E+02 -0.34377480702E+03  0.35103738179E+03  0.47000000000E+01 0.  1.
         11    1    4    4    0    0  0.10537184662E+02  0.85761254285E+01 -0.61894541060E+01  0.14929552240E+02  0.00000000000E+00 0. -1.
        -12    1    4    4    0    0  0.58682104302E+02  0.18829198974E+02 -0.44979909345E+03  0.45400148961E+03  0.00000000000E+00 0.  1.
</event>
<event>
12    1  0.8196217E-002  0.1886751E+03  0.7818608E-02  0.1160254E+00
         21   -1    0    0  501  502  0.00000000000E+00  0.00000000000E+00  0.31248576684E+03  0.31248576684E+03  0.00000000000E+00 0. -1.
         21   -1    0    0  502  503 -0.00000000000E+00 -0.00000000000E+00 -0.13754629448E+03  0.13754629448E+03  0.00000000000E+00 0. -1.
         -6    2    1    2    0  503  0.76440816737E+02  0.41970251544E+01 -0.83126374378E+01  0.18885815232E+03  0.17244560961E+03 0.  0.
        -24    2    3    3    0    0  0.11005986197E+03 -0.91556740877E-01  0.27091250598E+02  0.13962241911E+03  0.81530990801E+02 0.  0.
          6    2    1    2  501    0 -0.76440816737E+02 -0.41970251544E+01  0.18325210980E+03  0.26117390899E+03  0.16961621830E+03 0.  0.
         24    2    5    5    0    0 -0.10073315877E+03  0.37278316246E+02  0.11171217134E+03  0.17485835639E+03  0.80987612858E+02 0.  0.
          5    1    5    5  501    0  0.24292342035E+02 -0.41475341400E+02  0.71539938463E+02  0.86315552602E+02  0.47000000000E+01 0. -1.
        -13    1    6    6    0    0  0.43913732294E+00 -0.18071294096E+02  0.80310494078E+01  0.19780350514E+02  0.00000000000E+00 0.  1.
         14    1    6    6    0    0 -0.10117229609E+03  0.55349610341E+02  0.10368112193E+03  0.15507800588E+03  0.00000000000E+00 0. -1.
         -5    1    3    3    0  503 -0.33619045229E+02  0.42885818953E+01 -0.35403888036E+02  0.49235733212E+02  0.47000000000E+01 0.  1.
         13    1    4    4    0    0  0.92364512530E+02 -0.23153517691E+02 -0.62030229047E+01  0.95424137667E+02  0.00000000000E+00 0. -1.
        -14    1    4    4    0    0  0.17695349436E+02  0.23061960950E+02  0.33294273503E+02  0.44198281444E+02  0.00000000000E+00 0.  1.
</event>
<event>
12    1  0.8196217E-002  0.3017923E+03  0.7818608E-02  0.1084684E+00
         21   -1    0    0  501  502  0.00000000000E+00  0.00000000000E+00  0.56294334522E+03  0.56294334522E+03  0.00000000000E+00 0.  1.
         21   -1    0    0  502  503 -0.00000000000E+00 -0.00000000000E+00 -0.16189753980E+03  0.16189753980E+03  0.00000000000E+00 0. -1.
         -6    2    1    2    0  503 -0.51133369404E+02  0.23927662001E+03  0.23509489503E+03  0.38043079648E+03  0.17201761214E+03 0.  0.
        -24    2    3    3    0    0 -0.12930467728E+02  0.30843841041E+02  0.87077229973E+02  0.12190612799E+03  0.78486435365E+02 0.  0.
          6    2    1    2  501    0  0.51133369404E+02 -0.23927662001E+03  0.16595091038E+03  0.34441008854E+03  0.17666545242E+03 0.  0.
         24    2    5    5    0    0  0.74317193698E+02 -0.22298098867E+03  0.18485731148E+03  0.31002143761E+03  0.81838252577E+02 0.  0.
          5    1    5    5  501    0 -0.23183824294E+02 -0.16295631348E+02 -0.18906401103E+02  0.34388650927E+02  0.47000000000E+01 0. -1.
        -11    1    6    6    0    0  0.19800235643E+02 -0.11321001637E+01  0.20994683752E+02  0.28880923257E+02  0.00000000000E+00 0.  1.
         12    1    6    6    0    0  0.54516958055E+02 -0.22184888850E+03  0.16386262773E+03  0.28114051435E+03  0.00000000000E+00 0. -1.
         -5    1    3    3    0  503 -0.38202901676E+02  0.20843277897E+03  0.14801766506E+03  0.25852466849E+03  0.47000000000E+01 0.  1.
         11    1    4    4    0    0  0.41666772574E+01  0.34260383253E+02  0.96217703867E+02  0.10222026021E+03  0.00000000000E+00 0. -1.
        -12    1    4    4    0    0 -0.17097144985E+02 -0.34165422117E+01 -0.91404738935E+01  0.19685867782E+02  0.00000000000E+00 0.  1.
</event>
<event>
12    1  0.8196217E-002  0.2051854E+03  0.7818608E-02  0.1145523E+00
         21   -1    0    0  501  502  0.00000000000E+00  0.00000000000E+00  0.12650491875E+03  0.12650491875E+03  0.00000000000E+00 0.  1.
         21   -1    0    0  502  503 -0.00000000000E+00 -0.00000000000E+00 -0.86270889140E+03  0.86270889140E+03  0.00000000000E+00 0.  1.
         -6    2    1    2    0  503 -0.48999659108E+02 -0.99461504426E+02 -0.75614028606E+03  0.78348526961E+03  0.17264842321E+03 0.  0.
        -24    2    3    3    0    0 -0.24336976019E+02  0.12583122397E+02 -0.22825849352E+03  0.24325983219E+03  0.79515927483E+02 0.  0.
          6    2    1    2  501    0  0.48999659108E+02  0.99461504426E+02  0.19936313405E+02  0.20572854053E+03  0.17214301712E+03 0.  0.
         24    2    5    5    0    0  0.73941279893E+02  0.66421491455E+02 -0.38606105398E+02  0.13387430125E+03  0.80949180112E+02 0.  0.
          5    1    5    5  501    0 -0.24941620785E+02  0.33040012971E+02  0.58542418803E+02  0.71854239289E+02  0.47000000000E+01 0. -1.
        -13    1    6    6    0    0  0.52781914873E+02  0.84936791740E+02 -0.31947471934E+02  0.10498014142E+03  0.00000000000E+00 0.  1.
         14    1    6    6    0    0  0.21159365020E+02 -0.18515300285E+02 -0.66586334640E+01  0.28894159830E+02  0.00000000000E+00 0. -1.
         -5    1    3    3    0  503 -0.24662683089E+02 -0.11204462682E+03 -0.52788179254E+03  0.54022543741E+03  0.47000000000E+01 0.  1.
         13    1    4    4    0    0 -0.40218342105E+02  0.13410402977E+02 -0.55844229093E+02  0.70113706739E+02  0.00000000000E+00 0. -1.
        -14    1    4    4    0    0  0.15881366086E+02 -0.82728058015E+00 -0.17241426443E+03  0.17314612545E+03  0.00000000000E+00 0.  1.
</event>
<event>
12    1  0.8196217E-002  0.1794015E+03  0.7818608E-02  0.1169552E+00
         21   -1    0    0  503  502  0.00000000000E+00  0.00000000000E+00  0.57927224213E+02  0.57927224213E+02  0.00000000000E+00 0.  1.
         21   -1    0    0  501  503 -0.00000000000E+00 -0.00000000000E+00 -0.55777086011E+03  0.55777086011E+03  0.00000000000E+00 0.  1.
          6    2    1    2  501    0 -0.36600366545E+02  0.42668399850E+01 -0.30000626804E+03  0.34714663629E+03  0.17073146595E+03 0.  0.
         24    2    3    3    0    0 -0.69356284747E+02  0.26652212959E+02 -0.28357203191E+03  0.30394676108E+03  0.80311279412E+02 0.  0.
         -6    2    1    2    0  502  0.36600366545E+02 -0.42668399850E+01 -0.19983736786E+03  0.26855144804E+03  0.17557651863E+03 0.  0.
        -24    2    5    5    0    0 -0.22765039670E+02 -0.11068160279E+02 -0.19066021503E+03  0.20791466426E+03  0.78971126459E+02 0.  0.
          5    1    3    3  501    0  0.32755918202E+02 -0.22385372974E+02 -0.16434236130E+02  0.43199875204E+02  0.47000000000E+01 0. -1.
        -11    1    4    4    0    0 -0.65610882251E+01 -0.24997322462E+02 -0.97872723375E+02  0.10122738755E+03  0.00000000000E+00 0.  1.
         12    1    4    4    0    0 -0.62795196522E+02  0.51649535421E+02 -0.18569930853E+03  0.20271937353E+03  0.00000000000E+00 0. -1.
         -5    1    5    5    0  502  0.59365406216E+02  0.68013202938E+01 -0.91771528230E+01  0.60636783777E+02  0.47000000000E+01 0.  1.
         11    1    6    6    0    0 -0.27334694533E+02 -0.85895118597E+01 -0.15307956887E+02  0.32485362600E+02  0.00000000000E+00 0. -1.
        -12    1    6    6    0    0  0.45696548625E+01 -0.24786484191E+01 -0.17535225815E+03  0.17542930166E+03  0.00000000000E+00 0.  1.
</event>
<event>
12    1  0.8196217E-002  0.1741766E+03  0.7818608E-02  0.1173687E+00
         21   -1    0    0  503  502  0.00000000000E+00  0.00000000000E+00  0.20669058689E+03  0.20669058689E+03  0.00000000000E+00 0. -1.
         21   -1    0    0  501  503 -0.00000000000E+00 -0.00000000000E+00 -0.16269678547E+03  0.16269678547E+03  0.00000000000E+00 0. -1.
          6    2    1    2  501    0  0.21307118825E+02 -0.10421852881E+02 -0.36503896986E+02  0.17796069168E+03  0.17255394797E+03 0.  0.
         24    2    3    3    0    0  0.89332703828E+01  0.55419320928E+02 -0.27699745464E+01  0.10280591927E+03  0.86082982208E+02 0.  0.
         -6    2    1    2    0  502 -0.21307118825E+02  0.10421852881E+02  0.80497698412E+02  0.19142668067E+03  0.17205140596E+03 0.  0.
        -24    2    5    5    0    0 -0.47291746432E+02  0.18131140141E+02  0.11359165396E+03  0.14839257936E+03  0.80944710976E+02 0.  0.
          5    1    3    3  501    0  0.12373848442E+02 -0.65841173809E+02 -0.33733922439E+02  0.75154772416E+02  0.47000000000E+01 0. -1.
        -13    1    4    4    0    0 -0.32816258472E+02  0.29543201419E+02 -0.22878940104E+02  0.49730810072E+02  0.00000000000E+00 0.  1.
         14    1    4    4    0    0  0.41749528854E+02  0.25876119508E+02  0.20108965557E+02  0.53075109196E+02  0.00000000000E+00 0. -1.
         -5    1    5    5    0  502  0.25984627607E+02 -0.77092872596E+01 -0.33093955552E+02  0.43034101315E+02  0.47000000000E+01 0.  1.
         13    1    6    6    0    0 -0.52173370603E+02 -0.16092596008E+02  0.41975703297E+02  0.68869382992E+02  0.00000000000E+00 0. -1.
        -14    1    6    6    0    0  0.48816241707E+01  0.34223736149E+02  0.71615950667E+02  0.79523196367E+02  0.00000000000E+00 0.  1.
</event>
<event>
12    1  0.8196217E-002  0.1941168E+03  0.7818608E-02  0.1155026E+00
         21   -1    0    0  503  502  0.00000000000E+00  0.00000000000E+00  0.11778087348E+04  0.11778087348E+04  0.00000000000E+00 0.  1.
         21   -1    0    0  501  503 -0.00000000000E+00 -0.00000000000E+00 -0.33948495016E+02  0.33948495016E+02  0.00000000000E+00 0. -1.
          6    2    1    2  501    0  0.55446913392E+01 -0.88865069504E+02  0.42176745146E+03  0.46429423019E+03  0.17249233286E+03 0.  0.
         24    2    3    3    0    0  0.21910529448E+02 -0.59848881687E+02  0.41816638528E+03  0.43045878295E+03  0.79810263138E+02 0.  0.
         -6    2    1    2    0  502 -0.55446913392E+01  0.88865069504E+02  0.72209278834E+03  0.74746299965E+03  0.17133358306E+03 0.  0.
        -24    2    5    5    0    0  0.40328480806E+02 -0.55771051480E+00  0.29713749374E+03  0.31075958322E+03  0.81572856828E+02 0.  0.
          5    1    3    3  501    0 -0.16365838108E+02 -0.29016187817E+02  0.36010661869E+01  0.33835447242E+02  0.47000000000E+01 0. -1.
        -13    1    4    4    0    0  0.77127939195E+01  0.12666168288E+02  0.19104380582E+03  0.19161851359E+03  0.00000000000E+00 0.  1.
         14    1    4    4    0    0  0.14197735528E+02 -0.72515049975E+02  0.22712257946E+03  0.23884026936E+03  0.00000000000E+00 0. -1.
         -5    1    5    5    0  502 -0.45873172145E+02  0.89422780018E+02  0.42495529460E+03  0.43670341643E+03  0.47000000000E+01 0.  1.
         11    1    6    6    0    0  0.58358456811E+02  0.13521535097E+02  0.14461723239E+03  0.15653333606E+03  0.00000000000E+00 0. -1.
        -12    1    6    6    0    0 -0.18029976004E+02 -0.14079245612E+02  0.15252026134E+03  0.15422624716E+03  0.00000000000E+00 0.  1.
</event>
<event>
12    1  0.8196217E-002  0.2386179E+03  0.7818608E-02  0.1120769E+00
         21   -1    0    0  503  502  0.00000000000E+00  0.00000000000E+00  0.15745742209E+03  0.15745742209E+03  0.00000000000E+00 0.  1.
         21   -1    0    0  501  503 -0.00000000000E+00 -0.00000000000E+00 -0.36205069342E+03  0.36205069342E+03  0.00000000000E+00 0. -1.
          6    2    1    2  501    0 -0.13563838668E+03  0.94474620192E+02 -0.11525989765E+03  0.26471609045E+03  0.17165820322E+03 0.  0.
         24    2    3    3    0    0 -0.46439371859E+02 -0.18772218999E+02 -0.36284655133E+02  0.10027616293E+03  0.78928582836E+02 0.  0.
         -6    2    1    2    0  502  0.13563838668E+03 -0.94474620192E+02 -0.89333373680E+02  0.25479202506E+03  0.17209096019E+03 0.  0.
        -24    2    5    5    0    0  0.21051613272E+02 -0.70389723103E+02 -0.85262929360E+02  0.13753645195E+03  0.79048244466E+02 0.  0.
          5    1    3    3  501    0 -0.89199014823E+02  0.11324683919E+03 -0.78975242519E+02  0.16443992752E+03  0.47000000000E+01 0. -1.
        -13    1    4    4    0    0 -0.47022775550E+02 -0.87238604614E+01  0.13332172215E+02  0.49648705701E+02  0.00000000000E+00 0.  1.
         14    1    4    4    0    0  0.58340369083E+00 -0.10048358538E+02 -0.49616827348E+02  0.50627457227E+02  0.00000000000E+00 0. -1.
         -5    1    5    5    0  502  0.11458677341E+03 -0.24084897089E+02 -0.40704443198E+01  0.11725557311E+03  0.47000000000E+01 0.  1.
         13    1    6    6    0    0 -0.12475794009E+02  0.96561687959E+01 -0.32090032411E+02  0.35758316684E+02  0.00000000000E+00 0. -1.
        -14    1    6    6    0    0  0.33527407281E+02 -0.80045891899E+02 -0.53172896949E+02  0.10177813527E+03  0.00000000000E+00 0.  1.
</event>
<event>
12    1  0.8196217E-002  0.2014182E+03  0.7818608E-02  0.1149629E+00
         21   -1    0    0  503  502  0.00000000000E+00  0.00000000000E+00  0.36365212303E+03  0.36365212303E+03  0.00000000000E+00 0.  1.
         21   -1    0    0  501  503 -0.00000000000E+00 -0.00000000000E+00 -0.10883466026E+03  0.10883466026E+03  0.00000000000E+00 0. -1.
          6    2    1    2  501    0  0.37465690458E+02  0.99445328952E+02  0.13226040144E+03  0.23671245927E+03  0.16506642049E+03 0.  0.
         24    2    3    3    0    0  0.50780354620E+02 -0.15148814509E+01  0.56518977225E+02  0.10971207459E+03  0.79129041721E+02 0.  0.
         -6    2    1    2    0  502 -0.37465690458E+02 -0.99445328952E+02  0.12255706132E+03  0.23577432402E+03  0.17110303088E+03 0.  0.
        -24    2    5    5    0    0 -0.36090421335E+02 -0.13742347410E+03  0.10427783584E+03  0.19334260288E+03  0.79496951499E+02 0.  0.
          5    1    3    3  501    0 -0.13314664162E+02  0.10096021040E+03  0.75741424219E+02  0.12700038468E+03  0.47000000000E+01 0. -1.
        -11    1    4    4    0    0  0.42531661005E+02 -0.17467811842E+02 -0.44113331745E+01  0.46190112565E+02  0.00000000000E+00 0.  1.
         12    1    4    4    0    0  0.82486936147E+01  0.15952930391E+02  0.60930310400E+02  0.63521962027E+02  0.00000000000E+00 0. -1.
         -5    1    5    5    0  502 -0.13752691234E+01  0.37978145148E+02  0.18279225482E+02  0.42431721133E+02  0.47000000000E+01 0.  1.
         11    1    6    6    0    0  0.10001089485E+02 -0.10022149074E+03  0.82636313696E+02  0.13028096307E+03  0.00000000000E+00 0. -1.
        -12    1    6    6    0    0 -0.46091510820E+02 -0.37201983359E+02  0.21641522141E+02  0.63061639814E+02  0.00000000000E+00 0.  1.
</event>
<event>
12    1  0.8196217E-002  0.2651038E+03  0.7818608E-02  0.1104154E+00
         21   -1    0    0  503  502  0.00000000000E+00  0.00000000000E+00  0.41282678636E+02  0.41282678636E+02  0.00000000000E+00 0.  1.
         21   -1    0    0  501  503 -0.00000000000E+00 -0.00000000000E+00 -0.19377006773E+04  0.19377006773E+04  0.00000000000E+00 0.  1.
          6    2    1    2  501    0  0.71309562950E+02 -0.18937136421E+03 -0.12946836459E+04  0.13215467268E+04  0.17127008152E+03 0.  0.
         24    2    3    3    0    0  0.61186219559E+02 -0.19589198072E+03 -0.88624999880E+03  0.91290858051E+03  0.76456487192E+02 0.  0.
         -6    2    1    2    0  502 -0.71309562950E+02  0.18937136421E+03 -0.60173435282E+03  0.65743662919E+03  0.17085702408E+03 0.  0.
        -24    2    5    5    0    0 -0.34910497047E+02  0.19705804995E+03 -0.56789992484E+03  0.60693083098E+03  0.76184585696E+02 0.  0.
          5    1    3    3  501    0  0.10123343390E+02  0.65206165043E+01 -0.40843364709E+03  0.40863814628E+03  0.47000000000E+01 0. -1.
        -13    1    4    4    0    0  0.13411340946E+02 -0.12296515349E+03 -0.63573503393E+03  0.64765679677E+03  0.00000000000E+00 0.  1.
         14    1    4    4    0    0  0.47774878613E+02 -0.72926827224E+02 -0.25051496487E+03  0.26525178375E+03  0.00000000000E+00 0. -1.
         -5    1    5    5    0  502 -0.36399065902E+02 -0.76866857364E+01 -0.33834427979E+02  0.50505798210E+02  0.47000000000E+01 0.  1.
         11    1    6    6    0    0 -0.13587106753E+02  0.35254480905E+02 -0.21272901608E+03  0.21605814535E+03  0.00000000000E+00 0. -1.
        -12    1    6    6    0    0 -0.21323390295E+02  0.16180356905E+03 -0.35517090877E+03  0.39087268562E+03  0.00000000000E+00 0.  1.
</event>
<event>
12    1  0.8196217E-002  0.1965169E+03  0.7818608E-02  0.1153282E+00
         21   -1    0    0  501  502  0.00000000000E+00  0.00000000000E+00  0.81576876739E+03  0.81576876739E+03  0.00000000000E+00 0. -1.
         21   -1    0    0  502  503 -0.00000000000E+00 -0.00000000000E+00 -0.62915028024E+02  0.62915028024E+02  0.00000000000E+00 0. -1.
         -6    2    1    2    0  503  0.53923389720E+02 -0.79424016052E+02  0.59751610340E+03  0.62818690972E+03  0.16845590948E+03 0.  0.
        -24    2    3    3    0    0  0.52518340480E+02  0.24357246855E+02  0.28280075107E+03  0.29676517282E+03  0.68861102496E+02 0.  0.
          6    2    1    2  501    0 -0.53923389720E+02  0.79424016052E+02  0.15533763597E+03  0.25049688569E+03  0.17147303668E+03 0.  0.
         24    2    5    5    0    0  0.67996434325E+01 -0.13057953568E+01  0.11934144388E+03  0.14315441949E+03  0.78758284259E+02 0.  0.
          5    1    5    5  501    0 -0.60723033153E+02  0.80729811409E+02  0.35996192085E+02  0.10734246620E+03  0.47000000000E+01 0. -1.
        -13    1    6    6    0    0 -0.20321641476E+02  0.30871652154E+02  0.54216978330E+02  0.65616375686E+02  0.00000000000E+00 0.  1.
         14    1    6    6    0    0  0.27121284909E+02 -0.32177447511E+02  0.65124465552E+02  0.77538043804E+02  0.00000000000E+00 0. -1.
         -5    1    3    3    0  503  0.14050492403E+01 -0.10378126291E+03  0.31471535233E+03  0.33142173690E+03  0.47000000000E+01 0.  1.
         13    1    4    4    0    0  0.27030096848E+01  0.40696810737E+01  0.18568179579E+03  0.18574605744E+03  0.00000000000E+00 0. -1.
        -14    1    4    4    0    0  0.49815330795E+02  0.20287565781E+02  0.97118955273E+02  0.11101911539E+03  0.00000000000E+00 0.  1.
</event>
<event>
12    1  0.8196217E-002  0.1735145E+03  0.7818608E-02  0.1174356E+00
         21   -1    0    0  501  502  0.00000000000E+00  0.00000000000E+00  0.12842452762E+03  0.12842452762E+03  0.00000000000E+00 0. -1.
         21   -1    0    0  502  503 -0.00000000000E+00 -0.00000000000E+00 -0.23692826094E+03  0.23692826094E+03  0.00000000000E+00 0. -1.
         -6    2    1    2    0  503  0.13432337849E+02  0.23327945837E+02 -0.75256188391E+02  0.18868171082E+03  0.17091715346E+03 0.  0.
        -24    2    3    3    0    0 -0.36532577615E+02  0.10424098661E+02  0.11095711821E+02  0.87975490951E+02  0.78570230540E+02 0.  0.
          6    2    1    2  501    0 -0.13432337849E+02 -0.23327945837E+02 -0.33247544925E+02  0.17667107774E+03  0.17141368006E+03 0.  0.
         24    2    5    5    0    0 -0.21324020149E+02 -0.66077132362E+02 -0.62586037399E+02  0.12401551072E+03  0.81498058659E+02 0.  0.
          5    1    5    5  501    0  0.78916822997E+01  0.42749186525E+02  0.29338492474E+02  0.52655567025E+02  0.47000000000E+01 0. -1.
        -13    1    6    6    0    0 -0.40017160247E+02 -0.21325630428E+02 -0.64887841862E+00  0.45349494711E+02  0.00000000000E+00 0.  1.
         14    1    6    6    0    0  0.18693140097E+02 -0.44751501934E+02 -0.61937158980E+02  0.78666016008E+02  0.00000000000E+00 0. -1.
         -5    1    3    3    0  503  0.49964915465E+02  0.12903847176E+02 -0.86351900212E+02  0.10070621987E+03  0.47000000000E+01 0.  1.
         13    1    4    4    0    0  0.65888586673E+01 -0.48484741435E+01 -0.27145176912E+02  0.28351038599E+02  0.00000000000E+00 0. -1.
        -14    1    4    4    0    0 -0.43121436283E+02  0.15272572804E+02  0.38240888733E+02  0.59624452352E+02  0.00000000000E+00 0.  1.
</event>
<event>
12    1  0.8196217E-002  0.2336579E+03  0.7818608E-02  0.1125782E+00
         21   -1    0    0  503  502  0.00000000000E+00  0.00000000000E+00  0.25457533471E+03  0.25457533471E+03  0.00000000000E+00 0. -1.
         21   -1    0    0  501  503 -0.00000000000E+00 -0.00000000000E+00 -0.30415058471E+03  0.30415058471E+03  0.00000000000E+00 0. -1.
          6    2    1    2  501    0  0.13910577227E+03  0.38158867924E+02 -0.18401643750E+03  0.29741897737E+03  0.18381916046E+03 0.  0.
         24    2    3    3    0    0  0.10904141588E+03 -0.26485914800E+02 -0.53407040785E+02  0.14854413742E+03  0.81372690129E+02 0.  0.
         -6    2    1    2    0  502 -0.13910577227E+03 -0.38158867924E+02  0.13444118750E+03  0.26130694205E+03  0.17146536090E+03 0.  0.
        -24    2    5    5    0    0 -0.12368375277E+03 -0.51461981476E+01  0.31592927244E+02  0.15209371167E+03  0.82524117835E+02 0.  0.
          5    1    3    3  501    0  0.30064356390E+02  0.64644782725E+02 -0.13060939672E+03  0.14887483995E+03  0.47000000000E+01 0. -1.
        -13    1    4    4    0    0  0.44939882491E+02  0.22060997325E+02  0.32659042187E+01  0.50169181492E+02  0.00000000000E+00 0.  1.
         14    1    4    4    0    0  0.64101533385E+02 -0.48546912125E+02 -0.56672945004E+02  0.98374955932E+02  0.00000000000E+00 0. -1.
         -5    1    5    5    0  502 -0.15422019495E+02 -0.33012669777E+02  0.10284826026E+03  0.10921323038E+03  0.47000000000E+01 0.  1.
         13    1    6    6    0    0 -0.44549949092E+02 -0.36351816561E+02  0.34361899966E+02  0.66984272039E+02  0.00000000000E+00 0. -1.
        -14    1    6    6    0    0 -0.79133803678E+02  0.31205618413E+02 -0.27689727222E+01  0.85109439635E+02  0.00000000000E+00 0.  1.
</event>
<event>
12    1  0.8196217E-002  0.1824681E+03  0.7818608E-02  0.1166263E+00
         21   -1    0    0  501  502  0.00000000000E+00  0.00000000000E+00  0.12778361792E+03  0.12778361792E+03  0.00000000000E+00 0.  1.
         21   -1    0    0  502  503 -0.00000000000E+00 -0.00000000000E+00 -0.16588295189E+04  0.16588295189E+04  0.00000000000E+00 0.  1.
         -6    2    1    2    0  503  0.31155759374E+02  0.51556141861E+02 -0.15882330531E+04  0.15986803425E+04  0.17223788558E+03 0.  0.
        -24    2    3    3    0    0  0.69871284247E+02  0.22046351841E+02 -0.13996710350E+04  0.14038793049E+04  0.80187644867E+02 0.  0.
          6    2    1    2  501    0 -0.31155759374E+02 -0.51556141861E+02  0.57187152141E+02  0.18793279436E+03  0.16858127927E+03 0.  0.
         24    2    5    5    0    0  0.64737326951E+01 -0.91366358319E+02  0.21414099498E+02  0.12233833344E+03  0.78220096679E+02 0.  0.
          5    1    5    5  501    0 -0.37629492069E+02  0.39810216458E+02  0.35773052643E+02  0.65594460919E+02  0.47000000000E+01 0. -1.
        -13    1    6    6    0    0 -0.12432531677E+02 -0.88764468642E+02  0.37712323889E+02  0.97241545187E+02  0.00000000000E+00 0.  1.
         14    1    6    6    0    0  0.18906264372E+02 -0.26018896771E+01 -0.16298224391E+02  0.25096788255E+02  0.00000000000E+00 0. -1.
         -5    1    3    3    0  503 -0.38715524873E+02  0.29509790020E+02 -0.18856201811E+03  0.19480103759E+03  0.47000000000E+01 0.  1.
         11    1    4    4    0    0 -0.14934719473E+02  0.12236974202E+01 -0.84960278846E+02  0.86271619103E+02  0.00000000000E+00 0. -1.
        -12    1    4    4    0    0  0.84806003719E+02  0.20822654420E+02 -0.13147107562E+04  0.13176076858E+04  0.00000000000E+00 0.  1.
</event>
<event>
12    1  0.8196217E-002  0.2534984E+03  0.7818608E-02  0.1111280E+00
         21   -1    0    0  503  502  0.00000000000E+00  0.00000000000E+00  0.79148573403E+02  0.79148573403E+02  0.00000000000E+00 0.  1.
         21   -1    0    0  501  503 -0.00000000000E+00 -0.00000000000E+00 -0.81629884494E+03  0.81629884494E+03  0.00000000000E+00 0. -1.
          6    2    1    2  501    0 -0.13752297636E+03  0.12605210455E+03 -0.41312151783E+03  0.48469661604E+03  0.17163833785E+03 0.  0.
         24    2    3    3    0    0 -0.12578135063E+03  0.90257348549E+02 -0.18658108437E+03  0.25499727272E+03  0.79017535492E+02 0.  0.
         -6    2    1    2    0  502  0.13752297636E+03 -0.12605210455E+03 -0.32402875371E+03  0.41075080230E+03  0.17005847897E+03 0.  0.
        -24    2    5    5    0    0  0.92807726723E+02 -0.27986098173E+02 -0.94955478342E+02  0.15754525212E+03  0.80046659933E+02 0.  0.
          5    1    3    3  501    0 -0.11741625733E+02  0.35794756005E+02 -0.22654043345E+03  0.22969934332E+03  0.47000000000E+01 0. -1.
        -11    1    4    4    0    0 -0.24543782616E+02  0.56189074358E+02 -0.38462635593E+02  0.72380823973E+02  0.00000000000E+00 0.  1.
         12    1    4    4    0    0 -0.10123756801E+03  0.34068274191E+02 -0.14811844878E+03  0.18261644875E+03  0.00000000000E+00 0. -1.
         -5    1    5    5    0  502  0.44715249639E+02 -0.98066006381E+02 -0.22907327536E+03  0.25320555018E+03  0.47000000000E+01 0.  1.
         11    1    6    6    0    0 -0.12500834784E+02 -0.61813346625E+01 -0.26838345258E+02  0.30245273097E+02  0.00000000000E+00 0. -1.
        -12    1    6    6    0    0  0.10530856151E+03 -0.21804763510E+02 -0.68117133084E+02  0.12729997902E+03  0.00000000000E+00 0.  1.
</event>
<event>
12    1  0.8196217E-002  0.2025536E+03  0.7818608E-02  0.1149154E+00
         21   -1    0    0  503  502  0.00000000000E+00  0.00000000000E+00  0.67392715686E+03  0.67392715686E+03  0.00000000000E+00 0.  1.
         21   -1    0    0  501  503 -0.00000000000E+00 -0.00000000000E+00 -0.67061264427E+02  0.67061264427E+02  0.00000000000E+00 0. -1.
          6    2    1    2  501    0 -0.10113822157E+03  0.17076811667E+02  0.16769106502E+03  0.25735376435E+03  0.16610270732E+03 0.  0.
         24    2    3    3    0    0 -0.13396360774E+02 -0.43163258586E+02  0.89202636682E+02  0.12502831864E+03  0.75049588254E+02 0.  0.
         -6    2    1    2    0  502  0.10113822157E+03 -0.17076811667E+02  0.43917482741E+03  0.48363465694E+03  0.17466366250E+03 0.  0.
        -24    2    5    5    0    0  0.13664730985E+03  0.81875387873E+01  0.34373842095E+03  0.37861379980E+03  0.80329224340E+02 0.  0.
          5    1    3    3  501    0 -0.87741860794E+02  0.60240070253E+02  0.78488428341E+02  0.13232544571E+03  0.47000000000E+01 0. -1.
        -13    1    4    4    0    0 -0.40818470136E+02 -0.44044313904E+02  0.58143562030E+02  0.83586619127E+02  0.00000000000E+00 0.  1.
         14    1    4    4    0    0  0.27422109361E+02  0.88105531726E+00  0.31059074651E+02  0.41441699513E+02  0.00000000000E+00 0. -1.
         -5    1    5    5    0  502 -0.35509088282E+02 -0.25264350454E+02  0.95436406461E+02  0.10502085713E+03  0.47000000000E+01 0.  1.
         11    1    6    6    0    0  0.80607427494E+02 -0.34563245748E+02  0.17507199682E+03  0.19581210227E+03  0.00000000000E+00 0. -1.
        -12    1    6    6    0    0  0.56039882356E+02  0.42750784536E+02  0.16866642413E+03  0.18280169754E+03  0.00000000000E+00 0.  1.
</event>
<event>
12    1  0.8196217E-002  0.2064625E+03  0.7818608E-02  0.1146147E+00
         21   -1    0    0  501  502  0.00000000000E+00  0.00000000000E+00  0.87028306214E+03  0.87028306214E+03  0.00000000000E+00 0. -1.
         21   -1    0    0  502  503 -0.00000000000E+00 -0.00000000000E+00 -0.47114011073E+02  0.47114011073E+02  0.00000000000E+00 0.  1.
         -6    2    1    2    0  503  0.41612804588E+02 -0.11340730470E+03  0.39724297707E+03  0.44769271220E+03  0.16743338813E+03 0.  0.
        -24    2    3    3    0    0 -0.17066704896E+01 -0.81097761376E+02  0.37154417012E+03  0.38766769917E+03  0.75242375055E+02 0.  0.
          6    2    1    2  501    0 -0.41612804588E+02  0.11340730470E+03  0.42592607400E+03  0.46970436101E+03  0.15689590173E+03 0.  0.
         24    2    5    5    0    0  0.31018239980E+02  0.47488035841E+02  0.22978595273E+03  0.25035610866E+03  0.81604854690E+02 0.  0.
          5    1    5    5  501    0 -0.72631044567E+02  0.65919268862E+02  0.19614012127E+03  0.21934825236E+03  0.47000000000E+01 0. -1.
        -11    1    6    6    0    0  0.13769719666E+02 -0.21333238737E+02  0.36528559545E+02  0.44486491401E+02  0.00000000000E+00 0.  1.
         12    1    6    6    0    0  0.17248520313E+02  0.68821274578E+02  0.19325739319E+03  0.20586961725E+03  0.00000000000E+00 0. -1.
         -5    1    3    3    0  503  0.43319475077E+02 -0.32309543327E+02  0.25698806952E+02  0.60025013034E+02  0.47000000000E+01 0.  1.
         13    1    4    4    0    0 -0.18428600608E+00 -0.33460902270E+01  0.19170918219E+03  0.19173846984E+03  0.00000000000E+00 0. -1.
        -14    1    4    4    0    0 -0.15223844835E+01 -0.77751671149E+02  0.17983498793E+03  0.19592922933E+03  0.00000000000E+00 0.  1.
</event>
<event>
12    1  0.8196217E-002  0.1894917E+03  0.7818608E-02  0.1159733E+00
         21   -1    0    0  501  502  0.00000000000E+00  0.00000000000E+00  0.73683219162E+02  0.73683219162E+02  0.00000000000E+00 0.  1.
         21   -1    0    0  502  503 -0.00000000000E+00 -0.00000000000E+00 -0.70277835243E+03  0.70277835243E+03  0.00000000000E+00 0.  1.
         -6    2    1    2    0  503  0.47448970109E+01  0.71076209436E+02 -0.53197010308E+03  0.56352878388E+03  0.17175027829E+03 0.  0.
        -24    2    3    3    0    0  0.16952379864E+02 -0.28037068282E+02 -0.27212446327E+03  0.28511486363E+03  0.78519434373E+02 0.  0.
          6    2    1    2  501    0 -0.47448970109E+01 -0.71076209436E+02 -0.97125030188E+02  0.21293278771E+03  0.17559259380E+03 0.  0.
         24    2    5    5    0    0 -0.10296468013E+02 -0.11739632741E+03 -0.65255702516E+02  0.15623960192E+03  0.79149172799E+02 0.  0.
          5    1    5    5  501    0  0.55515710018E+01  0.46320117969E+02 -0.31869327672E+02  0.56693185795E+02  0.47000000000E+01 0. -1.
        -11    1    6    6    0    0 -0.37560551659E+02 -0.80114610278E+02 -0.18260187956E+02  0.90346999315E+02  0.00000000000E+00 0.  1.
         12    1    6    6    0    0  0.27264083647E+02 -0.37281717128E+02 -0.46995514560E+02  0.65892602603E+02  0.00000000000E+00 0. -1.
         -5    1    3    3    0  503 -0.12207482853E+02  0.99113277718E+02 -0.25984563982E+03  0.27841392025E+03  0.47000000000E+01 0.  1.
         13    1    4    4    0    0 -0.17553197723E+02 -0.28889414664E+02 -0.50189935626E+02  0.60512334843E+02  0.00000000000E+00 0. -1.
        -14    1    4    4    0    0  0.34505577587E+02  0.85234638230E+00 -0.22193452764E+03  0.22460252879E+03  0.00000000000E+00 0.  1.
</event>
<event>
12    1  0.8196217E-002  0.2609129E+03  0.7818608E-02  0.1107099E+00
         21   -1    0    0  503  502  0.00000000000E+00  0.00000000000E+00  0.13076299222E+03  0.13076299222E+03  0.00000000000E+00 0.  1.
         21   -1    0    0  501  503 -0.00000000000E+00 -0.00000000000E+00 -0.62910215655E+03  0.62910215655E+03  0.00000000000E+00 0. -1.
          6    2    1    2  501    0  0.13085813821E+03 -0.14177567406E+03 -0.87944494322E+02  0.27533573740E+03  0.17564549557E+03 0.  0.
         24    2    3    3    0    0  0.15052344782E+03 -0.66622371686E+02 -0.61161450079E+02  0.19303042336E+03  0.80150936449E+02 0.  0.
         -6    2    1    2    0  502 -0.13085813821E+03  0.14177567406E+03 -0.41039467001E+03  0.48452941138E+03  0.17064809176E+03 0.  0.
        -24    2    5    5    0    0 -0.31202826423E+02  0.19335502919E+02 -0.80618921864E+02  0.11888352976E+03  0.79286852853E+02 0.  0.
          5    1    3    3  501    0 -0.19665309609E+02 -0.75153302379E+02 -0.26783044243E+02  0.82305314041E+02  0.47000000000E+01 0. -1.
        -13    1    4    4    0    0  0.10120046929E+03 -0.18602643231E+01 -0.27073411079E+02  0.10477578516E+03  0.00000000000E+00 0.  1.
         14    1    4    4    0    0  0.49322978528E+02 -0.64762107363E+02 -0.34088039000E+02  0.88254638200E+02  0.00000000000E+00 0. -1.
         -5    1    5    5    0  502 -0.99655311785E+02  0.12244017115E+03 -0.32977574815E+03  0.36564588162E+03  0.47000000000E+01 0.  1.
         13    1    6    6    0    0 -0.61925030328E+01  0.44170188948E+02 -0.68247152797E+02  0.81529298724E+02  0.00000000000E+00 0. -1.
        -14    1    6    6    0    0 -0.25010323390E+02 -0.24834686029E+02 -0.12371769067E+02  0.37354231033E+02  0.00000000000E+00 0.  1.
</event>
<event>
12    1  0.8196217E-002  0.3709074E+03  0.7818608E-02  0.1054418E+00
         21   -1    0    0  501  502  0.00000000000E+00  0.00000000000E+00  0.63461615167E+02  0.63461615167E+02  0.00000000000E+00 0.  1.
         21   -1    0    0  502  503 -0.00000000000E+00 -0.00000000000E+00 -0.23087128152E+04  0.23087128152E+04  0.00000000000E+00 0. -1.
         -6    2    1    2    0  503  0.15654713267E+03  0.28864936111E+03 -0.82400969022E+03  0.90333144557E+03  0.17085160978E+03 0.  0.
        -24    2    3    3    0    0  0.15866923572E+03  0.30431292420E+03 -0.77136303167E+03  0.84816251241E+03  0.81218462319E+02 0.  0.
          6    2    1    2  501    0 -0.15654713267E+03 -0.28864936111E+03 -0.14212415098E+04  0.14688429848E+04  0.17247268294E+03 0.  0.
         24    2    5    5    0    0 -0.17523983267E+03 -0.19344371630E+03 -0.10857069257E+04  0.11195306904E+04  0.80373926417E+02 0.  0.
          5    1    5    5  501    0  0.18692700006E+02 -0.95205644804E+02 -0.33553458413E+03  0.34931229435E+03  0.47000000000E+01 0. -1.
        -13    1    6    6    0    0 -0.11308631283E+03 -0.11392060190E+03 -0.49831787623E+03  0.52353330692E+03  0.00000000000E+00 0.  1.
         14    1    6    6    0    0 -0.62153519848E+02 -0.79523114402E+02 -0.58738904945E+03  0.59599738352E+03  0.00000000000E+00 0. -1.
         -5    1    3    3    0  503 -0.21221030556E+01 -0.15663563092E+02 -0.52646658549E+02  0.55168933164E+02  0.47000000000E+01 0.  1.
         13    1    4    4    0    0  0.11710215724E+02  0.10028986219E+03 -0.23602963960E+03  0.25672003502E+03  0.00000000000E+00 0. -1.
        -14    1    4    4    0    0  0.14695902000E+03  0.20402306201E+03 -0.53533339207E+03  0.59144247739E+03  0.00000000000E+00 0.  1.
</event>
<event>
12    1  0.8196217E-002  0.2014636E+03  0.7818608E-02  0.1148946E+00
         21   -1    0    0  501  502  0.00000000000E+00  0.00000000000E+00  0.14394625092E+03  0.14394625092E+03  0.00000000000E+00 0.  1.
         21   -1    0    0  502  503 -0.00000000000E+00 -0.00000000000E+00 -0.72849583268E+03  0.72849583268E+03  0.00000000000E+00 0.  1.
         -6    2    1    2    0  503 -0.20269442231E+02  0.97855762417E+02 -0.63548006197E+03  0.66665020121E+03  0.17493136109E+03 0.  0.
        -24    2    3    3    0    0 -0.68452593305E+02  0.25998223801E+02 -0.44488132807E+03  0.45728189113E+03  0.76326055315E+02 0.  0.
          6    2    1    2  501    0  0.20269442231E+02 -0.97855762417E+02  0.50930480210E+02  0.20579188239E+03  0.17253922602E+03 0.  0.
         24    2    5    5    0    0  0.41340243010E+02 -0.10560331284E+02 -0.18224309974E+02  0.92350505688E+02  0.79849571933E+02 0.  0.
          5    1    5    5  501    0 -0.21070800780E+02 -0.87295431133E+02  0.69154790184E+02  0.11344137670E+03  0.47000000000E+01 0. -1.
        -13    1    6    6    0    0  0.30259659517E+02 -0.43787078300E+02 -0.80320641215E+00  0.53231572968E+02  0.00000000000E+00 0.  1.
         14    1    6    6    0    0  0.11080583493E+02  0.33226747016E+02 -0.17421103562E+02  0.39118932720E+02  0.00000000000E+00 0. -1.
         -5    1    3    3    0  503  0.48183151075E+02  0.71857538616E+02 -0.19059873390E+03  0.20936831008E+03  0.47000000000E+01 0.  1.
         13    1    4    4    0    0 -0.16822315719E+02 -0.16545497784E+02 -0.36537181806E+02  0.43493786423E+02  0.00000000000E+00 0. -1.
        -14    1    4    4    0    0 -0.51630277586E+02  0.42543721585E+02 -0.40834414626E+03  0.41378810471E+03  0.00000000000E+00 0.  1.
</event>
<event>
12    1  0.8196217E-002  0.2045632E+03  0.7818608E-02  0.1147165E+00
         21   -1    0    0  501  502  0.00000000000E+00  0.00000000000E+00  0.44838378350E+03  0.44838378350E+03  0.00000000000E+00 0.  1.
         21   -1    0    0  502  503 -0.00000000000E+00 -0.00000000000E+00 -0.16364992484E+03  0.16364992484E+03  0.00000000000E+00 0.  1.
         -6    2    1    2    0  503 -0.95604998553E+02  0.27794776434E+02 -0.63123422799E+02  0.20848597697E+03  0.17195630475E+03 0.  0.
        -24    2    3    3    0    0 -0.41085156058E+02  0.50737081430E+02 -0.96152933719E+02  0.14057573345E+03  0.79081658376E+02 0.  0.
          6    2    1    2  501    0  0.95604998553E+02 -0.27794776434E+02  0.34785728147E+03  0.40354773136E+03  0.17869867899E+03 0.  0.
         24    2    5    5    0    0 -0.16372503250E+02  0.37348203409E+01  0.73994389626E+02  0.10596404581E+03  0.73967571015E+02 0.  0.
          5    1    5    5  501    0  0.11197750180E+03 -0.31529596775E+02  0.27386289184E+03  0.29758368556E+03  0.47000000000E+01 0. -1.
        -13    1    6    6    0    0  0.24578127533E+02 -0.39453567213E+01  0.54599805881E+02  0.60006574598E+02  0.00000000000E+00 0.  1.
         14    1    6    6    0    0 -0.40950630783E+02  0.76801770622E+01  0.19394583745E+02  0.45957471209E+02  0.00000000000E+00 0. -1.
         -5    1    3    3    0  503 -0.54519842495E+02 -0.22942304995E+02  0.33029510920E+02  0.67910243526E+02  0.47000000000E+01 0.  1.
         11    1    4    4    0    0 -0.21911303731E+02  0.28035003506E+02  0.42805800236E+01  0.35838387493E+02  0.00000000000E+00 0. -1.
        -12    1    4    4    0    0 -0.19173852327E+02  0.22702077924E+02 -0.10043351374E+03  0.10473734596E+03  0.00000000000E+00 0.  1.
</event>
<event>
12    1  0.8196217E-002  0.1754507E+03  0.7818608E-02  0.1172359E+00
         21   -1    0    0  503  502  0.00000000000E+00  0.00000000000E+00  0.67344960353E+03  0.67344960353E+03  0.00000000000E+00 0.  1.
         21   -1    0    0  501  503 -0.00000000000E+00 -0.00000000000E+00 -0.35250344728E+03  0.35250344728E+03  0.00000000000E+00 0.  1.
          6    2    1    2  501    0 -0.28554458805E+02  0.21451292688E+02 -0.31817273191E+03  0.36318922145E+03  0.17145555743E+03 0.  0.
         24    2    3    3    0    0 -0.52086672505E+02  0.55274038635E+02 -0.13958783672E+03  0.17985237842E+03  0.84225133198E+02 0.  0.
         -6    2    1    2    0  502  0.28554458805E+02 -0.21451292688E+02  0.63911888815E+03  0.66276382935E+03  0.17177725469E+03 0.  0.
        -24    2    5    5    0    0  0.30324048974E+02  0.74654664712E+01  0.13870666903E+03  0.16149165831E+03  0.76581554804E+02 0.  0.
          5    1    3    3  501    0  0.23532213700E+02 -0.33822745947E+02 -0.17858489518E+03  0.18333684303E+03  0.47000000000E+01 0. -1.
        -11    1    4    4    0    0 -0.62924438315E+02  0.76450743882E+01 -0.91468372909E+02  0.11128519822E+03  0.00000000000E+00 0.  1.
         12    1    4    4    0    0  0.10837765810E+02  0.47628964247E+02 -0.48119463812E+02  0.68567180200E+02  0.00000000000E+00 0. -1.
         -5    1    5    5    0  502 -0.17695901689E+01 -0.28916759159E+02  0.50041221913E+03  0.50127217104E+03  0.47000000000E+01 0.  1.
         13    1    6    6    0    0  0.40999201867E+02 -0.19499721426E+02  0.47162850210E+02  0.65463792507E+02  0.00000000000E+00 0. -1.
        -14    1    6    6    0    0 -0.10675152893E+02  0.26965187898E+02  0.91543818817E+02  0.96027865806E+02  0.00000000000E+00 0.  1.
</event>
<event>
12    1  0.8196217E-002  0.2178418E+03  0.7818608E-02  0.1135894E+00
         21   -1    0    0  501  502  0.00000000000E+00  0.00000000000E+00  0.21502110820E+03  0.21502110820E+03  0.00000000000E+00 0.  1.
         21   -1    0    0  502  503 -0.00000000000E+00 -0.00000000000E+00 -0.22644641331E+03  0.22644641331E+03  0.00000000000E+00 0. -1.
         -6    2    1    2    0  503  0.25783016855E+02 -0.12743000025E+03 -0.46734119713E+02  0.22078279307E+03  0.17221438630E+03 0.  0.
        -24    2    3    3    0    0  0.30434638898E+01 -0.42080945600E+02  0.37351699982E+02  0.98741556297E+02  0.81084380699E+02 0.  0.
          6    2    1    2  501    0 -0.25783016855E+02  0.12743000025E+03  0.35308814608E+02  0.22068472844E+03  0.17479092670E+03 0.  0.
         24    2    5    5    0    0 -0.75101998969E+02  0.40239946211E+02  0.28620024366E+02  0.12017951746E+03  0.79777484925E+02 0.  0.
          5    1    5    5  501    0  0.49318982114E+02  0.87190054038E+02  0.66887902420E+01  0.10050521098E+03  0.47000000000E+01 0. -1.
        -13    1    6    6    0    0 -0.28564197509E+02 -0.23988495442E+02  0.11538524522E+02  0.39044831169E+02  0.00000000000E+00 0.  1.
         14    1    6    6    0    0 -0.46537801460E+02  0.64228441652E+02  0.17081499844E+02  0.81134686286E+02  0.00000000000E+00 0. -1.
         -5    1    3    3    0  503  0.22739552965E+02 -0.85349054649E+02 -0.84085819695E+02  0.12204123677E+03  0.47000000000E+01 0.  1.
         11    1    4    4    0    0 -0.24337661523E+02 -0.29027773484E+02 -0.12923505879E+02  0.40024372650E+02  0.00000000000E+00 0. -1.
        -12    1    4    4    0    0  0.27381125412E+02 -0.13053172116E+02  0.50275205860E+02  0.58717183647E+02  0.00000000000E+00 0.  1.
</event>
<event>
12    1  0.8196217E-002  0.1962005E+03  0.7818608E-02  0.1153092E+00
         21   -1    0    0  501  502  0.00000000000E+00  0.00000000000E+00  0.51987535816E+02  0.51987535816E+02  0.00000000000E+00 0. -1.
         21   -1    0    0  502  503 -0.00000000000E+00 -0.00000000000E+00 -0.87166903667E+03  0.87166903667E+03  0.00000000000E+00 0. -1.
         -6    2    1    2    0  503  0.76004608226E+02 -0.53003007207E+02 -0.58985207932E+03  0.62147089221E+03  0.17237916100E+03 0.  0.
        -24    2    3    3    0    0  0.45834385280E+02 -0.41077342852E+02 -0.57787490490E+03  0.58657094193E+03  0.79611087341E+02 0.  0.
          6    2    1    2  501    0 -0.76004608226E+02  0.53003007207E+02 -0.22982942153E+03  0.30218568027E+03  0.17294103941E+03 0.  0.
         24    2    5    5    0    0  0.20221158378E+02  0.54675206255E+02 -0.12409970948E+03  0.15913654039E+03  0.80780116183E+02 0.  0.
          5    1    5    5  501    0 -0.96225766605E+02 -0.16721990482E+01 -0.10572971205E+03  0.14304913987E+03  0.47000000000E+01 0. -1.
        -13    1    6    6    0    0  0.27098552639E+02 -0.70183905971E+01 -0.74798150752E+02  0.79864589886E+02  0.00000000000E+00 0.  1.
         14    1    6    6    0    0 -0.68773942609E+01  0.61693596852E+02 -0.49301558726E+02  0.79271950507E+02  0.00000000000E+00 0. -1.
         -5    1    3    3    0  503  0.30170222947E+02 -0.11925664355E+02 -0.11977174415E+02  0.34899950285E+02  0.47000000000E+01 0.  1.
         11    1    4    4    0    0  0.19797939722E+02  0.13625948871E+02 -0.34857800419E+03  0.34940556651E+03  0.00000000000E+00 0. -1.
        -12    1    4    4    0    0  0.26036445557E+02 -0.54703291723E+02 -0.22929690071E+03  0.23716537542E+03  0.00000000000E+00 0.  1.
</event>
<event>
12    1  0.8196217E-002  0.1979811E+03  0.7818608E-02  0.1151460E+00
         21   -1    0    0  503  502  0.00000000000E+00  0.00000000000E+00  0.26969280761E+03  0.26969280761E+03  0.00000000000E+00 0.  1.
         21   -1    0    0  501  503 -0.00000000000E+00 -0.00000000000E+00 -0.45762037903E+03  0.45762037903E+03  0.00000000000E+00 0.  1.
          6    2    1    2  501    0  0.68294820774E+02 -0.69925565780E+02 -0.39438067103E+03  0.44127230904E+03  0.17213764769E+03 0.  0.
         24    2    3    3    0    0  0.58928026599E+02 -0.75483445778E+02 -0.40594611709E+03  0.42470497957E+03  0.80073758430E+02 0.  0.
         -6    2    1    2    0  502 -0.68294820774E+02  0.69925565780E+02  0.20645309961E+03  0.28604087761E+03  0.17217065380E+03 0.  0.
        -24    2    5    5    0    0  0.30659594366E+02  0.27610932564E+02  0.11347228900E+03  0.14373829294E+03  0.77989500345E+02 0.  0.
          5    1    3    3  501    0  0.93667941744E+01  0.55578799978E+01  0.11565446061E+02  0.16567329470E+02  0.47000000000E+01 0. -1.
        -11    1    4    4    0    0  0.43551788515E+01 -0.44777392120E+02 -0.28481112625E+03  0.28834243542E+03  0.00000000000E+00 0.  1.
         12    1    4    4    0    0  0.54572847748E+02 -0.30706053657E+02 -0.12113499084E+03  0.13636254416E+03  0.00000000000E+00 0. -1.
         -5    1    5    5    0  502 -0.98954415140E+02  0.42314633216E+02  0.92980810612E+02  0.14230258466E+03  0.47000000000E+01 0.  1.
         11    1    6    6    0    0 -0.63466878121E-02  0.12109980372E+02 -0.99179589067E+01  0.15653037205E+02  0.00000000000E+00 0. -1.
        -12    1    6    6    0    0  0.30665941054E+02  0.15500952193E+02  0.12339024790E+03  0.12808525574E+03  0.00000000000E+00 0.  1.
</event>
<event>
12    1  0.8196217E-002  0.2137487E+03  0.7818608E-02  0.1138719E+00
         21   -1    0    0  503  502  0.00000000000E+00  0.00000000000E+00  0.27058438277E+02  0.27058438277E+02  0.00000000000E+00 0.  1.
         21   -1    0    0  501  503 -0.00000000000E+00 -0.00000000000E+00 -0.23178141863E+04  0.23178141863E+04  0.00000000000E+00 0.  1.
          6    2    1    2  501    0  0.12399930856E+03 -0.22599762749E+02 -0.17588934704E+04  0.17718337198E+04  0.17263230468E+03 0.  0.
         24    2    3    3    0    0  0.37512471346E+02  0.10319438657E+01 -0.41484284730E+03  0.42478784158E+03  0.83317897171E+02 0.  0.
         -6    2    1    2    0  502 -0.12399930856E+03  0.22599762749E+02 -0.53186227759E+03  0.57303890474E+03  0.17207418813E+03 0.  0.
        -24    2    5    5    0    0 -0.14160223294E+03  0.24750608351E+02 -0.52973219133E+03  0.55456956932E+03  0.79167087152E+02 0.  0.
          5    1    3    3  501    0  0.86486837217E+02 -0.23631706614E+02 -0.13440506231E+04  0.13470458782E+04  0.47000000000E+01 0. -1.
        -13    1    4    4    0    0  0.52879751621E+02 -0.25221707459E+02 -0.22396062960E+03  0.23149679537E+03  0.00000000000E+00 0.  1.
         14    1    4    4    0    0 -0.15367280274E+02  0.26253651325E+02 -0.19088221770E+03  0.19329104621E+03  0.00000000000E+00 0. -1.
         -5    1    5    5    0  502  0.17602924377E+02 -0.21508456026E+01 -0.21300862511E+01  0.18469335420E+02  0.47000000000E+01 0.  1.
         13    1    6    6    0    0  0.86092147088E+01  0.98309688600E+01 -0.37495509889E+02  0.39707427372E+02  0.00000000000E+00 0. -1.
        -14    1    6    6    0    0 -0.15021144765E+03  0.14919639491E+02 -0.49223668145E+03  0.51486214194E+03  0.00000000000E+00 0.  1.
</event>
<event>
12    1  0.8196217E-002  0.1920847E+03  0.7818608E-02  0.1156751E+00
         21   -1    0    0  503  502  0.00000000000E+00  0.00000000000E+00  0.17320208703E+03  0.17320208703E+03  0.00000000000E+00 0.  1.
         21   -1    0    0  501  503 -0.00000000000E+00 -0.00000000000E+00 -0.21885053499E+03  0.21885053499E+03  0.00000000000E+00 0.  1.
          6    2    1    2  501    0  0.42663636169E+02 -0.72218560726E+02  0.11189298406E+02  0.19241032798E+03  0.17280285747E+03 0.  0.
         24    2    3    3    0    0  0.66686639056E+02  0.61365335972E+00 -0.26782483296E+02  0.10670395551E+03  0.78872988471E+02 0.  0.
         -6    2    1    2    0  502 -0.42663636169E+02  0.72218560726E+02 -0.56837746362E+02  0.19964229405E+03  0.17201979478E+03 0.  0.
        -24    2    5    5    0    0 -0.30102192800E+02  0.79682926155E+02  0.22256724144E+02  0.11907225076E+03  0.80170620550E+02 0.  0.
          5    1    3    3  501    0 -0.24023002887E+02 -0.72832214086E+02  0.37971781702E+02  0.85706372470E+02  0.47000000000E+01 0. -1.
        -11    1    4    4    0    0  0.20355543669E+02 -0.29063999644E+02  0.14073782018E+02  0.38172445215E+02  0.00000000000E+00 0.  1.
         12    1    4    4    0    0  0.46331095386E+02  0.29677653004E+02 -0.40856265314E+02  0.68531510292E+02  0.00000000000E+00 0. -1.
         -5    1    5    5    0  502 -0.12561443369E+02 -0.74643654285E+01 -0.79094470506E+02  0.80570043287E+02  0.47000000000E+01 0.  1.
         11    1    6    6    0    0  0.10924358400E+02 -0.61823785316E+01  0.20325962123E+02  0.23889498676E+02  0.00000000000E+00 0. -1.
        -12    1    6    6    0    0 -0.41026551200E+02  0.85865304686E+02  0.19307620206E+01  0.95182752083E+02  0.00000000000E+00 0.  1.
</event>
<event>
12    1  0.8196217E-002  0.1978283E+03  0.7818608E-02  0.1151815E+00
         21   -1    0    0  501  502  0.00000000000E+00  0.00000000000E+00  0.39079575856E+02  0.39079575856E+02  0.00000000000E+00 0.  1.
         21   -1    0    0  502  503 -0.00000000000E+00 -0.00000000000E+00 -0.10022317447E+04  0.10022317447E+04  0.00000000000E+00 0.  1.
         -6    2    1    2    0  503 -0.97710797103E+02 -0.13329481797E+02 -0.43925736471E+03  0.48130970472E+03  0.17025546820E+03 0.  0.
        -24    2    3    3    0    0  0.70844081245E+00  0.28689748941E+02 -0.14357332518E+03  0.16682106681E+03  0.79952267291E+02 0.  0.
          6    2    1    2  501    0  0.97710797103E+02  0.13329481797E+02 -0.52389480409E+03  0.56000161579E+03  0.17149626521E+03 0.  0.
         24    2    5    5    0    0  0.44784374573E+02  0.52224184326E+01 -0.11137675747E+03  0.14399661646E+03  0.79355715534E+02 0.  0.
          5    1    5    5  501    0  0.52926422530E+02  0.81070633642E+01 -0.41251804663E+03  0.41600499933E+03  0.47000000000E+01 0. -1.
        -13    1    6    6    0    0  0.63980467869E+02  0.98802815291E+01 -0.57407177215E+02  0.86525743150E+02  0.00000000000E+00 0.  1.
         14    1    6    6    0    0 -0.19196093296E+02 -0.46578630965E+01 -0.53969580250E+02  0.57470873309E+02  0.00000000000E+00 0. -1.
         -5    1    3    3    0  503 -0.98419237915E+02 -0.42019230737E+02 -0.29568403953E+03  0.31448863791E+03  0.47000000000E+01 0.  1.
         13    1    4    4    0    0  0.16770450402E+02 -0.21978904871E+02 -0.26728251642E+02  0.38454124640E+02  0.00000000000E+00 0. -1.
        -14    1    4    4    0    0 -0.16062009590E+02  0.50668653812E+02 -0.11684507354E+03  0.12836694217E+03  0.00000000000E+00 0.  1.
</event>
<event>
12    1  0.8196217E-002  0.1950778E+03  0.7818608E-02  0.1154107E+00
         21   -1    0    0  503  502  0.00000000000E+00  0.00000000000E+00  0.25122059166E+03  0.25122059166E+03  0.00000000000E+00 0.  1.
         21   -1    0    0  501  503 -0.00000000000E+00 -0.00000000000E+00 -0.23213916573E+03  0.23213916573E+03  0.00000000000E+00 0.  1.
          6    2    1    2  501    0 -0.83428711936E+02 -0.35956502169E+02 -0.13336901321E+03  0.23631049929E+03  0.17263295851E+03 0.  0.
         24    2    3    3    0    0 -0.88583515110E+02 -0.30638941185E+02 -0.16376384250E+03  0.20467532744E+03  0.79294449271E+02 0.  0.
         -6    2    1    2    0  502  0.83428711936E+02  0.35956502169E+02  0.15245043915E+03  0.24704925810E+03  0.17186907665E+03 0.  0.
        -24    2    5    5    0    0 -0.23154411886E+02  0.67857723883E+01  0.77870505115E+02  0.11365079365E+03  0.79186576089E+02 0.  0.
          5    1    3    3  501    0  0.51548031744E+01 -0.53175609839E+01  0.30394829287E+02  0.31635171850E+02  0.47000000000E+01 0. -1.
        -11    1    4    4    0    0 -0.55155563718E+02  0.22528760091E+02 -0.87901172622E+02  0.10618991190E+03  0.00000000000E+00 0.  1.
         12    1    4    4    0    0 -0.33427951392E+02 -0.53167701276E+02 -0.75862669877E+02  0.98485415540E+02  0.00000000000E+00 0. -1.
         -5    1    5    5    0  502  0.10658312382E+03  0.29170729781E+02  0.74579934033E+02  0.13339846446E+03  0.47000000000E+01 0.  1.
         13    1    6    6    0    0  0.67058323520E+01 -0.19841421329E+02 -0.50842853789E+01  0.21552265443E+02  0.00000000000E+00 0. -1.
        -14    1    6    6    0    0 -0.29860244238E+02  0.26627193717E+02  0.82954790494E+02  0.92098528203E+02  0.00000000000E+00 0.  1.
</event>
<event>
12    1  0.8196217E-002  0.1797350E+03  0.7818608E-02  0.1168578E+00
         21   -1    0    0  503  502  0.00000000000E+00  0.00000000000E+00  0.22594234549E+03  0.22594234549E+03  0.00000000000E+00 0. -1.
         21   -1    0    0  501  503 -0.00000000000E+00 -0.00000000000E+00 -0.14924941945E+03  0.14924941945E+03  0.00000000000E+00 0. -1.
          6    2    1    2  501    0 -0.43339210368E+02  0.27212174336E+02 -0.51837678361E+01  0.17768619553E+03  0.17007857903E+03 0.  0.
         24    2    3    3    0    0 -0.50232391766E+02 -0.19384998078E+02  0.46075720317E+02  0.10791200580E+03  0.81381556024E+02 0.  0.
         -6    2    1    2    0  502  0.43339210368E+02 -0.27212174336E+02  0.81876693873E+02  0.19750556940E+03  0.17229587156E+03 0.  0.
        -24    2    5    5    0    0  0.73893138101E+02 -0.65521413430E+02  0.41587814212E+02  0.13389406003E+03  0.80279645891E+02 0.  0.
          5    1    3    3  501    0  0.68931813974E+01  0.46597172413E+02 -0.51259488153E+02  0.69774189729E+02  0.47000000000E+01 0. -1.
        -13    1    4    4    0    0  0.17883110089E+01 -0.11720795800E+02  0.53509109197E+02  0.54806932751E+02  0.00000000000E+00 0.  1.
         14    1    4    4    0    0 -0.52020702775E+02 -0.76642022776E+01 -0.74333888805E+01  0.53105073053E+02  0.00000000000E+00 0. -1.
         -5    1    5    5    0  502 -0.30553927733E+02  0.38309239094E+02  0.40288879662E+02  0.63611509369E+02  0.47000000000E+01 0.  1.
         13    1    6    6    0    0  0.39435498899E+02  0.69889838117E+01  0.35266754052E+02  0.53364299016E+02  0.00000000000E+00 0. -1.
        -14    1    6    6    0    0  0.34457639202E+02 -0.72510397242E+02  0.63210601596E+01  0.80529761015E+02  0.00000000000E+00 0.  1.
</event>
<event>
12    1  0.8196217E-002  0.2541916E+03  0.7818608E-02  0.1111030E+00
         21   -1    0    0  503  502  0.00000000000E+00  0.00000000000E+00  0.42740688485E+02  0.42740688485E+02  0.00000000000E+00 0. -1.
         21   -1    0    0  501  503 -0.00000000000E+00 -0.00000000000E+00 -0.19112134779E+04  0.19112134779E+04  0.00000000000E+00 0.  1.
          6    2    1    2  501    0  0.17393286560E+03  0.69795209099E+02 -0.13849831553E+04  0.14077165109E+04  0.16841443382E+03 0.  0.
         24    2    3    3    0    0  0.95689661967E+02  0.27377092999E+02 -0.11370836374E+04  0.11442823512E+04  0.80727221165E+02 0.  0.
         -6    2    1    2    0  502 -0.17393286560E+03 -0.69795209099E+02 -0.48348963409E+03  0.54623765551E+03  0.17172459658E+03 0.  0.
        -24    2    5    5    0    0 -0.18704850595E+03 -0.75454904941E+02 -0.35074182979E+03  0.41264079280E+03  0.81067912633E+02 0.  0.
          5    1    3    3  501    0  0.78243203635E+02  0.42418116100E+02 -0.24789951791E+03  0.26343415965E+03  0.47000000000E+01 0. -1.
        -11    1    4    4    0    0  0.16671700676E+01  0.33610959344E+02 -0.33311418418E+03  0.33480970079E+03  0.00000000000E+00 0.  1.
         12    1    4    4    0    0  0.94022491900E+02 -0.62338663453E+01 -0.80396945325E+03  0.80947265045E+03  0.00000000000E+00 0. -1.
         -5    1    5    5    0  502  0.13115640351E+02  0.56596958422E+01 -0.13274780430E+03  0.13359686271E+03  0.47000000000E+01 0.  1.
         13    1    6    6    0    0 -0.73426964158E+02  0.11489882797E+01 -0.76352467516E+02  0.10593648349E+03  0.00000000000E+00 0. -1.
        -14    1    6    6    0    0 -0.11362154180E+03 -0.76603893221E+02 -0.27438936228E+03  0.30670430931E+03  0.00000000000E+00 0.  1.
</event>
<event>
12    1  0.8196217E-002  0.2096978E+03  0.7818608E-02  0.1142900E+00
         21   -1    0    0  501  502  0.00000000000E+00  0.00000000000E+00  0.10964566316E+03  0.10964566316E+03  0.00000000000E+00 0. -1.
         21   -1    0    0  502  503 -0.00000000000E+00 -0.00000000000E+00 -0.73325133560E+03  0.73325133560E+03  0.00000000000E+00 0. -1.
         -6    2    1    2    0  503 -0.10505372080E+03 -0.20857435286E+02 -0.60202625228E+03  0.63750198248E+03  0.18028270128E+03 0.  0.
        -24    2    3    3    0    0  0.22260133238E+02 -0.92275962277E+01 -0.24962715756E+03  0.26260028531E+03  0.77875092230E+02 0.  0.
          6    2    1    2  501    0  0.10505372080E+03  0.20857435286E+02 -0.21579420159E+02  0.20539501628E+03  0.17392562916E+03 0.  0.
         24    2    5    5    0    0  0.40045618448E+02  0.73759670197E+02  0.78271435754E+01  0.11644820172E+03  0.80341639286E+02 0.  0.
          5    1    5    5  501    0  0.65008102351E+02 -0.52902234910E+02 -0.29406563734E+02  0.88946814560E+02  0.47000000000E+01 0. -1.
        -11    1    6    6    0    0  0.45353855444E+02  0.16380164571E+02 -0.20306769362E+02  0.52322527432E+02  0.00000000000E+00 0.  1.
         12    1    6    6    0    0 -0.53082369955E+01  0.57379505626E+02  0.28133912938E+02  0.64125674289E+02  0.00000000000E+00 0. -1.
         -5    1    3    3    0  503 -0.12731385404E+03 -0.11629839058E+02 -0.35239909472E+03  0.37490169717E+03  0.47000000000E+01 0.  1.
         13    1    4    4    0    0  0.12047356728E+01 -0.40464242614E+02 -0.91625485566E+02  0.10017003506E+03  0.00000000000E+00 0. -1.
        -14    1    4    4    0    0  0.21055397565E+02  0.31236646386E+02 -0.15800167200E+03  0.16243025025E+03  0.00000000000E+00 0.  1.
</event>
<event>
12    1  0.8196217E-002  0.1809019E+03  0.7818608E-02  0.1167539E+00
         21   -1    0    0  501  502  0.00000000000E+00  0.00000000000E+00  0.53017355269E+02  0.53017355269E+02  0.00000000000E+00 0.  1.
         21   -1    0    0  502  503 -0.00000000000E+00 -0.00000000000E+00 -0.61874106907E+03  0.61874106907E+03  0.00000000000E+00 0.  1.
         -6    2    1    2    0  503 -0.27944264200E+02 -0.35111798976E+02 -0.32361207335E+03  0.36952748193E+03  0.17266170841E+03 0.  0.
        -24    2    3    3    0    0  0.20373823744E+02 -0.11602457149E+02 -0.71573132466E+02  0.11178139660E+03  0.82599380325E+02 0.  0.
          6    2    1    2  501    0  0.27944264200E+02  0.35111798976E+02 -0.24211164045E+03  0.30223094241E+03  0.17524775542E+03 0.  0.
         24    2    5    5    0    0 -0.51845151258E+02  0.26969292474E+02 -0.99910230026E+02  0.13890310536E+03  0.76790339028E+02 0.  0.
          5    1    5    5  501    0  0.79789415458E+02  0.81425065022E+01 -0.14220141042E+03  0.16332783706E+03  0.47000000000E+01 0. -1.
        -13    1    6    6    0    0 -0.64129720311E+02 -0.23132231844E+01 -0.59522175595E+02  0.87526346983E+02  0.00000000000E+00 0.  1.
         14    1    6    6    0    0  0.12284569053E+02  0.29282515658E+02 -0.40388054432E+02  0.51376758373E+02  0.00000000000E+00 0. -1.
         -5    1    3    3    0  503 -0.48318087945E+02 -0.23509341828E+02 -0.25203894089E+03  0.25774608532E+03  0.47000000000E+01 0.  1.
         13    1    4    4    0    0 -0.29282197845E+02 -0.13192758851E+02 -0.12180086064E+02  0.34348951851E+02  0.00000000000E+00 0. -1.
        -14    1    4    4    0    0  0.49656021590E+02  0.15903017027E+01 -0.59393046401E+02  0.77432444753E+02  0.00000000000E+00 0.  1.
</event>
<event>
12    1  0.8196217E-002  0.1932881E+03  0.7818608E-02  0.1156431E+00
         21   -1    0    0  501  502  0.00000000000E+00  0.00000000000E+00  0.20925007323E+03  0.20925007323E+03  0.00000000000E+00 0.  1.
         21   -1    0    0  502  503 -0.00000000000E+00 -0.00000000000E+00 -0.20903778512E+03  0.20903778512E+03  0.00000000000E+00 0.  1.
         -6    2    1    2    0  503  0.38575695808E+02 -0.69967226441E+02  0.84712368845E+02  0.20733632188E+03  0.17154785878E+03 0.  0.
        -24    2    3    3    0    0  0.73180172231E+02 -0.25973400077E+02  0.99142058292E+02  0.14934293877E+03  0.80275840197E+02 0.  0.
          6    2    1    2  501    0 -0.38575695808E+02  0.69967226441E+02 -0.84500080741E+02  0.21095153647E+03  0.17600224434E+03 0.  0.
         24    2    5    5    0    0 -0.63341184052E+02 -0.14771414822E+02 -0.46369551642E+02  0.11467072852E+03  0.82273570277E+02 0.  0.
          5    1    5    5  501    0  0.24765488244E+02  0.84738641263E+02 -0.38130529099E+02  0.96280807955E+02  0.47000000000E+01 0. -1.
        -13    1    6    6    0    0 -0.60372471324E+01  0.30300584780E+02 -0.21497419858E+02  0.37639246160E+02  0.00000000000E+00 0.  1.
         14    1    6    6    0    0 -0.57303936920E+02 -0.45071999602E+02 -0.24872131784E+02  0.77031482357E+02  0.00000000000E+00 0. -1.
         -5    1    3    3    0  503 -0.34604476423E+02 -0.43993826363E+02 -0.14429689447E+02  0.57993383107E+02  0.47000000000E+01 0.  1.
         13    1    4    4    0    0  0.51143721013E+02 -0.15717559163E+02  0.68943375489E+01  0.53946767793E+02  0.00000000000E+00 0. -1.
        -14    1    4    4    0    0  0.22036451219E+02 -0.10255840915E+02  0.92247720743E+02  0.95396170979E+02  0.00000000000E+00 0.  1.
</event>
<event>
12    1  0.8196217E-002  0.1984138E+03  0.7818608E-02  0.1151447E+00
         21   -1    0    0  503  502  0.00000000000E+00  0.00000000000E+00  0.19705993901E+03  0.19705993901E+03  0.00000000000E+00 0.  1.
         21   -1    0    0  501  503 -0.00000000000E+00 -0.00000000000E+00 -0.10703449218E+04  0.10703449218E+04  0.00000000000E+00 0.  1.
          6    2    1    2  501    0 -0.94586491455E+02  0.77014631402E+01 -0.10090571605E+04  0.10283795054E+04  0.17424734408E+03 0.  0.
         24    2    3    3    0    0 -0.85878999539E+02 -0.60316480269E+01 -0.33818062831E+03  0.35728947396E+03  0.76668425685E+02 0.  0.
         -6    2    1    2    0  502  0.94586491455E+02 -0.77014631402E+01  0.13577217777E+03  0.23902535543E+03  0.17231691555E+03 0.  0.
        -24    2    5    5    0    0  0.74013993559E+02  0.59701661550E+02  0.73915114175E+02  0.14513821465E+03  0.80989490764E+02 0.  0.
          5    1    3    3  501    0 -0.87074919165E+01  0.13733111167E+02 -0.67087653224E+03  0.67109003142E+03  0.47000000000E+01 0. -1.
        -13    1    4    4    0    0 -0.35642965579E+02  0.33402177552E+02 -0.11037735371E+03  0.12070330017E+03  0.00000000000E+00 0.  1.
         14    1    4    4    0    0 -0.50236033960E+02 -0.39433825579E+02 -0.22780327460E+03  0.23658617379E+03  0.00000000000E+00 0. -1.
         -5    1    5    5    0  502  0.20572497896E+02 -0.67403124690E+02  0.61857063593E+02  0.93887140781E+02  0.47000000000E+01 0.  1.
         11    1    6    6    0    0  0.65733071755E+02  0.28781599538E+02  0.84339820734E+01  0.72251984387E+02  0.00000000000E+00 0. -1.
        -12    1    6    6    0    0  0.82809218042E+01  0.30920062011E+02  0.65481132102E+02  0.72886230264E+02  0.00000000000E+00 0.  1.
</event>
<event>
12    1  0.8196217E-002  0.2165799E+03  0.7818608E-02  0.1136797E+00
         21   -1    0    0  503  502  0.00000000000E+00  0.00000000000E+00  0.40253442285E+03  0.40253442285E+03  0.00000000000E+00 0.  1.
         21   -1    0    0  501  503 -0.00000000000E+00 -0.00000000000E+00 -0.11575562615E+03  0.11575562615E+03  0.00000000000E+00 0.  1.
          6    2    1    2  501    0  0.12431101989E+03 -0.30505724833E+02  0.15293376207E+03  0.26368966999E+03  0.17250993468E+03 0.  0.
         24    2    3    3    0    0  0.11565300781E+03 -0.66023139132E+02  0.65503958581E+02  0.16880812051E+03  0.80440909032E+02 0.  0.
         -6    2    1    2    0  502 -0.12431101989E+03  0.30505724833E+02  0.13384503462E+03  0.25460037902E+03  0.17470841648E+03 0.  0.
        -24    2    5    5    0    0 -0.34493445284E+02  0.57315705730E+02  0.11897185695E+03  0.15957789117E+03  0.82679578568E+02 0.  0.
          5    1    3    3  501    0  0.86580120786E+01  0.35517414298E+02  0.87429803491E+02  0.94881549471E+02  0.47000000000E+01 0. -1.
        -11    1    4    4    0    0  0.11006966159E+03 -0.34298784959E+02  0.26635185330E+02  0.11832654034E+03  0.00000000000E+00 0.  1.
         12    1    4    4    0    0  0.55833462204E+01 -0.31724354173E+02  0.38868773251E+02  0.50481580173E+02  0.00000000000E+00 0. -1.
         -5    1    5    5    0  502 -0.89817574602E+02 -0.26809980896E+02  0.14873177671E+02  0.95022487850E+02  0.47000000000E+01 0.  1.
         13    1    6    6    0    0  0.24879461511E+02  0.23773902653E+02  0.21349533147E+02  0.40496772933E+02  0.00000000000E+00 0. -1.
        -14    1    6    6    0    0 -0.59372906795E+02  0.33541803076E+02  0.97622323804E+02  0.11908111823E+03  0.00000000000E+00 0.  1.
</event>
<event>
12    1  0.8196217E-002  0.1846179E+03  0.7818608E-02  0.1163692E+00
         21   -1    0    0  503  502  0.00000000000E+00  0.00000000000E+00  0.40220541948E+03  0.40220541948E+03  0.00000000000E+00 0.  1.
         21   -1    0    0  501  503 -0.00000000000E+00 -0.00000000000E+00 -0.93979988856E+02  0.93979988856E+02  0.00000000000E+00 0.  1.
          6    2    1    2  501    0 -0.54894795886E+02  0.43058477795E+02  0.73572156981E+02  0.19761225839E+03  0.16961801572E+03 0.  0.
         24    2    3    3    0    0 -0.44319028804E+02  0.91100611541E+02  0.17640664214E+02  0.12297771312E+03  0.67444993534E+02 0.  0.
         -6    2    1    2    0  502  0.54894795886E+02 -0.43058477795E+02  0.23465327365E+03  0.29857314995E+03  0.17092775057E+03 0.  0.
        -24    2    5    5    0    0  0.62635087545E+02 -0.45046841777E+01  0.73781635121E+02  0.13289852546E+03  0.90966158643E+02 0.  0.
          5    1    3    3  501    0 -0.10575767082E+02 -0.48042133746E+02  0.55931492767E+02  0.74634545268E+02  0.47000000000E+01 0. -1.
        -13    1    4    4    0    0 -0.41359936943E+02  0.28569064753E+02  0.30875257073E+02  0.58992519391E+02  0.00000000000E+00 0.  1.
         14    1    4    4    0    0 -0.29590918613E+01  0.62531546787E+02 -0.13234592859E+02  0.63985193728E+02  0.00000000000E+00 0. -1.
         -5    1    5    5    0  502 -0.77402916590E+01 -0.38553793617E+02  0.16087163853E+03  0.16567462449E+03  0.47000000000E+01 0.  1.
         13    1    6    6    0    0 -0.38212187674E+01  0.26810735747E+02  0.47866850923E+02  0.54996842468E+02  0.00000000000E+00 0. -1.
        -14    1    6    6    0    0  0.66456306312E+02 -0.31315419925E+02  0.25914784198E+02  0.77901682997E+02  0.00000000000E+00 0.  1.
</event>
<event>
12    1  0.8196217E-002  0.1735055E+03  0.7818608E-02  0.1175100E+00
         21   -1    0    0  503  502  0.00000000000E+00  0.00000000000E+00  0.35141403939E+03  0.35141403939E+03  0.00000000000E+00 0.  1.
         21   -1    0    0  501  503 -0.00000000000E+00 -0.00000000000E+00 -0.10531215474E+03  0.10531215474E+03  0.00000000000E+00 0.  1.
          6    2    1    2  501    0  0.18389831795E+02 -0.77902739423E+01  0.21329923974E+02  0.17481163488E+03  0.17235216202E+03 0.  0.
         24    2    3    3    0    0  0.61322621127E+02 -0.10136437373E+02 -0.32994765626E+02  0.10537107914E+03  0.78429576915E+02 0.  0.
         -6    2    1    2    0  502 -0.18389831795E+02  0.77902739423E+01  0.22477196068E+03  0.28191455925E+03  0.16898079810E+03 0.  0.
        -24    2    5    5    0    0 -0.74119849102E+02  0.11243291412E+02  0.16781585669E+03  0.20201558591E+03  0.83832998043E+02 0.  0.
          5    1    3    3  501    0 -0.42932789331E+02  0.23461634304E+01  0.54324689599E+02  0.69440555748E+02  0.47000000000E+01 0. -1.
        -11    1    4    4    0    0  0.20270349038E+02  0.79923921538E+01  0.24270521504E+02  0.32616308751E+02  0.00000000000E+00 0.  1.
         12    1    4    4    0    0  0.41052272089E+02 -0.18128829527E+02 -0.57265287130E+02  0.72754770384E+02  0.00000000000E+00 0. -1.
         -5    1    5    5    0  502  0.55730017307E+02 -0.34530174699E+01  0.56956103991E+02  0.79898973339E+02  0.47000000000E+01 0.  1.
         13    1    6    6    0    0 -0.41536913730E+02  0.46889195291E+02  0.11093105200E+03  0.12739548710E+03  0.00000000000E+00 0. -1.
        -14    1    6    6    0    0 -0.32582935373E+02 -0.35645903878E+02  0.56884804692E+02  0.74620098805E+02  0.00000000000E+00 0.  1.
</event>
<event>
12    1  0.8196217E-002  0.1757893E+03  0.7818608E-02  0.1172105E+00
         21   -1    0    0  501  502  0.00000000000E+00  0.00000000000E+00  0.10968297986E+03  0.10968297986E+03  0.00000000000E+00 0.  1.
         21   -1    0    0  502  503 -0.00000000000E+00 -0.00000000000E+00 -0.43313817306E+03  0.43313817306E+03  0.00000000000E+00 0.  1.
         -6    2    1    2    0  503 -0.35897186996E+02 -0.16139622757E+01 -0.32254973046E+03  0.36702949508E+03  0.17140918508E+03 0.  0.
        -24    2    3    3    0    0  0.38952055319E+02  0.19448891429E+02 -0.12468340604E+03  0.15438136971E+03  0.79950819769E+02 0.  0.
          6    2    1    2  501    0  0.35897186996E+02  0.16139622757E+01 -0.90546274519E+00  0.17579165784E+03  0.17207752379E+03 0.  0.
         24    2    5    5    0    0  0.30319776174E+02 -0.66731682401E+02 -0.13439099467E+02  0.10592452174E+03  0.75279403875E+02 0.  0.
          5    1    5    5  501    0  0.55774108225E+01  0.68345644676E+02  0.12533636722E+02  0.69867136103E+02  0.47000000000E+01 0. -1.
        -13    1    6    6    0    0  0.41448332213E+02 -0.48941647383E+02 -0.37265365149E+02  0.74175174630E+02  0.00000000000E+00 0.  1.
         14    1    6    6    0    0 -0.11128556039E+02 -0.17790035018E+02  0.23826265681E+02  0.31749347108E+02  0.00000000000E+00 0. -1.
         -5    1    3    3    0  503 -0.74849242316E+02 -0.21062853704E+02 -0.19786632442E+03  0.21264812537E+03  0.47000000000E+01 0.  1.
         11    1    4    4    0    0  0.25071600063E+02  0.30492110214E+01  0.25149244932E+01  0.25381246281E+02  0.00000000000E+00 0. -1.
        -12    1    4    4    0    0  0.13880455256E+02  0.16399680407E+02 -0.12719833053E+03  0.12900012343E+03  0.00000000000E+00 0.  1.
</event>
<event>
12    1  0.8196217E-002  0.2668119E+03  0.7818608E-02  0.1103140E+00
         21   -1    0    0  501  502  0.00000000000E+00  0.00000000000E+00  0.73127611452E+03  0.73127611452E+03  0.00000000000E+00 0.  1.
         21   -1    0    0  502  503 -0.00000000000E+00 -0.00000000000E+00 -0.99231485073E+02  0.99231485073E+02  0.00000000000E+00 0.  1.
         -6    2    1    2    0  503 -0.16544971091E+03  0.11938342581E+03  0.25790661117E+03  0.37097755046E+03  0.17170472812E+03 0.  0.
        -24    2    3    3    0    0 -0.30470954515E+02  0.69472162335E+02  0.66615009148E+02  0.13155122378E+03  0.84340409217E+02 0.  0.
          6    2    1    2  501    0  0.16544971091E+03 -0.11938342581E+03  0.37413801828E+03  0.45953004913E+03  0.17193777985E+03 0.  0.
         24    2    5    5    0    0  0.18035332260E+03 -0.13901482919E+03  0.34713181444E+03  0.42266631783E+03  0.79333951897E+02 0.  0.
          5    1    5    5  501    0 -0.14903611687E+02  0.19631403384E+02  0.27006203832E+02  0.36863731303E+02  0.47000000000E+01 0. -1.
        -13    1    6    6    0    0  0.48707295334E+02 -0.88291170479E+01  0.38297803639E+02  0.62586545600E+02  0.00000000000E+00 0.  1.
         14    1    6    6    0    0  0.13164602726E+03 -0.13018571215E+03  0.30883401080E+03  0.36007977223E+03  0.00000000000E+00 0. -1.
         -5    1    3    3    0  503 -0.13497875639E+03  0.49911263475E+02  0.19129160202E+03  0.23942632667E+03  0.47000000000E+01 0.  1.
         11    1    4    4    0    0 -0.15631599781E+02 -0.17987581306E+02  0.21182542335E+02  0.31884166803E+02  0.00000000000E+00 0. -1.
        -12    1    4    4    0    0 -0.14839354734E+02  0.87459743641E+02  0.45432466813E+02  0.99667056981E+02  0.00000000000E+00 0.  1.
</event>
<event>
12    1  0.8196217E-002  0.2134136E+03  0.7818608E-02  0.1140252E+00
         21   -1    0    0  503  502  0.00000000000E+00  0.00000000000E+00  0.15246545131E+03  0.15246545131E+03  0.00000000000E+00 0. -1.
         21   -1    0    0  501  503 -0.00000000000E+00 -0.00000000000E+00 -0.55774976430E+03  0.55774976430E+03  0.00000000000E+00 0. -1.
          6    2    1    2  501    0  0.28472197788E+02  0.10919920890E+03 -0.45078090806E+03  0.49874720232E+03  0.18113589229E+03 0.  0.
         24    2    3    3    0    0  0.79490782920E+02  0.30075550479E+02 -0.20545367786E+03  0.23593360064E+03  0.78931152636E+02 0.  0.
         -6    2    1    2    0  502 -0.28472197788E+02 -0.10919920890E+03  0.45496595073E+02  0.21146801329E+03  0.17295562209E+03 0.  0.
        -24    2    5    5    0    0 -0.14363744496E+02 -0.11015690917E+03  0.89865465498E+02  0.16466360851E+03  0.81837890278E+02 0.  0.
          5    1    3    3  501    0 -0.51018585132E+02  0.79123658417E+02 -0.24532723020E+03  0.26281360168E+03  0.47000000000E+01 0. -1.
        -11    1    4    4    0    0  0.38512040506E+02 -0.19992942609E+02 -0.12719424978E+03  0.13439223265E+03  0.00000000000E+00 0.  1.
         12    1    4    4    0    0  0.40978742415E+02  0.50068493087E+02 -0.78259428081E+02  0.10154136799E+03  0.00000000000E+00 0. -1.
         -5    1    5    5    0  502 -0.14108453293E+02  0.95770027494E+00 -0.44368870425E+02  0.46804404781E+02  0.47000000000E+01 0.  1.
         11    1    6    6    0    0 -0.36651776352E+02 -0.10924982592E+03  0.70248031323E+02  0.13495800487E+03  0.00000000000E+00 0. -1.
        -12    1    6    6    0    0  0.22288031856E+02 -0.90708324665E+00  0.19617434175E+02  0.29705603641E+02  0.00000000000E+00 0.  1.
</event>
<event>
12    1  0.8196217E-002  0.2337180E+03  0.7818608E-02  0.1124146E+00
         21   -1    0    0  503  502  0.00000000000E+00  0.00000000000E+00  0.67902062571E+03  0.67902062571E+03  0.00000000000E+00 0.  1.
         21   -1    0    0  501  503 -0.00000000000E+00 -0.00000000000E+00 -0.94853585918E+02  0.94853585918E+02  0.00000000000E+00 0.  1.
          6    2    1    2  501    0 -0.13998240714E+03 -0.72939106546E+02  0.13998382923E+03  0.27195505980E+03  0.17160680211E+03 0.  0.
         24    2    3    3    0    0 -0.34021055517E+02  0.19181696134E+02  0.40081825742E+02  0.99570168857E+02  0.82354696808E+02 0.  0.
         -6    2    1    2    0  502  0.13998240714E+03  0.72939106546E+02  0.44418321057E+03  0.50191915184E+03  0.17236276528E+03 0.  0.
        -24    2    5    5    0    0  0.11592794884E+03 -0.24771422159E+01  0.35930994125E+03  0.38576498968E+03  0.79155339840E+02 0.  0.
          5    1    3    3  501    0 -0.10596135162E+03 -0.92120802680E+02  0.99902003484E+02  0.17238489094E+03  0.47000000000E+01 0. -1.
        -13    1    4    4    0    0 -0.55659353482E+02  0.15741620905E+02  0.48034121089E+01  0.58041666298E+02  0.00000000000E+00 0.  1.
         14    1    4    4    0    0  0.21638297964E+02  0.34400752287E+01  0.35278413633E+02  0.41528502560E+02  0.00000000000E+00 0. -1.
         -5    1    5    5    0  502  0.24054458300E+02  0.75416248762E+02  0.84873269320E+02  0.11615416216E+03  0.47000000000E+01 0.  1.
         13    1    6    6    0    0  0.19547492997E+02  0.32412743090E+02  0.92678321080E+02  0.10010974775E+03  0.00000000000E+00 0. -1.
        -14    1    6    6    0    0  0.96380455842E+02 -0.34889885305E+02  0.26663162017E+03  0.28565524192E+03  0.00000000000E+00 0.  1.
</event>
<event>
12    1  0.8196217E-002  0.1823935E+03  0.7818608E-02  0.1165558E+00
         21   -1    0    0  501  502  0.00000000000E+00  0.00000000000E+00  0.22588491224E+03  0.22588491224E+03  0.00000000000E+00 0. -1.
         21   -1    0    0  502  503 -0.00000000000E+00 -0.00000000000E+00 -0.28989939135E+03  0.28989939135E+03  0.00000000000E+00 0.  1.
         -6    2    1    2    0  503 -0.17865932518E+01 -0.61163873701E+02 -0.21299683275E+03  0.28027818756E+03  0.17159254150E+03 0.  0.
        -24    2    3    3    0    0 -0.25125761585E+02 -0.85330879938E+02 -0.21572354011E+03  0.24624458796E+03  0.78658047097E+02 0.  0.
          6    2    1    2  501    0  0.17865932518E+01  0.61163873701E+02  0.14898235365E+03  0.23550611603E+03  0.17182309981E+03 0.  0.
         24    2    5    5    0    0  0.48378298377E+02  0.51746308896E+02  0.15398268838E+03  0.18747934370E+03  0.80123003893E+02 0.  0.
          5    1    5    5  501    0 -0.46591705126E+02  0.94175648045E+01 -0.50003347378E+01  0.48026772334E+02  0.47000000000E+01 0. -1.
        -11    1    6    6    0    0  0.10865664272E+01 -0.17216574904E+02  0.75027878899E+01  0.18811775678E+02  0.00000000000E+00 0.  1.
         12    1    6    6    0    0  0.47291731950E+02  0.68962883800E+02  0.14647990049E+03  0.16866756802E+03  0.00000000000E+00 0. -1.
         -5    1    3    3    0  503  0.23339168333E+02  0.24167006237E+02  0.27267073598E+01  0.34033599603E+02  0.47000000000E+01 0.  1.
         11    1    4    4    0    0  0.24516653159E+02 -0.49648213970E+02 -0.12647017533E+03  0.13806055440E+03  0.00000000000E+00 0. -1.
        -12    1    4    4    0    0 -0.49642414744E+02 -0.35682665968E+02 -0.89253364786E+02  0.10818403356E+03  0.00000000000E+00 0.  1.
</event>
<event>
12    1  0.8196217E-002  0.3443466E+03  0.7818608E-02  0.1065951E+00
         21   -1    0    0  503  502  0.00000000000E+00  0.00000000000E+00  0.35378365430E+03  0.35378365430E+03  0.00000000000E+00 0.  1.
         21   -1    0    0  501  503 -0.00000000000E+00 -0.00000000000E+00 -0.40245957889E+03  0.40245957889E+03  0.00000000000E+00 0. -1.
          6    2    1    2  501    0  0.19941489797E+03  0.20599090515E+03 -0.18871201389E+03  0.38451122679E+03  0.17331504495E+03 0.  0.
         24    2    3    3    0    0  0.18368391831E+03  0.18031609634E+03 -0.95157974382E+02  0.28611860594E+03  0.80963819928E+02 0.  0.
         -6    2    1    2    0  502 -0.19941489797E+03 -0.20599090515E+03  0.14003608930E+03  0.37173200640E+03  0.19072499505E+03 0.  0.
        -24    2    5    5    0    0 -0.20128020735E+02 -0.26302843057E+02  0.23061434737E+02  0.92202502022E+02  0.82900511671E+02 0.  0.
          5    1    3    3  501    0  0.15730979664E+02  0.25674808817E+02 -0.93554039508E+02  0.98392620848E+02  0.47000000000E+01 0. -1.
        -13    1    4    4    0    0  0.42131067494E+01 -0.30427627134E+01  0.80357925019E+01  0.95698816370E+01  0.00000000000E+00 0.  1.
         14    1    4    4    0    0  0.17947081156E+03  0.18335885905E+03 -0.10319376688E+03  0.27654872431E+03  0.00000000000E+00 0. -1.
         -5    1    5    5    0  502 -0.17928687724E+03 -0.17968806210E+03  0.11697465456E+03  0.27952950438E+03  0.47000000000E+01 0.  1.
         11    1    6    6    0    0 -0.11422586914E+02  0.10133437360E+01 -0.29875378676E+02  0.32000634499E+02  0.00000000000E+00 0. -1.
        -12    1    6    6    0    0 -0.87054338210E+01 -0.27316186793E+02  0.52936813413E+02  0.60201867523E+02  0.00000000000E+00 0.  1.
</event>
<event>
12    1  0.8196217E-002  0.2323819E+03  0.7818608E-02  0.1125159E+00
         21   -1    0    0  501  502  0.00000000000E+00  0.00000000000E+00  0.12327566336E+03  0.12327566336E+03  0.00000000000E+00 0. -1.
         21   -1    0    0  502  503 -0.00000000000E+00 -0.00000000000E+00 -0.13291441469E+04  0.13291441469E+04  0.00000000000E+00 0. -1.
         -6    2    1    2    0  503  0.14288535270E+03  0.60135392884E+02 -0.11977634008E+04  0.12198965913E+04  0.17169169971E+03 0.  0.
        -24    2    3    3    0    0  0.17105685572E+03  0.30546894165E+02 -0.96054864035E+03  0.97914351157E+03  0.76647016502E+02 0.  0.
          6    2    1    2  501    0 -0.14288535270E+03 -0.60135392884E+02 -0.81050826920E+01  0.23252321889E+03  0.17311517976E+03 0.  0.
         24    2    5    5    0    0 -0.64897722652E+02  0.77240735036E+01 -0.57780249133E+02  0.11773345549E+03  0.79064743317E+02 0.  0.
          5    1    5    5  501    0 -0.77987630052E+02 -0.67859466388E+02  0.49675166441E+02  0.11478976340E+03  0.47000000000E+01 0. -1.
        -11    1    6    6    0    0 -0.65263509374E+02  0.33961002007E+02 -0.29807010672E+02  0.79379677489E+02  0.00000000000E+00 0.  1.
         12    1    6    6    0    0  0.36578672229E+00 -0.26236928503E+02 -0.27973238461E+02  0.38353778004E+02  0.00000000000E+00 0. -1.
         -5    1    3    3    0  503 -0.28171503017E+02  0.29588498719E+02 -0.23721476046E+03  0.24075307977E+03  0.47000000000E+01 0.  1.
         13    1    4    4    0    0  0.22643733358E+02 -0.22087613592E+02 -0.12949402114E+03  0.13330154854E+03  0.00000000000E+00 0. -1.
        -14    1    4    4    0    0  0.14841312236E+03  0.52634507757E+02 -0.83105461921E+03  0.84584196302E+03  0.00000000000E+00 0.  1.
</event>
<event>
12    1  0.8196217E-002  0.1967644E+03  0.7818608E-02  0.1152751E+00
         21   -1    0    0  501  502  0.00000000000E+00  0.00000000000E+00  0.69434715514E+02  0.69434715514E+02  0.00000000000E+00 0.  1.
         21   -1    0    0  502  503 -0.00000000000E+00 -0.00000000000E+00 -0.58255466211E+03  0.58255466211E+03  0.00000000000E+00 0.  1.
         -6    2    1    2    0  503 -0.54691673488E+02  0.78993807414E+02 -0.32764518011E+03  0.38158761227E+03  0.17037177299E+03 0.  0.
        -24    2    3    3    0    0  0.62362348765E+01 -0.68785805392E+01 -0.11907287913E+03  0.14789813505E+03  0.87231314960E+02 0.  0.
          6    2    1    2  501    0  0.54691673488E+02 -0.78993807414E+02 -0.18547476649E+03  0.27040176535E+03  0.17171204077E+03 0.  0.
         24    2    5    5    0    0  0.31800188917E+02 -0.10884631080E+03 -0.83723515219E+02  0.16181723994E+03  0.79475913029E+02 0.  0.
          5    1    5    5  501    0  0.22891484571E+02  0.29852503387E+02 -0.10175125127E+03  0.10858452541E+03  0.47000000000E+01 0. -1.
        -11    1    6    6    0    0  0.39968687203E+02 -0.63287171672E+02 -0.11060134655E+02  0.75664315457E+02  0.00000000000E+00 0.  1.
         12    1    6    6    0    0 -0.81684982860E+01 -0.45559139129E+02 -0.72663380564E+02  0.86152924486E+02  0.00000000000E+00 0. -1.
         -5    1    3    3    0  503 -0.60927908364E+02  0.85872387954E+02 -0.20857230098E+03  0.23368947723E+03  0.47000000000E+01 0.  1.
         13    1    4    4    0    0  0.29582597039E+02  0.26132276761E+02 -0.28424237910E+02  0.48641168130E+02  0.00000000000E+00 0. -1.
        -14    1    4    4    0    0 -0.23346362162E+02 -0.33010857301E+02 -0.90648641224E+02  0.99256966918E+02  0.00000000000E+00 0.  1.
</event>
<event>
12    1  0.8196217E-002  0.1952242E+03  0.7818608E-02  0.1153948E+00
         21   -1    0    0  501  502  0.00000000000E+00  0.00000000000E+00  0.12978554201E+03  0.12978554201E+03  0.00000000000E+00 0. -1.
         21   -1    0    0  502  503 -0.00000000000E+00 -0.00000000000E+00 -0.29854188597E+03  0.29854188597E+03  0.00000000000E+00 0.  1.
         -6    2    1    2    0  503 -0.90642589119E+02  0.11408586589E+02 -0.54948128834E+02  0.20280968683E+03  0.17252894655E+03 0.  0.
        -24    2    3    3    0    0 -0.82670150951E+01  0.29941916538E+02  0.22078307835E+02  0.88422705661E+02  0.79788854454E+02 0.  0.
          6    2    1    2  501    0  0.90642589119E+02 -0.11408586589E+02 -0.11380821512E+03  0.22551774115E+03  0.17192936612E+03 0.  0.
         24    2    5    5    0    0  0.76564238312E+00  0.25099769916E+02 -0.90985920563E+02  0.12574964616E+03  0.83090018116E+02 0.  0.
          5    1    5    5  501    0  0.89876946736E+02 -0.36508356505E+02 -0.22822294554E+02  0.99768094990E+02  0.47000000000E+01 0. -1.
        -11    1    6    6    0    0  0.41412706027E+02  0.16918606729E+02 -0.39796498097E+02  0.59874975866E+02  0.00000000000E+00 0.  1.
         12    1    6    6    0    0 -0.40647063644E+02  0.81811631867E+01 -0.51189422466E+02  0.65874670294E+02  0.00000000000E+00 0. -1.
         -5    1    3    3    0  503 -0.82375574024E+02 -0.18533329948E+02 -0.77026436669E+02  0.11438698117E+03  0.47000000000E+01 0.  1.
         13    1    4    4    0    0  0.44939783470E-02  0.57100158761E+02  0.12424042130E+02  0.58436161524E+02  0.00000000000E+00 0. -1.
        -14    1    4    4    0    0 -0.82715090734E+01 -0.27158242224E+02  0.96542657050E+01  0.29986544138E+02  0.00000000000E+00 0.  1.
</event>
<event>
12    1  0.8196217E-002  0.2067706E+03  0.7818608E-02  0.1144405E+00
         21   -1    0    0  503  502  0.00000000000E+00  0.00000000000E+00  0.88779682010E+03  0.88779682010E+03  0.00000000000E+00 0. -1.
         21   -1    0    0  501  503 -0.00000000000E+00 -0.00000000000E+00 -0.11335247481E+03  0.11335247481E+03  0.00000000000E+00 0. -1.
          6    2    1    2  501    0  0.32493945382E+02 -0.10661157944E+03  0.62393594135E+01  0.20560357948E+03  0.17266156762E+03 0.  0.
         24    2    3    3    0    0  0.39419491433E+02 -0.25948337932E+02 -0.52074094809E+02  0.10571829197E+03  0.78977423103E+02 0.  0.
         -6    2    1    2    0  502 -0.32493945382E+02  0.10661157944E+03  0.76820498587E+03  0.79554571542E+03  0.17416141839E+03 0.  0.
        -24    2    5    5    0    0 -0.83072073593E+02  0.33073639399E+02  0.45723432000E+03  0.47198610621E+03  0.75583239155E+02 0.  0.
          5    1    3    3  501    0 -0.69255460517E+01 -0.80663241507E+02  0.58313454223E+02  0.99885287515E+02  0.47000000000E+01 0. -1.
        -13    1    4    4    0    0 -0.14625136042E+02 -0.22726384472E+02 -0.43051215432E+02  0.50830997488E+02  0.00000000000E+00 0.  1.
         14    1    4    4    0    0  0.54044627475E+02 -0.32219534600E+01 -0.90228793772E+01  0.54887294480E+02  0.00000000000E+00 0. -1.
         -5    1    5    5    0  502  0.50578128211E+02  0.73537940039E+02  0.31097066587E+03  0.32355960921E+03  0.47000000000E+01 0.  1.
         13    1    6    6    0    0 -0.52580415443E+02  0.54927816732E+02  0.35586274120E+03  0.36389566598E+03  0.00000000000E+00 0. -1.
        -14    1    6    6    0    0 -0.30491658150E+02 -0.21854177333E+02  0.10137157879E+03  0.10809044024E+03  0.00000000000E+00 0.  1.
</event>
<event>
12    1  0.8196217E-002  0.1815033E+03  0.7818608E-02  0.1166700E+00
         21   -1    0    0  503  502  0.00000000000E+00  0.00000000000E+00  0.13873708606E+02  0.13873708606E+02  0.00000000000E+00 0. -1.
         21   -1    0    0  501  503 -0.00000000000E+00 -0.00000000000E+00 -0.23561927507E+04  0.23561927507E+04  0.00000000000E+00 0. -1.
          6    2    1    2  501    0  0.14292154321E+02  0.51915481840E+02 -0.11611424299E+04  0.11752426164E+04  0.17333199888E+03 0.  0.
         24    2    3    3    0    0  0.39428426913E+02  0.93649962205E+02 -0.92243912758E+03  0.93157284886E+03  0.81296447437E+02 0.  0.
         -6    2    1    2    0  502 -0.14292154321E+02 -0.51915481840E+02 -0.11811766122E+04  0.11948238430E+04  0.17183231238E+03 0.  0.
        -24    2    5    5    0    0 -0.17603810243E+02 -0.62388742325E+02 -0.11778203955E+04  0.11824137487E+04  0.81480915484E+02 0.  0.
          5    1    3    3  501    0 -0.25136272592E+02 -0.41734480365E+02 -0.23870330235E+03  0.24366976753E+03  0.47000000000E+01 0. -1.
        -13    1    4    4    0    0  0.37681165786E+02  0.37528283130E+01 -0.19933200785E+03  0.20289702642E+03  0.00000000000E+00 0.  1.
         14    1    4    4    0    0  0.17472611267E+01  0.89897133892E+02 -0.72310711973E+03  0.72867582244E+03  0.00000000000E+00 0. -1.
         -5    1    5    5    0  502  0.33116559223E+01  0.10473260486E+02 -0.33562166606E+01  0.12410094295E+02  0.47000000000E+01 0.  1.
         13    1    6    6    0    0  0.12017669956E+02 -0.32071878259E+02 -0.15603679450E+03  0.15975140376E+03  0.00000000000E+00 0. -1.
        -14    1    6    6    0    0 -0.29621480199E+02 -0.30316864067E+02 -0.10217836010E+04  0.10226623449E+04  0.00000000000E+00 0.  1.
</event>
<event>
12    1  0.8196217E-002  0.1966889E+03  0.7818608E-02  0.1152737E+00
         21   -1    0    0  503  502  0.00000000000E+00  0.00000000000E+00  0.53717862688E+03  0.53717862688E+03  0.00000000000E+00 0. -1.
         21   -1    0    0  501  503 -0.00000000000E+00 -0.00000000000E+00 -0.14521586392E+03  0.14521586392E+03  0.00000000000E+00 0.  1.
          6    2    1    2  501    0 -0.48282590096E+02  0.78386856625E+02 -0.46547567232E+02  0.20212175812E+03  0.17381260396E+03 0.  0.
         24    2    3    3    0    0  0.91737294264E+01  0.10202123864E+03 -0.52752812231E+02  0.13950859871E+03  0.78659388948E+02 0.  0.
         -6    2    1    2    0  502  0.48282590096E+02 -0.78386856625E+02  0.43851033019E+03  0.48027273268E+03  0.17290135996E+03 0.  0.
        -24    2    5    5    0    0 -0.20102048296E+02 -0.85915959043E+02  0.34134914846E+03  0.36112773117E+03  0.78155951124E+02 0.  0.
          5    1    3    3  501    0 -0.57456319523E+02 -0.23634382018E+02  0.62052449988E+01  0.62613159415E+02  0.47000000000E+01 0. -1.
        -13    1    4    4    0    0  0.25081284056E+02  0.78937074921E+02 -0.35771000885E+01  0.82903125707E+02  0.00000000000E+00 0.  1.
         14    1    4    4    0    0 -0.15907554630E+02  0.23084163722E+02 -0.49175712143E+02  0.56605473002E+02  0.00000000000E+00 0. -1.
         -5    1    5    5    0  502  0.68384638392E+02  0.75291024186E+01  0.97161181727E+02  0.11914500151E+03  0.47000000000E+01 0.  1.
         11    1    6    6    0    0 -0.42048527201E+01  0.13537158840E+02  0.21136997780E+02  0.25450110629E+02  0.00000000000E+00 0. -1.
        -12    1    6    6    0    0 -0.15897195576E+02 -0.99453117884E+02  0.32021215068E+03  0.33567762054E+03  0.00000000000E+00 0.  1.
</event>
<event>
12    1  0.8196217E-002  0.1720684E+03  0.7818608E-02  0.1175760E+00
         21   -1    0    0  503  502  0.00000000000E+00  0.00000000000E+00  0.16334015836E+04  0.16334015836E+04  0.00000000000E+00 0. -1.
         21   -1    0    0  501  503 -0.00000000000E+00 -0.00000000000E+00 -0.32176528944E+02  0.32176528944E+02  0.00000000000E+00 0. -1.
          6    2    1    2  501    0 -0.10522214573E+02  0.99757282598E+01  0.24961678307E+03  0.30306116096E+03  0.17125214376E+03 0.  0.
         24    2    3    3    0    0  0.57157542549E+02  0.13774620924E+02  0.18464004860E+03  0.20904495421E+03  0.78429079321E+02 0.  0.
         -6    2    1    2    0  502  0.10522214573E+02 -0.99757282598E+01  0.13516082716E+04  0.13625169516E+04  0.17145638328E+03 0.  0.
        -24    2    5    5    0    0  0.35918075736E+02  0.50949345903E+02  0.96026245376E+03  0.96561588890E+03  0.80150613116E+02 0.  0.
          5    1    3    3  501    0 -0.67679757122E+02 -0.37988926640E+01  0.64976734470E+02  0.94016206751E+02  0.47000000000E+01 0. -1.
        -13    1    4    4    0    0  0.30987064153E+02  0.85906661279E+01  0.17888523022E+03  0.18175236801E+03  0.00000000000E+00 0.  1.
         14    1    4    4    0    0  0.26170478396E+02  0.51839547959E+01  0.57548183839E+01  0.27292586199E+02  0.00000000000E+00 0. -1.
         -5    1    5    5    0  502 -0.25395861163E+02 -0.60925074163E+02  0.39134581787E+03  0.39690106272E+03  0.47000000000E+01 0.  1.
         13    1    6    6    0    0  0.44468042776E+02  0.77651184446E+01  0.25379834460E+03  0.25778150363E+03  0.00000000000E+00 0. -1.
        -14    1    6    6    0    0 -0.85499670397E+01  0.43184227458E+02  0.70646410916E+03  0.70783438527E+03  0.00000000000E+00 0.  1.
</event>
<event>
12    1  0.8196217E-002  0.1832718E+03  0.7818608E-02  0.1164759E+00
         21   -1    0    0  503  502  0.00000000000E+00  0.00000000000E+00  0.44256032623E+03  0.44256032623E+03  0.00000000000E+00 0. -1.
         21   -1    0    0  501  503 -0.00000000000E+00 -0.00000000000E+00 -0.12289940654E+03  0.12289940654E+03  0.00000000000E+00 0. -1.
          6    2    1    2  501    0  0.39126143467E+01  0.61759740833E+02 -0.15198770975E+02  0.18390095150E+03  0.17250792209E+03 0.  0.
         24    2    3    3    0    0 -0.43712016506E+02  0.83766249706E+02  0.10088111948E+02  0.12547229119E+03  0.81939007061E+02 0.  0.
         -6    2    1    2    0  502 -0.39126143467E+01 -0.61759740833E+02  0.33485969067E+03  0.38155878128E+03  0.17212355154E+03 0.  0.
        -24    2    5    5    0    0  0.51482943682E+01  0.93695875280E+01  0.52867678438E+02  0.90555230813E+02  0.72739014970E+02 0.  0.
          5    1    3    3  501    0  0.47624630853E+02 -0.22006508873E+02 -0.25286882924E+02  0.58428660301E+02  0.47000000000E+01 0. -1.
        -11    1    4    4    0    0  0.87374988509E+01  0.35539523430E+02  0.34360446279E+02  0.50200018728E+02  0.00000000000E+00 0.  1.
         12    1    4    4    0    0 -0.52449515357E+02  0.48226726276E+02 -0.24272334331E+02  0.75272272467E+02  0.00000000000E+00 0. -1.
         -5    1    5    5    0  502 -0.90609087149E+01 -0.71129328361E+02  0.28199201223E+03  0.29100355046E+03  0.47000000000E+01 0.  1.
         13    1    6    6    0    0  0.17499013380E+02 -0.10578628180E+02  0.62071175644E+02  0.65352533916E+02  0.00000000000E+00 0. -1.
        -14    1    6    6    0    0 -0.12350719012E+02  0.19948215708E+02 -0.92034972059E+01  0.25202696897E+02  0.00000000000E+00 0.  1.
</event>
<event>
12    1  0.8196217E-002  0.2570081E+03  0.7818608E-02  0.1109000E+00
         21   -1    0    0  503  502  0.00000000000E+00  0.00000000000E+00  0.14282200570E+04  0.14282200570E+04  0.00000000000E+00 0. -1.
         21   -1    0    0  501  503 -0.00000000000E+00 -0.00000000000E+00 -0.61616503874E+02  0.61616503874E+02  0.00000000000E+00 0.  1.
          6    2    1    2  501    0  0.64401887616E+02 -0.17994984004E+03  0.31092912187E+03  0.40339814632E+03  0.17182432184E+03 0.  0.
         24    2    3    3    0    0  0.89529022998E+02 -0.17606731574E+03  0.20991836940E+03  0.29913065838E+03  0.79989270181E+02 0.  0.
         -6    2    1    2    0  502 -0.64401887616E+02  0.17994984004E+03  0.10556744313E+04  0.10864384146E+04  0.17137787413E+03 0.  0.
        -24    2    5    5    0    0 -0.97294902600E+02  0.10110132828E+03  0.55110898842E+03  0.57466950738E+03  0.82681007134E+02 0.  0.
          5    1    3    3  501    0 -0.25127135382E+02 -0.38825243029E+01  0.10101075247E+03  0.10426748794E+03  0.47000000000E+01 0. -1.
        -13    1    4    4    0    0 -0.90250764227E+01 -0.24930185061E+02  0.56033105620E+02  0.61989314055E+02  0.00000000000E+00 0.  1.
         14    1    4    4    0    0  0.98554099421E+02 -0.15113713067E+03  0.15388526378E+03  0.23714134433E+03  0.00000000000E+00 0. -1.
         -5    1    5    5    0  502  0.32893014985E+02  0.78848511763E+02  0.50456544288E+03  0.51176890721E+03  0.47000000000E+01 0.  1.
         13    1    6    6    0    0 -0.53210115222E+02  0.10486190845E+03  0.37010111843E+03  0.38833255603E+03  0.00000000000E+00 0. -1.
        -14    1    6    6    0    0 -0.44084787379E+02 -0.37605801696E+01  0.18100786999E+03  0.18633695135E+03  0.00000000000E+00 0.  1.
</event>
<event>
12    1  0.8196217E-002  0.2726661E+03  0.7818608E-02  0.1099963E+00
         21   -1    0    0  503  502  0.00000000000E+00  0.00000000000E+00  0.15478929275E+04  0.15478929275E+04  0.00000000000E+00 0.  1.
         21   -1    0    0  501  503 -0.00000000000E+00 -0.00000000000E+00 -0.49338828886E+02  0.49338828886E+02  0.00000000000E+00 0. -1.
          6    2    1    2  501    0  0.18921434943E+03  0.93304504148E+02  0.88918944023E+03  0.92964498574E+03  0.17051140248E+03 0.  0.
         24    2    3    3    0    0  0.10696755887E+03  0.46911805229E+02  0.73796145428E+03  0.75129473819E+03  0.78828291223E+02 0.  0.
         -6    2    1    2    0  502 -0.18921434943E+03 -0.93304504148E+02  0.60936465839E+03  0.66758677064E+03  0.17273971437E+03 0.  0.
        -24    2    5    5    0    0 -0.10657704192E+03  0.66143809659E+01  0.21857143771E+03  0.25581724831E+03  0.79161703186E+02 0.  0.
          5    1    3    3  501    0  0.82246790560E+02  0.46392698919E+02  0.15122798594E+03  0.17835024756E+03  0.47000000000E+01 0. -1.
        -13    1    4    4    0    0  0.86727195544E+02  0.61532400469E+02  0.67882037282E+03  0.68709893124E+03  0.00000000000E+00 0.  1.
         14    1    4    4    0    0  0.20240363330E+02 -0.14620595241E+02  0.59141081460E+02  0.64195806944E+02  0.00000000000E+00 0. -1.
         -5    1    5    5    0  502 -0.82637307519E+02 -0.99918885114E+02  0.39079322068E+03  0.41176952233E+03  0.47000000000E+01 0.  1.
         13    1    6    6    0    0 -0.29723663901E+02  0.26148400951E+01  0.69500078687E+01  0.30637170134E+02  0.00000000000E+00 0. -1.
        -14    1    6    6    0    0 -0.76853378015E+02  0.39995408708E+01  0.21162142984E+03  0.22518007818E+03  0.00000000000E+00 0.  1.
</event>
<event>
12    1  0.8196217E-002  0.2022790E+03  0.7818608E-02  0.1147912E+00
         21   -1    0    0  501  502  0.00000000000E+00  0.00000000000E+00  0.55460735966E+02  0.55460735966E+02  0.00000000000E+00 0.  1.
         21   -1    0    0  502  503 -0.00000000000E+00 -0.00000000000E+00 -0.97666201869E+03  0.97666201869E+03  0.00000000000E+00 0.  1.
         -6    2    1    2    0  503 -0.51035995228E+01 -0.10689321211E+03 -0.20426194843E+03  0.28719402714E+03  0.17118779197E+03 0.  0.
        -24    2    3    3    0    0  0.48376773923E+02 -0.71045674721E+02 -0.18586368396E+03  0.22006890206E+03  0.80605288199E+02 0.  0.
          6    2    1    2  501    0  0.51035995228E+01  0.10689321211E+03 -0.71693933430E+03  0.74492872752E+03  0.17165254005E+03 0.  0.
         24    2    5    5    0    0  0.24834038880E+02  0.69481568111E+02 -0.21166920410E+03  0.23786964240E+03  0.79584527480E+02 0.  0.
          5    1    5    5  501    0 -0.19730439357E+02  0.37411644004E+02 -0.50527013019E+03  0.50705908512E+03  0.47000000000E+01 0. -1.
        -11    1    6    6    0    0  0.14513813490E+02  0.86869982846E+02 -0.16578986162E+03  0.18773205086E+03  0.00000000000E+00 0.  1.
         12    1    6    6    0    0  0.10320225390E+02 -0.17388414735E+02 -0.45879342482E+02  0.50137591543E+02  0.00000000000E+00 0. -1.
         -5    1    3    3    0  503 -0.53480373446E+02 -0.35847537394E+02 -0.18398264470E+02  0.67125125077E+02  0.47000000000E+01 0.  1.
         11    1    4    4    0    0  0.95895603417E+00  0.92147860277E+01 -0.73446222143E+02  0.74028233974E+02  0.00000000000E+00 0. -1.
        -12    1    4    4    0    0  0.47417817889E+02 -0.80260460749E+02 -0.11241746182E+03  0.14604066809E+03  0.00000000000E+00 0.  1.
</event>
<event>
12    1  0.8196217E-002  0.1869059E+03  0.7818608E-02  0.1161925E+00
         21   -1    0    0  501  502  0.00000000000E+00  0.00000000000E+00  0.22110693099E+03  0.22110693099E+03  0.00000000000E+00 0. -1.
         21   -1    0    0  502  503 -0.00000000000E+00 -0.00000000000E+00 -0.21814100001E+03  0.21814100001E+03  0.00000000000E+00 0. -1.
         -6    2    1    2    0  503 -0.27268445923E+02 -0.61480222651E+02 -0.11605936320E+03  0.21766085926E+03  0.17141495835E+03 0.  0.
        -24    2    3    3    0    0  0.82282369814E+01 -0.10032100311E+03 -0.62820337993E+02  0.14266016240E+03  0.79205552333E+02 0.  0.
          6    2    1    2  501    0  0.27268445923E+02  0.61480222651E+02  0.11902529417E+03  0.22158707174E+03  0.17438584745E+03 0.  0.
         24    2    5    5    0    0  0.37008294635E+02 -0.13590568591E+02  0.11602070291E+02  0.90086777524E+02  0.80166713935E+02 0.  0.
          5    1    5    5  501    0 -0.97398487120E+01  0.75070791242E+02  0.10742322388E+03  0.13150029422E+03  0.47000000000E+01 0. -1.
        -13    1    6    6    0    0 -0.11689771792E+02 -0.16787063296E+02 -0.22607038716E+02  0.30488267549E+02  0.00000000000E+00 0.  1.
         14    1    6    6    0    0  0.48698066427E+02  0.31964947054E+01  0.34209109007E+02  0.59598509974E+02  0.00000000000E+00 0. -1.
         -5    1    3    3    0  503 -0.35496682904E+02  0.38840780463E+02 -0.53239025208E+02  0.75000696859E+02  0.47000000000E+01 0.  1.
         11    1    4    4    0    0  0.27757314971E+02 -0.55875520916E+02 -0.69794258230E+02  0.93615067451E+02  0.00000000000E+00 0. -1.
        -12    1    4    4    0    0 -0.19529077989E+02 -0.44445482199E+02  0.69739202363E+01  0.49045094948E+02  0.00000000000E+00 0.  1.
</event>
<event>
12    1  0.8196217E-002  0.1767741E+03  0.7818608E-02  0.1171618E+00
         21   -1    0    0  503  502  0.00000000000E+00  0.00000000000E+00  0.16695506921E+03  0.16695506921E+03  0.00000000000E+00 0.  1.
         21   -1    0    0  501  503 -0.00000000000E+00 -0.00000000000E+00 -0.46291205274E+03  0.46291205274E+03  0.00000000000E+00 0.  1.
          6    2    1    2  501    0 -0.86519881715E+01 -0.35936236516E+02 -0.39181650699E+03  0.42877474662E+03  0.17018031083E+03 0.  0.
         24    2    3    3    0    0 -0.55423212285E+02 -0.70286296744E+02 -0.18604485964E+03  0.21492541907E+03  0.59735667671E+02 0.  0.
         -6    2    1    2    0  502  0.86519881715E+01  0.35936236516E+02  0.95859523464E+02  0.20109237533E+03  0.17286649526E+03 0.  0.
        -24    2    5    5    0    0  0.11255914547E+02 -0.46839595956E+02  0.30067084590E+02  0.95218139147E+02  0.76431806765E+02 0.  0.
          5    1    3    3  501    0  0.46771224114E+02  0.34350060228E+02 -0.20577164735E+03  0.21384932755E+03  0.47000000000E+01 0. -1.
        -13    1    4    4    0    0 -0.17495728769E+02 -0.63254659832E+02 -0.14163845990E+03  0.15610479121E+03  0.00000000000E+00 0.  1.
         14    1    4    4    0    0 -0.37927483516E+02 -0.70316369121E+01 -0.44406399737E+02  0.58820627854E+02  0.00000000000E+00 0. -1.
         -5    1    5    5    0  502 -0.26039263759E+01  0.82775832472E+02  0.65792438874E+02  0.10587423618E+03  0.47000000000E+01 0.  1.
         13    1    6    6    0    0  0.19924146120E+02 -0.16945365592E+02  0.51270418164E+02  0.57556691986E+02  0.00000000000E+00 0. -1.
        -14    1    6    6    0    0 -0.86682315730E+01 -0.29894230363E+02 -0.21203333574E+02  0.37661447161E+02  0.00000000000E+00 0.  1.
</event>
<event>
12    1  0.8196217E-002  0.1855438E+03  0.7818608E-02  0.1162846E+00
         21   -1    0    0  501  502  0.00000000000E+00  0.00000000000E+00  0.11118914454E+03  0.11118914454E+03  0.00000000000E+00 0.  1.
         21   -1    0    0  502  503 -0.00000000000E+00 -0.00000000000E+00 -0.31082295114E+03  0.31082295114E+03  0.00000000000E+00 0. -1.
         -6    2    1    2    0  503  0.69579862507E+02  0.10307414280E+02 -0.12142324474E+03  0.22065817817E+03  0.17029042009E+03 0.  0.
        -24    2    3    3    0    0  0.19411241343E+02  0.50761106600E+02 -0.20945178793E+02  0.10119553334E+03  0.82754753462E+02 0.  0.
          6    2    1    2  501    0 -0.69579862507E+02 -0.10307414280E+02 -0.78210561861E+02  0.20135391752E+03  0.17169422837E+03 0.  0.
         24    2    5    5    0    0 -0.59812669603E+02 -0.69366633605E+02 -0.70979588230E+02  0.14087444642E+03  0.80113809083E+02 0.  0.
          5    1    5    5  501    0 -0.97671929043E+01  0.59059219325E+02 -0.72309736305E+01  0.60479471097E+02  0.47000000000E+01 0. -1.
        -11    1    6    6    0    0  0.49181227398E+01 -0.17447524257E+01  0.13691618960E+02  0.14652389636E+02  0.00000000000E+00 0.  1.
         12    1    6    6    0    0 -0.64730792343E+02 -0.67621881179E+02 -0.84671207190E+02  0.12622205678E+03  0.00000000000E+00 0. -1.
         -5    1    3    3    0  503  0.50168621164E+02 -0.40453692320E+02 -0.10047806594E+03  0.11946264482E+03  0.47000000000E+01 0.  1.
         13    1    4    4    0    0  0.72505494104E+01 -0.17284767267E+02 -0.25812808718E+02  0.31900387774E+02  0.00000000000E+00 0. -1.
        -14    1    4    4    0    0  0.12160691933E+02  0.68045873867E+02  0.48676299249E+01  0.69295145571E+02  0.00000000000E+00 0.  1.
</event>
<event>
12    1  0.8196217E-002  0.2207407E+03  0.7818608E-02  0.1134139E+00
         21   -1    0    0  503  502  0.00000000000E+00  0.00000000000E+00  0.68393956024E+03  0.68393956024E+03  0.00000000000E+00 0.  1.
         21   -1    0    0  501  503 -0.00000000000E+00 -0.00000000000E+00 -0.87130390183E+02  0.87130390183E+02  0.00000000000E+00 0. -1.
          6    2    1    2  501    0  0.47035412127E+01  0.13623888023E+03  0.12913318944E+03  0.25573780738E+03  0.17361822981E+03 0.  0.
         24    2    3    3    0    0 -0.12219730873E+02  0.10990042491E+02  0.94372385474E+02  0.12457351351E+03  0.79638622992E+02 0.  0.
         -6    2    1    2    0  502 -0.47035412127E+01 -0.13623888023E+03  0.46767598062E+03  0.51533214305E+03  0.16811674223E+03 0.  0.
        -24    2    5    5    0    0 -0.20629568329E+01 -0.81122482664E+02  0.12898960377E+03  0.17214802069E+03  0.80071906210E+02 0.  0.
          5    1    3    3  501    0  0.16923272085E+02  0.12524883774E+03  0.34760803964E+02  0.13116429387E+03  0.47000000000E+01 0. -1.
        -11    1    4    4    0    0 -0.87527143590E+01  0.43976406743E+02  0.71090174424E+02  0.84049671376E+02  0.00000000000E+00 0.  1.
         12    1    4    4    0    0 -0.34670165137E+01 -0.32986364252E+02  0.23282211049E+02  0.40523842135E+02  0.00000000000E+00 0. -1.
         -5    1    5    5    0  502 -0.26405843798E+01 -0.55116397570E+02  0.33868637686E+03  0.34318412236E+03  0.47000000000E+01 0.  1.
         11    1    6    6    0    0 -0.31499321625E+02 -0.47984994384E+02  0.10969799961E+03  0.12380798870E+03  0.00000000000E+00 0. -1.
        -12    1    6    6    0    0  0.29436364792E+02 -0.33137488280E+02  0.19291604159E+02  0.48340031989E+02  0.00000000000E+00 0.  1.
</event>
<event>
12    1  0.8196217E-002  0.1854150E+03  0.7818608E-02  0.1163210E+00
         21   -1    0    0  503  502  0.00000000000E+00  0.00000000000E+00  0.18354342668E+04  0.18354342668E+04  0.00000000000E+00 0. -1.
         21   -1    0    0  501  503 -0.00000000000E+00 -0.00000000000E+00 -0.20626874578E+02  0.20626874578E+02  0.00000000000E+00 0. -1.
          6    2    1    2  501    0  0.63819464122E+02  0.51901745869E+01  0.12005505935E+04  0.12144302973E+04  0.17152072005E+03 0.  0.
         24    2    3    3    0    0  0.62502262148E+02  0.47030155454E+01  0.12040297696E+04  0.12084163958E+04  0.81571125141E+02 0.  0.
         -6    2    1    2    0  502 -0.63819464122E+02 -0.51901745869E+01  0.61425679872E+03  0.64163084413E+03  0.17400822811E+03 0.  0.
        -24    2    5    5    0    0 -0.97429953078E+02 -0.31479325332E+02  0.54366145535E+03  0.55900774251E+03  0.80239232800E+02 0.  0.
          5    1    3    3  501    0  0.13172019747E+01  0.48715904154E+00 -0.34791760555E+01  0.60139014790E+01  0.47000000000E+01 0. -1.
        -11    1    4    4    0    0 -0.25709785974E+01 -0.16837711482E+02  0.61006187852E+02  0.63339351237E+02  0.00000000000E+00 0.  1.
         12    1    4    4    0    0  0.65073240745E+02  0.21540727027E+02  0.11430235817E+04  0.11450770446E+04  0.00000000000E+00 0. -1.
         -5    1    5    5    0  502  0.33610488955E+02  0.26289150745E+02  0.70595343378E+02  0.82623101621E+02  0.47000000000E+01 0.  1.
         11    1    6    6    0    0 -0.25999229797E+02 -0.28918351690E+02  0.70817767467E+02  0.80792247175E+02  0.00000000000E+00 0. -1.
        -12    1    6    6    0    0 -0.71430723280E+02 -0.25609736417E+01  0.47284368788E+03  0.47821549534E+03  0.00000000000E+00 0.  1.
</event>
<event>
12    1  0.8196217E-002  0.1739020E+03  0.7818608E-02  0.1174600E+00
         21   -1    0    0  501  502  0.00000000000E+00  0.00000000000E+00  0.28859925404E+02  0.28859925404E+02  0.00000000000E+00 0. -1.
         21   -1    0    0  502  503 -0.00000000000E+00 -0.00000000000E+00 -0.13307874577E+04  0.13307874577E+04  0.00000000000E+00 0. -1.
         -6    2    1    2    0  503 -0.16292631865E+02  0.80293929134E+01 -0.97850065721E+03  0.99383370791E+03  0.17295080754E+03 0.  0.
        -24    2    3    3    0    0 -0.76333137173E+02  0.56562998411E+01 -0.66783127129E+03  0.67737193898E+03  0.83518831715E+02 0.  0.
          6    2    1    2  501    0  0.16292631865E+02 -0.80293929134E+01 -0.32342687505E+03  0.36581367515E+03  0.16995523063E+03 0.  0.
         24    2    5    5    0    0 -0.11847711157E+02  0.52043926946E+02 -0.25066288380E+03  0.26723694825E+03  0.75728241773E+02 0.  0.
          5    1    5    5  501    0  0.28140343022E+02 -0.60073319860E+02 -0.72763991247E+02  0.98576726901E+02  0.47000000000E+01 0. -1.
        -13    1    6    6    0    0 -0.50058533887E+01 -0.19147336052E+02 -0.75137955277E+02  0.77700652309E+02  0.00000000000E+00 0.  1.
         14    1    6    6    0    0 -0.68418577680E+01  0.71191262998E+02 -0.17552492852E+03  0.18953629594E+03  0.00000000000E+00 0. -1.
         -5    1    3    3    0  503  0.60040505308E+02  0.23730930723E+01 -0.31066938592E+03  0.31646176893E+03  0.47000000000E+01 0.  1.
         11    1    4    4    0    0 -0.15277228313E+02 -0.26120351342E+02 -0.38883494906E+03  0.39001062046E+03  0.00000000000E+00 0. -1.
        -12    1    4    4    0    0 -0.61055908860E+02  0.31776651183E+02 -0.27899632223E+03  0.28736131852E+03  0.00000000000E+00 0.  1.
</event>
<event>
12    1  0.8196217E-002  0.2344349E+03  0.7818608E-02  0.1124079E+00
         21   -1    0    0  503  502  0.00000000000E+00  0.00000000000E+00  0.70290635748E+03  0.70290635748E+03  0.00000000000E+00 0.  1.
         21   -1    0    0  501  503 -0.00000000000E+00 -0.00000000000E+00 -0.92234237500E+02  0.92234237500E+02  0.00000000000E+00 0.  1.
          6    2    1    2  501    0  0.11736747266E+03  0.10303939284E+03  0.46426671149E+03  0.51874550794E+03  0.17076616322E+03 0.  0.
         24    2    3    3    0    0  0.34618823149E+02 -0.14733545376E+02  0.24950786040E+03  0.26017006810E+03  0.63393624726E+02 0.  0.
         -6    2    1    2    0  502 -0.11736747266E+03 -0.10303939284E+03  0.14640540849E+03  0.27639508704E+03  0.17483552381E+03 0.  0.
        -24    2    5    5    0    0 -0.45793477546E+02 -0.20237347680E+02  0.13749496249E+03  0.16648375228E+03  0.79406437002E+02 0.  0.
          5    1    3    3  501    0  0.82748649513E+02  0.11777293821E+03  0.21475885108E+03  0.25857543985E+03  0.47000000000E+01 0. -1.
        -13    1    4    4    0    0  0.59750477419E+01 -0.17576700920E+02  0.21238593465E+03  0.21319574772E+03  0.00000000000E+00 0.  1.
         14    1    4    4    0    0  0.28643775407E+02  0.28431555442E+01  0.37121925757E+02  0.46974320378E+02  0.00000000000E+00 0. -1.
         -5    1    5    5    0  502 -0.71573995116E+02 -0.82802045158E+02  0.89104460030E+01  0.10991133475E+03  0.47000000000E+01 0.  1.
         13    1    6    6    0    0 -0.55175726454E+02  0.50336461940E+01  0.48965745812E+02  0.73941481232E+02  0.00000000000E+00 0. -1.
        -14    1    6    6    0    0  0.93822489079E+01 -0.25270993874E+02  0.88529216677E+02  0.92542271052E+02  0.00000000000E+00 0.  1.
</event>
<event>
12    1  0.8196217E-002  0.1821154E+03  0.7818608E-02  0.1166172E+00
         21   -1    0    0  503  502  0.00000000000E+00  0.00000000000E+00  0.16871960048E+03  0.16871960048E+03  0.00000000000E+00 0. -1.
         21   -1    0    0  501  503 -0.00000000000E+00 -0.00000000000E+00 -0.21980929455E+03  0.21980929455E+03  0.00000000000E+00 0.  1.
          6    2    1    2  501    0  0.26549256979E+02  0.50735573327E+02 -0.91004950833E+02  0.20209057826E+03  0.17111323531E+03 0.  0.
         24    2    3    3    0    0 -0.33280353318E+00  0.98260382243E+02 -0.59785245776E+02  0.13901909006E+03  0.78082125432E+02 0.  0.
         -6    2    1    2    0  502 -0.26549256979E+02 -0.50735573327E+02  0.39915256758E+02  0.18643831677E+03  0.17287873435E+03 0.  0.
        -24    2    5    5    0    0 -0.80552757707E+02 -0.11144626681E+02  0.40503318405E+02  0.11930965699E+03  0.77339032651E+02 0.  0.
          5    1    3    3  501    0  0.26882060512E+02 -0.47524808917E+02 -0.31219705058E+02  0.63071488201E+02  0.47000000000E+01 0. -1.
        -11    1    4    4    0    0 -0.34306911473E+02  0.79678589158E+02 -0.39856576166E+02  0.95468258645E+02  0.00000000000E+00 0.  1.
         12    1    4    4    0    0  0.33974107940E+02  0.18581793086E+02 -0.19928669610E+02  0.43550831416E+02  0.00000000000E+00 0. -1.
         -5    1    5    5    0  502  0.54003500728E+02 -0.39590946646E+02 -0.58806164667E+00  0.67128659778E+02  0.47000000000E+01 0.  1.
         11    1    6    6    0    0 -0.13796148253E+02 -0.17608205269E+02  0.46874994458E+02  0.51938884324E+02  0.00000000000E+00 0. -1.
        -12    1    6    6    0    0 -0.66756609454E+02  0.64635785884E+01 -0.63716760528E+01  0.67370772666E+02  0.00000000000E+00 0.  1.
</event>
<event>
12    1  0.8196217E-002  0.2236132E+03  0.7818608E-02  0.1131309E+00
         21   -1    0    0  503  502  0.00000000000E+00  0.00000000000E+00  0.40456298591E+03  0.40456298591E+03  0.00000000000E+00 0. -1.
         21   -1    0    0  501  503 -0.00000000000E+00 -0.00000000000E+00 -0.18419454114E+03  0.18419454114E+03  0.00000000000E+00 0. -1.
          6    2    1    2  501    0 -0.97603393601E+02 -0.10340020240E+03 -0.59128435462E+02  0.23081708286E+03  0.17193699300E+03 0.  0.
         24    2    3    3    0    0 -0.37746795228E+02  0.73639006034E+01 -0.60412339276E+02  0.10482010952E+03  0.76541211385E+02 0.  0.
         -6    2    1    2    0  502  0.97603393601E+02  0.10340020240E+03  0.27949688023E+03  0.35794044419E+03  0.17258282427E+03 0.  0.
        -24    2    5    5    0    0  0.89512208460E+02  0.11135627887E+03  0.29545186842E+03  0.33780544784E+03  0.80050345004E+02 0.  0.
          5    1    3    3  501    0 -0.59856598374E+02 -0.11076410301E+03  0.12839038139E+01  0.12599697335E+03  0.47000000000E+01 0. -1.
        -13    1    4    4    0    0  0.10836409436E+02  0.28165311533E+02 -0.10023400138E+02  0.31799073784E+02  0.00000000000E+00 0.  1.
         14    1    4    4    0    0 -0.48583204664E+02 -0.20801410929E+02 -0.50388939139E+02  0.73021035733E+02  0.00000000000E+00 0. -1.
         -5    1    5    5    0  502  0.80911851417E+01 -0.79560764645E+01 -0.15954988191E+02  0.20134996347E+02  0.47000000000E+01 0.  1.
         11    1    6    6    0    0  0.15140006761E+02  0.58139489042E+02  0.58656274877E+02  0.83964150525E+02  0.00000000000E+00 0. -1.
        -12    1    6    6    0    0  0.74372201699E+02  0.53216789824E+02  0.23679559354E+03  0.25384129732E+03  0.00000000000E+00 0.  1.
</event>
<event>
12    1  0.8196217E-002  0.2025484E+03  0.7818608E-02  0.1148568E+00
         21   -1    0    0  501  502  0.00000000000E+00  0.00000000000E+00  0.14104827595E+03  0.14104827595E+03  0.00000000000E+00 0.  1.
         21   -1    0    0  502  503 -0.00000000000E+00 -0.00000000000E+00 -0.39947216301E+03  0.39947216301E+03  0.00000000000E+00 0. -1.
         -6    2    1    2    0  503  0.97819156253E+02 -0.40392983804E+02 -0.27325211183E+03  0.33742998088E+03  0.16730838267E+03 0.  0.
        -24    2    3    3    0    0  0.13005878879E+03 -0.54018053365E+02 -0.23812876065E+03  0.28762258962E+03  0.78665168777E+02 0.  0.
          6    2    1    2  501    0 -0.97819156253E+02  0.40392983804E+02  0.14828224769E+02  0.20309045808E+03  0.17270112172E+03 0.  0.
         24    2    5    5    0    0 -0.11553626233E+03 -0.23312795507E+01  0.44739720364E+02  0.14780894132E+03  0.80571569290E+02 0.  0.
          5    1    5    5  501    0  0.17717106076E+02  0.42724263355E+02 -0.29911495595E+02  0.55281516763E+02  0.47000000000E+01 0. -1.
        -11    1    6    6    0    0 -0.91119793730E+02 -0.13854018660E+02 -0.38224123002E+01  0.92246200345E+02  0.00000000000E+00 0.  1.
         12    1    6    6    0    0 -0.24416468599E+02  0.11522739109E+02  0.48562132664E+02  0.55562740972E+02  0.00000000000E+00 0. -1.
         -5    1    3    3    0  503 -0.32239632538E+02  0.13625069561E+02 -0.35123351172E+02  0.49807391261E+02  0.47000000000E+01 0.  1.
         13    1    4    4    0    0  0.40274013823E+02 -0.49829014720E+02 -0.14327043852E+03  0.15694376525E+03  0.00000000000E+00 0. -1.
        -14    1    4    4    0    0  0.89784774968E+02 -0.41890386452E+01 -0.94858322136E+02  0.13067882437E+03  0.00000000000E+00 0.  1.
</event>
<event>
12    1  0.8196217E-002  0.1952986E+03  0.7818608E-02  0.1154091E+00
         21   -1    0    0  503  502  0.00000000000E+00  0.00000000000E+00  0.13098686647E+03  0.13098686647E+03  0.00000000000E+00 0.  1.
         21   -1    0    0  501  503 -0.00000000000E+00 -0.00000000000E+00 -0.29573776107E+03  0.29573776107E+03  0.00000000000E+00 0.  1.
          6    2    1    2  501    0 -0.63296833981E+02  0.67476272313E+02 -0.11432197397E+03  0.22502030014E+03  0.17030879374E+03 0.  0.
         24    2    3    3    0    0 -0.90522874293E+02  0.19694086023E+02 -0.11700659432E+03  0.16976008132E+03  0.80905465214E+02 0.  0.
         -6    2    1    2    0  502  0.63296833981E+02 -0.67476272313E+02 -0.50428920625E+02  0.20170432740E+03  0.17199425321E+03 0.  0.
        -24    2    5    5    0    0  0.72391270907E+02 -0.12300470262E+02  0.34323504153E+02  0.10005718568E+03  0.58664638376E+02 0.  0.
          5    1    3    3  501    0  0.27226040311E+02  0.47782186290E+02  0.26846203484E+01  0.55260218820E+02  0.47000000000E+01 0. -1.
        -11    1    4    4    0    0 -0.62514444405E+02  0.40415409773E+02 -0.11211513780E+03  0.13457810085E+03  0.00000000000E+00 0.  1.
         12    1    4    4    0    0 -0.28008429888E+02 -0.20721323749E+02 -0.48914565240E+01  0.35181980468E+02  0.00000000000E+00 0. -1.
         -5    1    5    5    0  502 -0.90944369254E+01 -0.55175802050E+02 -0.84752424778E+02  0.10164714172E+03  0.47000000000E+01 0.  1.
         13    1    6    6    0    0 -0.50640441257E+01 -0.12709321814E+02  0.14847814027E+02  0.20189823805E+02  0.00000000000E+00 0. -1.
        -14    1    6    6    0    0  0.77455315032E+02  0.40885155147E+00  0.19475690125E+02  0.79867361871E+02  0.00000000000E+00 0.  1.
</event>
<event>
12    1  0.8196217E-002  0.1865976E+03  0.7818608E-02  0.1162605E+00
         21   -1    0    0  503  502  0.00000000000E+00  0.00000000000E+00  0.33523023245E+03  0.33523023245E+03  0.00000000000E+00 0.  1.
         21   -1    0    0  501  503 -0.00000000000E+00 -0.00000000000E+00 -0.14894676986E+03  0.14894676986E+03  0.00000000000E+00 0. -1.
          6    2    1    2  501    0  0.67472202536E+02 -0.19969318481E+02 -0.42857126313E+02  0.19145596278E+03  0.17282181753E+03 0.  0.
         24    2    3    3    0    0  0.38584462010E+02  0.50477063545E+02 -0.52137764455E+02  0.11460926775E+03  0.79876424052E+02 0.  0.
         -6    2    1    2    0  502 -0.67472202536E+02  0.19969318481E+02  0.22914058890E+03  0.29272103952E+03  0.16801465918E+03 0.  0.
        -24    2    5    5    0    0 -0.15142757055E+02 -0.47008369494E+02  0.95088692590E+02  0.13392436935E+03  0.80341691261E+02 0.  0.
          5    1    3    3  501    0  0.28887740526E+02 -0.70446382026E+02  0.92806381422E+01  0.76846695034E+02  0.47000000000E+01 0. -1.
        -13    1    4    4    0    0  0.37030985650E+02 -0.88209233124E+01 -0.41155503554E+01  0.38288906240E+02  0.00000000000E+00 0.  1.
         14    1    4    4    0    0  0.15534763595E+01  0.59297986858E+02 -0.48022214100E+02  0.76320361511E+02  0.00000000000E+00 0. -1.
         -5    1    5    5    0  502 -0.52329445481E+02  0.66977687976E+02  0.13405189631E+03  0.15879667016E+03  0.47000000000E+01 0.  1.
         13    1    6    6    0    0 -0.31954199601E+02  0.28014921466E+01  0.67087622781E+02  0.74361739899E+02  0.00000000000E+00 0. -1.
        -14    1    6    6    0    0  0.16811442546E+02 -0.49809861641E+02  0.28001069809E+02  0.59562629455E+02  0.00000000000E+00 0.  1.
</event>
<event>
12    1  0.8196217E-002  0.1772817E+03  0.7818608E-02  0.1170985E+00
         21   -1    0    0  501  502  0.00000000000E+00  0.00000000000E+00  0.25130305179E+03  0.25130305179E+03  0.00000000000E+00 0.  1.
         21   -1    0    0  502  503 -0.00000000000E+00 -0.00000000000E+00 -0.12628460226E+03  0.12628460226E+03  0.00000000000E+00 0.  1.
         -6    2    1    2    0  503 -0.24629176555E+02  0.24692888760E+02  0.89784102067E+02  0.19683845238E+03  0.17166204082E+03 0.  0.
        -24    2    3    3    0    0 -0.38013106946E+02  0.78487423880E+02  0.53795406579E+02  0.13057943183E+03  0.80943006126E+02 0.  0.
          6    2    1    2  501    0  0.24629176555E+02 -0.24692888760E+02  0.35234347465E+02  0.18074920167E+03  0.17381737419E+03 0.  0.
         24    2    5    5    0    0  0.16409004554E+02 -0.66283800567E+02  0.69541663815E+02  0.12600929732E+03  0.79871786991E+02 0.  0.
          5    1    5    5  501    0  0.82201720006E+01  0.41590911807E+02 -0.34307316350E+02  0.54739904345E+02  0.47000000000E+01 0. -1.
        -11    1    6    6    0    0  0.47773292049E+02 -0.44964092474E+02  0.33384872859E+02  0.73611186521E+02  0.00000000000E+00 0.  1.
         12    1    6    6    0    0 -0.31364287494E+02 -0.21319708093E+02  0.36156790956E+02  0.52398110800E+02  0.00000000000E+00 0. -1.
         -5    1    3    3    0  503  0.13383930391E+02 -0.53794535120E+02  0.35988695488E+02  0.66259020551E+02  0.47000000000E+01 0.  1.
         11    1    4    4    0    0  0.12761730871E+02  0.75583404340E+01  0.39491251987E+02  0.42184704200E+02  0.00000000000E+00 0. -1.
        -12    1    4    4    0    0 -0.50774837817E+02  0.70929083446E+02  0.14304154592E+02  0.88394727628E+02  0.00000000000E+00 0.  1.
</event>
<event>
12    1  0.8196217E-002  0.2079656E+03  0.7818608E-02  0.1143428E+00
         21   -1    0    0  503  502  0.00000000000E+00  0.00000000000E+00  0.11209396563E+03  0.11209396563E+03  0.00000000000E+00 0. -1.
         21   -1    0    0  501  503 -0.00000000000E+00 -0.00000000000E+00 -0.39407868749E+03  0.39407868749E+03  0.00000000000E+00 0. -1.
          6    2    1    2  501    0 -0.93387239025E+02 -0.65964627559E+02 -0.18183512950E+03  0.27534879840E+03  0.17228011481E+03 0.  0.
         24    2    3    3    0    0 -0.79656232386E+02 -0.10151082764E+03 -0.18400083105E+03  0.23689293868E+03  0.74915920097E+02 0.  0.
         -6    2    1    2    0  502  0.93387239025E+02  0.65964627559E+02 -0.10014959236E+03  0.23082385472E+03  0.17371586731E+03 0.  0.
        -24    2    5    5    0    0 -0.10277284918E+02  0.53114178145E+02 -0.79495903392E+02  0.12423993265E+03  0.78671619434E+02 0.  0.
          5    1    3    3  501    0 -0.13731006639E+02  0.35546200083E+02  0.21657015488E+01  0.38455859720E+02  0.47000000000E+01 0. -1.
        -11    1    4    4    0    0  0.22529017138E+01 -0.54198007723E+02 -0.75185507443E+02  0.92711165114E+02  0.00000000000E+00 0.  1.
         12    1    4    4    0    0 -0.81909134100E+02 -0.47312819918E+02 -0.10881532361E+03  0.14418177357E+03  0.00000000000E+00 0. -1.
         -5    1    5    5    0  502  0.10366452394E+03  0.12850449414E+02 -0.20653688966E+02  0.10658392206E+03  0.47000000000E+01 0.  1.
         11    1    6    6    0    0  0.94522248174E+01  0.45718676094E+02 -0.51532352279E+01  0.46969114651E+02  0.00000000000E+00 0. -1.
        -12    1    6    6    0    0 -0.19729509736E+02  0.73955020507E+01 -0.74342668164E+02  0.77270818002E+02  0.00000000000E+00 0.  1.
</event>
<event>
12    1  0.8196217E-002  0.2001471E+03  0.7818608E-02  0.1149935E+00
         21   -1    0    0  501  502  0.00000000000E+00  0.00000000000E+00  0.48216743840E+02  0.48216743840E+02  0.00000000000E+00 0.  1.
         21   -1    0    0  502  503 -0.00000000000E+00 -0.00000000000E+00 -0.10142296752E+04  0.10142296752E+04  0.00000000000E+00 0.  1.
         -6    2    1    2    0  503  0.28909204331E+02  0.96147744554E+02 -0.71125147310E+03  0.73846759905E+03  0.17139313283E+03 0.  0.
        -24    2    3    3    0    0  0.22496210392E+02  0.76639545659E+02 -0.23480828620E+03  0.26155891108E+03  0.83056807414E+02 0.  0.
          6    2    1    2  501    0 -0.28909204331E+02 -0.96147744554E+02 -0.25476145828E+03  0.32397882000E+03  0.17314370999E+03 0.  0.
         24    2    5    5    0    0 -0.15260407890E+02 -0.82769210091E+02 -0.27359989293E+03  0.29673452796E+03  0.78171967396E+02 0.  0.
          5    1    5    5  501    0 -0.13648796441E+02 -0.13378534464E+02  0.18838434653E+02  0.27244292042E+02  0.47000000000E+01 0. -1.
        -11    1    6    6    0    0 -0.35289459841E+02 -0.46326834832E+02 -0.81398507582E+02  0.10008615608E+03  0.00000000000E+00 0.  1.
         12    1    6    6    0    0  0.20029051951E+02 -0.36442375258E+02 -0.19220138535E+03  0.19664837189E+03  0.00000000000E+00 0. -1.
         -5    1    3    3    0  503  0.64129939395E+01  0.19508198895E+02 -0.47644318690E+03  0.47690868797E+03  0.47000000000E+01 0.  1.
         13    1    4    4    0    0  0.47948588827E+02  0.35127881472E+02 -0.82684739195E+02  0.10183222144E+03  0.00000000000E+00 0. -1.
        -14    1    4    4    0    0 -0.25452378435E+02  0.41511664187E+02 -0.15212354700E+03  0.15972668964E+03  0.00000000000E+00 0.  1.
</event>
<event>
12    1  0.8196217E-002  0.1830656E+03  0.7818608E-02  0.1165150E+00
         21   -1    0    0  503  502  0.00000000000E+00  0.00000000000E+00  0.64838712012E+02  0.64838712012E+02  0.00000000000E+00 0.  1.
         21   -1    0    0  501  503 -0.00000000000E+00 -0.00000000000E+00 -0.61260956838E+03  0.61260956838E+03  0.00000000000E+00 0.  1.
          6    2    1    2  501    0 -0.45705185212E+02 -0.27695118157E+02 -0.41085371733E+03  0.44979305421E+03  0.17509149336E+03 0.  0.
         24    2    3    3    0    0 -0.22169431866E+02  0.52812107803E+02 -0.19954232107E+03  0.22239485433E+03  0.79760459483E+02 0.  0.
         -6    2    1    2    0  502  0.45705185212E+02  0.27695118157E+02 -0.13691713905E+03  0.22765522619E+03  0.17385228075E+03 0.  0.
        -24    2    5    5    0    0  0.18667464877E+02  0.81100204597E+02 -0.38628632301E+02  0.11247770175E+03  0.65064158536E+02 0.  0.
          5    1    3    3  501    0 -0.23535753346E+02 -0.80507225959E+02 -0.21131139626E+03  0.22739819987E+03  0.47000000000E+01 0. -1.
        -13    1    4    4    0    0 -0.47744401704E+02  0.47446222096E+02 -0.17061235377E+03  0.18341005192E+03  0.00000000000E+00 0.  1.
         14    1    4    4    0    0  0.25574969838E+02  0.53658857069E+01 -0.28929967298E+02  0.38984802417E+02  0.00000000000E+00 0. -1.
         -5    1    5    5    0  502  0.27037720335E+02 -0.53405086440E+02 -0.98288506745E+02  0.11517752444E+03  0.47000000000E+01 0.  1.
         11    1    6    6    0    0 -0.13027232901E+02 -0.47035958769E+01 -0.22181744286E+01  0.14026863834E+02  0.00000000000E+00 0. -1.
        -12    1    6    6    0    0  0.31694697778E+02  0.85803800474E+02 -0.36410457872E+02  0.98450837911E+02  0.00000000000E+00 0.  1.
</event>
<event>
12    1  0.8196217E-002  0.2075575E+03  0.7818608E-02  0.1143526E+00
         21   -1    0    0  501  502  0.00000000000E+00  0.00000000000E+00  0.39003102481E+02  0.39003102481E+02  0.00000000000E+00 0. -1.
         21   -1    0    0  502  503 -0.00000000000E+00 -0.00000000000E+00 -0.11343704063E+04  0.11343704063E+04  0.00000000000E+00 0.  1.
         -6    2    1    2    0  503 -0.11570947387E+03 -0.80824041906E+01 -0.64323018528E+03  0.67587167553E+03  0.17205651087E+03 0.  0.
        -24    2    3    3    0    0 -0.13936999383E+03 -0.76260281133E+01 -0.39380203992E+03  0.42527934089E+03  0.79374552953E+02 0.  0.
          6    2    1    2  501    0  0.11570947387E+03  0.80824041906E+01 -0.45213711855E+03  0.49750183325E+03  0.17212231850E+03 0.  0.
         24    2    5    5    0    0  0.34742667156E+02 -0.37477105476E+02 -0.32487252641E+03  0.33986408675E+03  0.85754607414E+02 0.  0.
          5    1    5    5  501    0  0.80966806713E+02  0.45559509667E+02 -0.12726459213E+03  0.15763774650E+03  0.47000000000E+01 0. -1.
        -11    1    6    6    0    0 -0.14455861058E+02 -0.18471453216E+02 -0.23101604204E+03  0.23220374282E+03  0.00000000000E+00 0.  1.
         12    1    6    6    0    0  0.49198528214E+02 -0.19005652260E+02 -0.93856484375E+02  0.10766034393E+03  0.00000000000E+00 0. -1.
         -5    1    3    3    0  503  0.23660519965E+02 -0.45637607730E+00 -0.24942814536E+03  0.25059233464E+03  0.47000000000E+01 0.  1.
         11    1    4    4    0    0 -0.61134310258E+02  0.14977894193E+02 -0.84075461476E+02  0.10502582743E+03  0.00000000000E+00 0. -1.
        -12    1    4    4    0    0 -0.78235683576E+02 -0.22603922306E+02 -0.30972657845E+03  0.32025351346E+03  0.00000000000E+00 0.  1.
</event>
<event>
12    1  0.8196217E-002  0.2381965E+03  0.7818608E-02  0.1121656E+00
         21   -1    0    0  501  502  0.00000000000E+00  0.00000000000E+00  0.62004057641E+03  0.62004057641E+03  0.00000000000E+00 0. -1.
         21   -1    0    0  502  503 -0.00000000000E+00 -0.00000000000E+00 -0.18163042252E+03  0.18163042252E+03  0.00000000000E+00 0. -1.
         -6    2    1    2    0  503  0.13936759395E+03 -0.76403978089E+02 -0.64562108926E+02  0.24679110344E+03  0.17741670924E+03 0.  0.
        -24    2    3    3    0    0  0.10556701667E+03 -0.72811105467E+02 -0.11330377145E+03  0.18718214921E+03  0.75852226527E+02 0.  0.
          6    2    1    2  501    0 -0.13936759395E+03  0.76403978089E+02  0.50297226281E+03  0.55487989549E+03  0.17219090321E+03 0.  0.
         24    2    5    5    0    0 -0.16995430189E+03  0.52671711099E+02  0.39635437730E+03  0.44135355180E+03  0.77700652549E+02 0.  0.
          5    1    5    5  501    0  0.30586707936E+02  0.23732266990E+02  0.10661788552E+03  0.11352634369E+03  0.47000000000E+01 0. -1.
        -13    1    6    6    0    0 -0.32117742336E+02 -0.15958391764E+02  0.11701049048E+03  0.12238330982E+03  0.00000000000E+00 0.  1.
         14    1    6    6    0    0 -0.13783655955E+03  0.68630102863E+02  0.27934388682E+03  0.31897024198E+03  0.00000000000E+00 0. -1.
         -5    1    3    3    0  503  0.33800577276E+02 -0.35928726225E+01  0.48741662529E+02  0.59608954226E+02  0.47000000000E+01 0.  1.
         13    1    4    4    0    0  0.47217068039E+02 -0.71768183897E+02 -0.89780283142E+02  0.12426030330E+03  0.00000000000E+00 0. -1.
        -14    1    4    4    0    0  0.58349948636E+02 -0.10429215703E+01 -0.23523488312E+02  0.62921845917E+02  0.00000000000E+00 0.  1.
</event>
<event>
12    1  0.8196217E-002  0.2693142E+03  0.7818608E-02  0.1101902E+00
         21   -1    0    0  501  502  0.00000000000E+00  0.00000000000E+00  0.21096802580E+03  0.21096802580E+03  0.00000000000E+00 0.  1.
         21   -1    0    0  502  503 -0.00000000000E+00 -0.00000000000E+00 -0.36677866286E+03  0.36677866286E+03  0.00000000000E+00 0.  1.
         -6    2    1    2    0  503  0.19854068425E+03  0.56648443820E+02 -0.22539439506E+01  0.26773085987E+03  0.17043263646E+03 0.  0.
        -24    2    3    3    0    0  0.79639394298E+02  0.65845873302E+02 -0.51037418204E+02  0.13879666416E+03  0.77340699318E+02 0.  0.
          6    2    1    2  501    0 -0.19854068425E+03 -0.56648443820E+02 -0.15355669310E+03  0.31001582879E+03  0.17292399086E+03 0.  0.
         24    2    5    5    0    0 -0.90188300338E+02 -0.62972290633E+01 -0.14590908748E+03  0.19019905284E+03  0.81930661424E+02 0.  0.
          5    1    5    5  501    0 -0.10835238391E+03 -0.50351214756E+02 -0.76476056207E+01  0.11981677595E+03  0.47000000000E+01 0. -1.
        -13    1    6    6    0    0 -0.36237846869E+02 -0.38332924142E+02 -0.36742766944E+02  0.64285500244E+02  0.00000000000E+00 0.  1.
         14    1    6    6    0    0 -0.53950453469E+02  0.32035695078E+02 -0.10916632054E+03  0.12591355260E+03  0.00000000000E+00 0. -1.
         -5    1    3    3    0  503  0.11890128995E+03 -0.91974294822E+01  0.48783474253E+02  0.12893419570E+03  0.47000000000E+01 0.  1.
         13    1    4    4    0    0  0.61565677455E+02  0.22666492863E+01 -0.34706926739E+02  0.70710968761E+02  0.00000000000E+00 0. -1.
        -14    1    4    4    0    0  0.18073716843E+02  0.63579224016E+02 -0.16330491465E+02  0.68085695402E+02  0.00000000000E+00 0.  1.
</event>
<event>
12    1  0.8196217E-002  0.2003484E+03  0.7818608E-02  0.1149461E+00
         21   -1    0    0  503  502  0.00000000000E+00  0.00000000000E+00  0.74104745933E+03  0.74104745933E+03  0.00000000000E+00 0. -1.
         21   -1    0    0  501  503 -0.00000000000E+00 -0.00000000000E+00 -0.54176634040E+02  0.54176634040E+02  0.00000000000E+00 0.  1.
          6    2    1    2  501    0  0.80020074579E+02  0.64916800286E+02  0.33379652719E+03  0.38926727377E+03  0.17173085211E+03 0.  0.
         24    2    3    3    0    0  0.88701580984E+02  0.97284067879E+02  0.18369816356E+03  0.23540169176E+03  0.65854239441E+02 0.  0.
         -6    2    1    2    0  502 -0.80020074579E+02 -0.64916800286E+02  0.35307429810E+03  0.40595681960E+03  0.17181989439E+03 0.  0.
        -24    2    5    5    0    0  0.22646862508E+02 -0.37996933191E+02  0.12833928755E+03  0.15737465174E+03  0.79618848060E+02 0.  0.
          5    1    3    3  501    0 -0.86815064057E+01 -0.32367267593E+02  0.15009836363E+03  0.15386558202E+03  0.47000000000E+01 0. -1.
        -11    1    4    4    0    0  0.63958446617E+02  0.27418546698E+02  0.63594105326E+02  0.94269135081E+02  0.00000000000E+00 0.  1.
         12    1    4    4    0    0  0.24743134367E+02  0.69865521182E+02  0.12010405824E+03  0.14113255668E+03  0.00000000000E+00 0. -1.
         -5    1    5    5    0  502 -0.10266693709E+03 -0.26919867095E+02  0.22473501054E+03  0.24858216786E+03  0.47000000000E+01 0.  1.
         13    1    6    6    0    0 -0.10018381392E+02 -0.49957027432E+02  0.10102499731E+03  0.11314646542E+03  0.00000000000E+00 0. -1.
        -14    1    6    6    0    0  0.32665243900E+02  0.11960094241E+02  0.27314290239E+02  0.44228186313E+02  0.00000000000E+00 0.  1.
</event>
<event>
12    1  0.8196217E-002  0.2167558E+03  0.7818608E-02  0.1137062E+00
         21   -1    0    0  501  502  0.00000000000E+00  0.00000000000E+00  0.14498693679E+03  0.14498693679E+03  0.00000000000E+00 0.  1.
         21   -1    0    0  502  503 -0.00000000000E+00 -0.00000000000E+00 -0.32072811912E+03  0.32072811912E+03  0.00000000000E+00 0. -1.
         -6    2    1    2    0  503  0.84692452332E+02 -0.97194499781E+02 -0.68529955904E+02  0.22733113938E+03  0.17425128351E+03 0.  0.
        -24    2    3    3    0    0  0.47397603238E+02 -0.34027705673E+02 -0.10637769785E+03  0.14465410981E+03  0.78766613103E+02 0.  0.
          6    2    1    2  501    0 -0.84692452332E+02  0.97194499781E+02 -0.10721122643E+03  0.23838391653E+03  0.16944929129E+03 0.  0.
         24    2    5    5    0    0 -0.77282235573E+02  0.59542605859E+02 -0.12927019898E+03  0.19387251689E+03  0.10657346112E+03 0.  0.
          5    1    5    5  501    0 -0.74102167595E+01  0.37651893922E+02  0.22058972545E+02  0.44511399642E+02  0.47000000000E+01 0. -1.
        -11    1    6    6    0    0 -0.31071392058E+02  0.45928799029E+02  0.49476666024E+00  0.55453861711E+02  0.00000000000E+00 0.  1.
         12    1    6    6    0    0 -0.46210843514E+02  0.13613806830E+02 -0.12976496564E+03  0.13841865518E+03  0.00000000000E+00 0. -1.
         -5    1    3    3    0  503  0.37294849094E+02 -0.63166794108E+02  0.37847741947E+02  0.82677029563E+02  0.47000000000E+01 0.  1.
         11    1    4    4    0    0  0.21864149746E+02  0.13381755680E+02 -0.81313816757E+02  0.85258719348E+02  0.00000000000E+00 0. -1.
        -12    1    4    4    0    0  0.25533453492E+02 -0.47409461353E+02 -0.25063881094E+02  0.59395390465E+02  0.00000000000E+00 0.  1.
</event>
<event>
12    1  0.8196217E-002  0.2502065E+03  0.7818608E-02  0.1113175E+00
         21   -1    0    0  501  502  0.00000000000E+00  0.00000000000E+00  0.33300094330E+03  0.33300094330E+03  0.00000000000E+00 0.  1.
         21   -1    0    0  502  503 -0.00000000000E+00 -0.00000000000E+00 -0.20923021763E+03  0.20923021763E+03  0.00000000000E+00 0. -1.
         -6    2    1    2    0  503 -0.50051244841E+02 -0.17408722758E+03 -0.24492169691E+02  0.25139585509E+03  0.17259350991E+03 0.  0.
        -24    2    3    3    0    0 -0.59678725628E+01 -0.10488046794E+03 -0.77959361557E+02  0.15334612333E+03  0.80011520597E+02 0.  0.
          6    2    1    2  501    0  0.50051244841E+02  0.17408722758E+03  0.14826289536E+03  0.29083530585E+03  0.17260301003E+03 0.  0.
         24    2    5    5    0    0 -0.18206424062E+02  0.86142352865E+02  0.13326339977E+03  0.17840539337E+03  0.79481896240E+02 0.  0.
          5    1    5    5  501    0  0.68257668904E+02  0.87944874714E+02  0.14999495594E+02  0.11242991248E+03  0.47000000000E+01 0. -1.
        -11    1    6    6    0    0  0.17914672601E+02  0.61976348915E+02  0.41056350636E+02  0.76469779958E+02  0.00000000000E+00 0.  1.
         12    1    6    6    0    0 -0.36121096664E+02  0.24166003950E+02  0.92207049133E+02  0.10193561341E+03  0.00000000000E+00 0. -1.
         -5    1    3    3    0  503 -0.44083372279E+02 -0.69206759634E+02  0.53467191866E+02  0.98049731752E+02  0.47000000000E+01 0.  1.
         13    1    4    4    0    0  0.36151056122E+02 -0.47755059182E+02 -0.45935359965E+02  0.75481798013E+02  0.00000000000E+00 0. -1.
        -14    1    4    4    0    0 -0.42118928685E+02 -0.57125408763E+02 -0.32024001592E+02  0.77864325322E+02  0.00000000000E+00 0.  1.
</event>
<event>
12    1  0.8196217E-002  0.1939124E+03  0.7818608E-02  0.1158269E+00
         21   -1    0    0  501  502  0.00000000000E+00  0.00000000000E+00  0.38108549644E+02  0.38108549644E+02  0.00000000000E+00 0.  1.
         21   -1    0    0  502  503 -0.00000000000E+00 -0.00000000000E+00 -0.93189881699E+03  0.93189881699E+03  0.00000000000E+00 0.  1.
         -6    2    1    2    0  503 -0.75585049874E+02  0.20262948814E+02 -0.39833603626E+03  0.44302777432E+03  0.17742131828E+03 0.  0.
        -24    2    3    3    0    0 -0.10698214746E+02  0.74445537641E+02 -0.21633378812E+03  0.24229670390E+03  0.79061969149E+02 0.  0.
          6    2    1    2  501    0  0.75585049874E+02 -0.20262948814E+02 -0.49545423109E+03  0.52697959232E+03  0.16158251375E+03 0.  0.
         24    2    5    5    0    0  0.99215504749E+02  0.78544438889E+01 -0.45062906058E+03  0.46883862499E+03  0.82690370496E+02 0.  0.
          5    1    5    5  501    0 -0.23630454875E+02 -0.28117392703E+02 -0.44825170512E+02  0.58140967325E+02  0.47000000000E+01 0. -1.
        -13    1    6    6    0    0  0.78815091526E+02  0.39705861936E+02 -0.26228893997E+03  0.27673789432E+03  0.00000000000E+00 0.  1.
         14    1    6    6    0    0  0.20400413223E+02 -0.31851418047E+02 -0.18834012061E+03  0.19210073067E+03  0.00000000000E+00 0. -1.
         -5    1    3    3    0  503 -0.64886835128E+02 -0.54182588827E+02 -0.18200224814E+03  0.20073107042E+03  0.47000000000E+01 0.  1.
         11    1    4    4    0    0 -0.32260103767E+02  0.80021866020E+02 -0.16127058470E+03  0.18290001319E+03  0.00000000000E+00 0. -1.
        -12    1    4    4    0    0  0.21561889021E+02 -0.55763283788E+01 -0.55063203413E+02  0.59396690703E+02  0.00000000000E+00 0.  1.
</event>
<event>
12    1  0.8196217E-002  0.1907995E+03  0.7818608E-02  0.1157877E+00
         21   -1    0    0  503  502  0.00000000000E+00  0.00000000000E+00  0.92532927879E+02  0.92532927879E+02  0.00000000000E+00 0.  1.
         21   -1    0    0  501  503 -0.00000000000E+00 -0.00000000000E+00 -0.13406530010E+04  0.13406530010E+04  0.00000000000E+00 0. -1.
          6    2    1    2  501    0 -0.43332351303E+02 -0.69129031558E+02 -0.12270822586E+04  0.12418274113E+04  0.17247589528E+03 0.  0.
         24    2    3    3    0    0  0.10794060805E+02  0.13657188294E+02 -0.37560590732E+03  0.38461256458E+03  0.80894973109E+02 0.  0.
         -6    2    1    2    0  502  0.43332351303E+02  0.69129031558E+02 -0.21037814511E+02  0.19135851755E+03  0.17181087546E+03 0.  0.
        -24    2    5    5    0    0  0.56925743668E+01 -0.27372882266E+02 -0.23132891638E+02  0.87648096054E+02  0.79783318933E+02 0.  0.
          5    1    3    3  501    0 -0.54126412107E+02 -0.82786219852E+02 -0.85147635124E+03  0.85721484671E+03  0.47000000000E+01 0. -1.
        -11    1    4    4    0    0 -0.26891104507E+02 -0.70223484341E+01 -0.60382924007E+02  0.66472117394E+02  0.00000000000E+00 0.  1.
         12    1    4    4    0    0  0.37685165312E+02  0.20679536728E+02 -0.31522298332E+03  0.31814044718E+03  0.00000000000E+00 0. -1.
         -5    1    5    5    0  502  0.37639776936E+02  0.96501913824E+02  0.20950771270E+01  0.10371042150E+03  0.47000000000E+01 0.  1.
         11    1    6    6    0    0 -0.36172128404E+02 -0.21001624538E+02 -0.74188017858E+01  0.42479756667E+02  0.00000000000E+00 0. -1.
        -12    1    6    6    0    0  0.41864702771E+02 -0.63712577278E+01 -0.15714089852E+02  0.45168339387E+02  0.00000000000E+00 0.  1.
</event>
<event>
12    1  0.8196217E-002  0.1927066E+03  0.7818608E-02  0.1156492E+00
         21   -1    0    0  501  502  0.00000000000E+00  0.00000000000E+00  0.68864687830E+03  0.68864687830E+03  0.00000000000E+00 0.  1.
         21   -1    0    0  502  503 -0.00000000000E+00 -0.00000000000E+00 -0.55678597680E+02  0.55678597680E+02  0.00000000000E+00 0. -1.
         -6    2    1    2    0  503  0.83342490123E+02 -0.19089310623E+01  0.23899017906E+03  0.30574301566E+03  0.17150181124E+03 0.  0.
        -24    2    3    3    0    0  0.63645790277E+02  0.64019852917E+02  0.11252572761E+03  0.16169471812E+03  0.73032967264E+02 0.  0.
          6    2    1    2  501    0 -0.83342490123E+02  0.19089310623E+01  0.39397810155E+03  0.43858246032E+03  0.17374180647E+03 0.  0.
         24    2    5    5    0    0 -0.11415864868E+03 -0.23125690552E+02  0.23045219428E+03  0.27024001095E+03  0.79714835767E+02 0.  0.
          5    1    5    5  501    0  0.30816158553E+02  0.25034621614E+02  0.16352590728E+03  0.16834244936E+03  0.47000000000E+01 0. -1.
        -13    1    6    6    0    0 -0.22336539284E+02 -0.20218772013E+02  0.13276669533E+03  0.13614226059E+03  0.00000000000E+00 0.  1.
         14    1    6    6    0    0 -0.91822109392E+02 -0.29069185384E+01  0.97685498949E+02  0.13409775037E+03  0.00000000000E+00 0. -1.
         -5    1    3    3    0  503  0.19696699845E+02 -0.65928783980E+02  0.12646445145E+03  0.14404829753E+03  0.47000000000E+01 0.  1.
         13    1    4    4    0    0  0.53459777922E+02  0.17747680327E+02  0.23880378839E+02  0.61181700744E+02  0.00000000000E+00 0. -1.
        -14    1    4    4    0    0  0.10186012355E+02  0.46272172591E+02  0.88645348772E+02  0.10051301738E+03  0.00000000000E+00 0.  1.
</event>
<event>
12    1  0.8196217E-002  0.1984098E+03  0.7818608E-02  0.1151160E+00
         21   -1    0    0  503  502  0.00000000000E+00  0.00000000000E+00  0.20497333977E+03  0.20497333977E+03  0.00000000000E+00 0.  1.
         21   -1    0    0  501  503 -0.00000000000E+00 -0.00000000000E+00 -0.45130594535E+03  0.45130594535E+03  0.00000000000E+00 0.  1.
          6    2    1    2  501    0 -0.92674435912E+02  0.34572611526E+02 -0.37207260282E+03  0.42166866647E+03  0.17199600568E+03 0.  0.
         24    2    3    3    0    0 -0.98592581569E+02 -0.31973727413E+02 -0.27142508472E+03  0.30077428044E+03  0.77786726189E+02 0.  0.
         -6    2    1    2    0  502  0.92674435912E+02 -0.34572611526E+02  0.12573999724E+03  0.23461061865E+03  0.17160355164E+03 0.  0.
        -24    2    5    5    0    0  0.67232767778E+02 -0.88681726277E+02  0.99254162542E+02  0.16904641945E+03  0.79627944272E+02 0.  0.
          5    1    3    3  501    0  0.59181456567E+01  0.66546338939E+02 -0.10064751810E+03  0.12089438603E+03  0.47000000000E+01 0. -1.
        -11    1    4    4    0    0 -0.46663285221E+02  0.21672335422E+02 -0.78014126906E+02  0.93452428044E+02  0.00000000000E+00 0.  1.
         12    1    4    4    0    0 -0.51929296347E+02 -0.53646062835E+02 -0.19341095781E+03  0.20732185239E+03  0.00000000000E+00 0. -1.
         -5    1    5    5    0  502  0.25441668134E+02  0.54109114750E+02  0.26485834696E+02  0.65564199195E+02  0.47000000000E+01 0.  1.
         11    1    6    6    0    0 -0.10818590172E+02 -0.31426523560E+02  0.44119724048E+01  0.33528104284E+02  0.00000000000E+00 0. -1.
        -12    1    6    6    0    0  0.78051357950E+02 -0.57255202717E+02  0.94842190138E+02  0.13551831517E+03  0.00000000000E+00 0.  1.
</event>
<event>
12    1  0.8196217E-002  0.1770127E+03  0.7818608E-02  0.1170996E+00
         21   -1    0    0  503  502  0.00000000000E+00  0.00000000000E+00  0.35667796467E+03  0.35667796467E+03  0.00000000000E+00 0.  1.
         21   -1    0    0  501  503 -0.00000000000E+00 -0.00000000000E+00 -0.20830371327E+03  0.20830371327E+03  0.00000000000E+00 0.  1.
          6    2    1    2  501    0 -0.40916222469E+02 -0.60624522134E+00 -0.14101386185E+03  0.22631483406E+03  0.17221785647E+03 0.  0.
         24    2    3    3    0    0 -0.13321232851E+01 -0.60729032453E+02 -0.51127969667E+02  0.11106200735E+03  0.77658935469E+02 0.  0.
         -6    2    1    2    0  502  0.40916222469E+02  0.60624522134E+00  0.28938811325E+03  0.33866684388E+03  0.17110010596E+03 0.  0.
        -24    2    5    5    0    0 -0.25629871612E+02  0.11523801452E+02  0.73549001718E+02  0.11248950696E+03  0.80341428932E+02 0.  0.
          5    1    3    3  501    0 -0.39584099184E+02  0.60122787232E+02 -0.89885892180E+02  0.11525282671E+03  0.47000000000E+01 0. -1.
        -11    1    4    4    0    0 -0.21177867103E+02 -0.55458071833E+01 -0.47505272455E+02  0.52306872812E+02  0.00000000000E+00 0.  1.
         12    1    4    4    0    0  0.19845743818E+02 -0.55183225270E+02 -0.36226972117E+01  0.58755134533E+02  0.00000000000E+00 0. -1.
         -5    1    5    5    0  502  0.66546094081E+02 -0.10917556231E+02  0.21583911153E+03  0.22617733692E+03  0.47000000000E+01 0.  1.
         11    1    6    6    0    0 -0.10590087134E+02  0.46149328694E+02  0.41956842668E+02  0.63263631979E+02  0.00000000000E+00 0. -1.
        -12    1    6    6    0    0 -0.15039784478E+02 -0.34625527242E+02  0.31592159050E+02  0.49225874978E+02  0.00000000000E+00 0.  1.
</event>
<event>
12    1  0.8196217E-002  0.1720644E+03  0.7818608E-02  0.1176648E+00
         21   -1    0    0  501  502  0.00000000000E+00  0.00000000000E+00  0.57330536824E+03  0.57330536824E+03  0.00000000000E+00 0.  1.
         21   -1    0    0  502  503 -0.00000000000E+00 -0.00000000000E+00 -0.68042014272E+02  0.68042014272E+02  0.00000000000E+00 0.  1.
         -6    2    1    2    0  503  0.97958634018E+01 -0.62565055757E+01  0.92105336263E+02  0.19516547094E+03  0.17167138748E+03 0.  0.
        -24    2    3    3    0    0  0.39336059873E+02  0.26522458915E+02  0.11384385778E+03  0.14575153528E+03  0.77668009171E+02 0.  0.
          6    2    1    2  501    0 -0.97958634018E+01  0.62565055757E+01  0.41315801770E+03  0.44618191157E+03  0.16805846547E+03 0.  0.
         24    2    5    5    0    0  0.54791855700E+02  0.26541259215E+02  0.26371370905E+03  0.28205167036E+03  0.79382860379E+02 0.  0.
          5    1    5    5  501    0 -0.64587719102E+02 -0.20284753639E+02  0.14944430866E+03  0.16413024121E+03  0.47000000000E+01 0. -1.
        -13    1    6    6    0    0  0.19094991067E+02  0.32284521551E+02  0.22858016035E+03  0.23163721360E+03  0.00000000000E+00 0.  1.
         14    1    6    6    0    0  0.35696864633E+02 -0.57432623369E+01  0.35133548691E+02  0.50414456761E+02  0.00000000000E+00 0. -1.
         -5    1    3    3    0  503 -0.29540196471E+02 -0.32778964491E+02 -0.21738521513E+02  0.49413935668E+02  0.47000000000E+01 0.  1.
         11    1    4    4    0    0  0.55392438723E+02  0.23112390491E+02  0.45104284773E+02  0.75079300522E+02  0.00000000000E+00 0. -1.
        -12    1    4    4    0    0 -0.16056378851E+02  0.34100684243E+01  0.68739573003E+02  0.70672234754E+02  0.00000000000E+00 0.  1.
</event>
<event>
12    1  0.8196217E-002  0.1905037E+03  0.7818608E-02  0.1162162E+00
         21   -1    0    0  501  502  0.00000000000E+00  0.00000000000E+00  0.45589714740E+03  0.45589714740E+03  0.00000000000E+00 0. -1.
         21   -1    0    0  502  503 -0.00000000000E+00 -0.00000000000E+00 -0.91420114879E+02  0.91420114879E+02  0.00000000000E+00 0. -1.
         -6    2    1    2    0  503 -0.81150492370E+02 -0.27502616055E+02  0.50677692964E+02  0.18021826391E+03  0.15022848525E+03 0.  0.
        -24    2    3    3    0    0 -0.22814189168E+02 -0.62472153702E+02  0.25512919457E+02  0.10754537584E+03  0.80571965284E+02 0.  0.
          6    2    1    2  501    0  0.81150492370E+02  0.27502616055E+02  0.31379933956E+03  0.36709899837E+03  0.17014656270E+03 0.  0.
         24    2    5    5    0    0  0.59994512060E+02 -0.38045259169E+01  0.85304826517E+02  0.13545369812E+03  0.86353778212E+02 0.  0.
          5    1    5    5  501    0  0.21155980310E+02  0.31307141972E+02  0.22849451304E+03  0.23164530026E+03  0.47000000000E+01 0. -1.
        -11    1    6    6    0    0 -0.57085488953E+01  0.21634860976E+02 -0.29013868123E+01  0.22562641365E+02  0.00000000000E+00 0.  1.
         12    1    6    6    0    0  0.65703060955E+02 -0.25439386893E+02  0.88206213329E+02  0.11289105675E+03  0.00000000000E+00 0. -1.
         -5    1    3    3    0  503 -0.58336303201E+02  0.34969537646E+02  0.25164773507E+02  0.72672888067E+02  0.47000000000E+01 0.  1.
         13    1    4    4    0    0 -0.36226398508E+02 -0.63906951385E+02  0.43261658754E+02  0.85252692054E+02  0.00000000000E+00 0. -1.
        -14    1    4    4    0    0  0.13412209339E+02  0.14347976838E+01 -0.17748739297E+02  0.22292683786E+02  0.00000000000E+00 0.  1.
</event>
<event>
12    1  0.8196217E-002  0.2115528E+03  0.7818608E-02  0.1140521E+00
         21   -1    0    0  503  502  0.00000000000E+00  0.00000000000E+00  0.11444905039E+03  0.11444905039E+03  0.00000000000E+00 0. -1.
         21   -1    0    0  501  503 -0.00000000000E+00 -0.00000000000E+00 -0.20785487155E+04  0.20785487155E+04  0.00000000000E+00 0.  1.
          6    2    1    2  501    0  0.26644398991E+02 -0.11965012572E+03 -0.19701299787E+04  0.19813590324E+04  0.17130500713E+03 0.  0.
         24    2    3    3    0    0 -0.37318278846E+02 -0.95252177779E+02 -0.15259327947E+04  0.15318930021E+04  0.88088845961E+02 0.  0.
         -6    2    1    2    0  502 -0.26644398991E+02  0.11965012572E+03  0.60303136272E+01  0.21163873351E+03  0.17241958200E+03 0.  0.
        -24    2    5    5    0    0  0.11681263578E+01  0.25626027590E+02  0.24784785329E+02  0.11169931284E+03  0.10585080583E+03 0.  0.
          5    1    3    3  501    0  0.63962677837E+02 -0.24397947942E+02 -0.44419718406E+03  0.44946603025E+03  0.47000000000E+01 0. -1.
        -11    1    4    4    0    0 -0.64982423323E+02 -0.61346686588E+02 -0.89734718352E+03  0.90178606058E+03  0.00000000000E+00 0.  1.
         12    1    4    4    0    0  0.27664144476E+02 -0.33905491192E+02 -0.62858561116E+03  0.63010694154E+03  0.00000000000E+00 0. -1.
         -5    1    5    5    0  502 -0.27812525348E+02  0.94024098131E+02 -0.18754471702E+02  0.99939420673E+02  0.47000000000E+01 0.  1.
         13    1    6    6    0    0  0.40752682776E+02 -0.11964580254E+02 -0.14015869751E+02  0.44725573657E+02  0.00000000000E+00 0. -1.
        -14    1    6    6    0    0 -0.39584556418E+02  0.37590607844E+02  0.38800655080E+02  0.66973739179E+02  0.00000000000E+00 0.  1.
</event>
<event>
12    1  0.8196217E-002  0.1930189E+03  0.7818608E-02  0.1155989E+00
         21   -1    0    0  501  502  0.00000000000E+00  0.00000000000E+00  0.80263546779E+03  0.80263546779E+03  0.00000000000E+00 0.  1.
         21   -1    0    0  502  503 -0.00000000000E+00 -0.00000000000E+00 -0.72753207640E+02  0.72753207640E+02  0.00000000000E+00 0. -1.
         -6    2    1    2    0  503  0.49793266175E+02 -0.73737541531E+02  0.99794196691E+02  0.21639909946E+03  0.17015608765E+03 0.  0.
        -24    2    3    3    0    0  0.13867654394E+02  0.12578309939E+02  0.87043512745E+02  0.12192293454E+03  0.83295276793E+02 0.  0.
          6    2    1    2  501    0 -0.49793266175E+02  0.73737541531E+02  0.63008806346E+03  0.65898957597E+03  0.17128835085E+03 0.  0.
         24    2    5    5    0    0 -0.88992809822E+02  0.42677430445E+02  0.55218450607E+03  0.56629443599E+03  0.77721143953E+02 0.  0.
          5    1    5    5  501    0  0.39199543647E+02  0.31060111086E+02  0.77903557390E+02  0.92695139985E+02  0.47000000000E+01 0. -1.
        -11    1    6    6    0    0 -0.46976262551E+02  0.63283114043E+02  0.35062084248E+03  0.35936958267E+03  0.00000000000E+00 0.  1.
         12    1    6    6    0    0 -0.42016547272E+02 -0.20605683598E+02  0.20156366359E+03  0.20692485332E+03  0.00000000000E+00 0. -1.
         -5    1    3    3    0  503  0.35925611782E+02 -0.86315851470E+02  0.12750683945E+02  0.94476164920E+02  0.47000000000E+01 0.  1.
         13    1    4    4    0    0  0.28458767626E+02 -0.14692569248E+02  0.27631652440E+01  0.32146665893E+02  0.00000000000E+00 0. -1.
        -14    1    4    4    0    0 -0.14591113232E+02  0.27270879187E+02  0.84280347501E+02  0.89776268646E+02  0.00000000000E+00 0.  1.
</event>
<event>
12    1  0.8196217E-002  0.1914602E+03  0.7818608E-02  0.1157944E+00
         21   -1    0    0  503  502  0.00000000000E+00  0.00000000000E+00  0.44596595817E+03  0.44596595817E+03  0.00000000000E+00 0. -1.
         21   -1    0    0  501  503 -0.00000000000E+00 -0.00000000000E+00 -0.87851855119E+02  0.87851855119E+02  0.00000000000E+00 0. -1.
          6    2    1    2  501    0  0.40638908411E+02 -0.74632853377E+02  0.25676977992E+03  0.32029318381E+03  0.17156753783E+03 0.  0.
         24    2    3    3    0    0 -0.14282000070E+02  0.63459130622E+01  0.17341566683E+03  0.19167022718E+03  0.80126377360E+02 0.  0.
         -6    2    1    2    0  502 -0.40638908411E+02  0.74632853377E+02  0.10134432314E+03  0.21352462948E+03  0.16763207296E+03 0.  0.
        -24    2    5    5    0    0 -0.79973602665E+02  0.26811102555E+02  0.98159375469E+02  0.15134447256E+03  0.78455554538E+02 0.  0.
          5    1    3    3  501    0  0.54920908481E+02 -0.80978766439E+02  0.83354113088E+02  0.12862295663E+03  0.47000000000E+01 0. -1.
        -11    1    4    4    0    0 -0.28359235287E+02  0.27770105702E+02  0.42040003682E+02  0.57816839297E+02  0.00000000000E+00 0.  1.
         12    1    4    4    0    0  0.14077235217E+02 -0.21424192640E+02  0.13137566315E+03  0.13385338789E+03  0.00000000000E+00 0. -1.
         -5    1    5    5    0  502  0.39334694254E+02  0.47821750821E+02  0.31849476696E+01  0.62180156926E+02  0.47000000000E+01 0.  1.
         13    1    6    6    0    0 -0.82127526724E+02  0.38971625446E+02  0.10361810699E+03  0.13784204849E+03  0.00000000000E+00 0. -1.
        -14    1    6    6    0    0  0.21539240587E+01 -0.12160522890E+02 -0.54587315233E+01  0.13502424066E+02  0.00000000000E+00 0.  1.
</event>
<event>
12    1  0.8196217E-002  0.1704708E+03  0.7818608E-02  0.1178753E+00
         21   -1    0    0  503  502  0.00000000000E+00  0.00000000000E+00  0.69363813590E+03  0.69363813590E+03  0.00000000000E+00 0.  1.
         21   -1    0    0  501  503 -0.00000000000E+00 -0.00000000000E+00 -0.41061029829E+02  0.41061029829E+02  0.00000000000E+00 0.  1.
          6    2    1    2  501    0  0.36027162514E+01 -0.13864006361E+02  0.29277352093E+03  0.33878698786E+03  0.16986788498E+03 0.  0.
         24    2    3    3    0    0  0.47886968324E+01 -0.43881286718E+02  0.29415555320E+03  0.30834945046E+03  0.81261277225E+02 0.  0.
         -6    2    1    2    0  502 -0.36027162514E+01  0.13864006361E+02  0.35980358514E+03  0.39591217787E+03  0.16456804814E+03 0.  0.
        -24    2    5    5    0    0  0.60004328181E+02  0.13737736212E+02  0.20566670145E+03  0.22910048475E+03  0.79993719965E+02 0.  0.
          5    1    3    3  501    0 -0.11859805810E+01  0.30017280357E+02 -0.13820322704E+01  0.30437537403E+02  0.47000000000E+01 0. -1.
        -11    1    4    4    0    0  0.10089073326E+02 -0.35845322599E+02  0.42484402846E+02  0.56494256682E+02  0.00000000000E+00 0.  1.
         12    1    4    4    0    0 -0.53003764934E+01 -0.80359641185E+01  0.25167115035E+03  0.25185519377E+03  0.00000000000E+00 0. -1.
         -5    1    5    5    0  502 -0.63607044432E+02  0.12627014905E+00  0.15413688369E+03  0.16681169312E+03  0.47000000000E+01 0.  1.
         11    1    6    6    0    0 -0.12680578130E+02  0.14863245583E+02  0.13786729700E+02  0.23912069061E+02  0.00000000000E+00 0. -1.
        -12    1    6    6    0    0  0.72684906311E+02 -0.11255093718E+01  0.19187997175E+03  0.20518841569E+03  0.00000000000E+00 0.  1.
</event>
<event>
12    1  0.8196217E-002  0.1886964E+03  0.7818608E-02  0.1160807E+00
         21   -1    0    0  501  502  0.00000000000E+00  0.00000000000E+00  0.22840075853E+02  0.22840075853E+02  0.00000000000E+00 0.  1.
         21   -1    0    0  502  503 -0.00000000000E+00 -0.00000000000E+00 -0.16152015903E+04  0.16152015903E+04  0.00000000000E+00 0.  1.
         -6    2    1    2    0  503  0.18610079643E+01 -0.73767208330E+02 -0.98743267871E+03  0.10043657034E+04  0.16817284778E+03 0.  0.
        -24    2    3    3    0    0  0.60201232297E+02 -0.44650275722E+02 -0.53178340764E+03  0.54405089178E+03  0.87062877899E+02 0.  0.
          6    2    1    2  501    0 -0.18610079643E+01  0.73767208330E+02 -0.60492883576E+03  0.63367596282E+03  0.17366998917E+03 0.  0.
         24    2    5    5    0    0 -0.47591203622E+02  0.82673789438E+01 -0.42949083194E+03  0.44084945626E+03  0.86905673863E+02 0.  0.
          5    1    5    5  501    0  0.45730195658E+02  0.65499829386E+02 -0.17543800382E+03  0.19282650655E+03  0.47000000000E+01 0. -1.
        -11    1    6    6    0    0  0.24517508635E+02 -0.50578605419E+01 -0.83435670808E+02  0.87110282666E+02  0.00000000000E+00 0.  1.
         12    1    6    6    0    0 -0.72108712257E+02  0.13325239486E+02 -0.34605516113E+03  0.35373917360E+03  0.00000000000E+00 0. -1.
         -5    1    3    3    0  503 -0.58340224333E+02 -0.29116932608E+02 -0.45564927107E+03  0.46031481158E+03  0.47000000000E+01 0.  1.
         11    1    4    4    0    0  0.96764818615E+01 -0.39117685355E+02 -0.81602932820E+02  0.91010253563E+02  0.00000000000E+00 0. -1.
        -12    1    4    4    0    0  0.50524750436E+02 -0.55325903672E+01 -0.45018047482E+03  0.45304063822E+03  0.00000000000E+00 0.  1.
</event>
<event>
12    1  0.8196217E-002  0.2147005E+03  0.7818608E-02  0.1137973E+00
         21   -1    0    0  501  502  0.00000000000E+00  0.00000000000E+00  0.65488547117E+03  0.65488547117E+03  0.00000000000E+00 0.  1.
         21   -1    0    0  502  503 -0.00000000000E+00 -0.00000000000E+00 -0.97560665873E+02  0.97560665873E+02  0.00000000000E+00 0.  1.
         -6    2    1    2    0  503  0.95708919602E+02  0.85809349183E+02  0.79823188324E+02  0.22905908920E+03  0.17196768083E+03 0.  0.
        -24    2    3    3    0    0  0.89060528513E+02  0.42666958644E+02  0.11592823366E+03  0.17221604860E+03  0.80416198217E+02 0.  0.
          6    2    1    2  501    0 -0.95708919602E+02 -0.85809349183E+02  0.47750161697E+03  0.52338704785E+03  0.17147234746E+03 0.  0.
         24    2    5    5    0    0 -0.10438843571E+03 -0.11849894766E+03  0.35637390367E+03  0.39753810355E+03  0.78072008149E+02 0.  0.
          5    1    5    5  501    0  0.86795161065E+01  0.32689598480E+02  0.12112771331E+03  0.12584894429E+03  0.47000000000E+01 0. -1.
        -13    1    6    6    0    0 -0.89143018602E+02 -0.11159669962E+03  0.35253283696E+03  0.38036785125E+03  0.00000000000E+00 0.  1.
         14    1    6    6    0    0 -0.15245417107E+02 -0.69022480412E+01  0.38410667116E+01  0.17170252306E+02  0.00000000000E+00 0. -1.
         -5    1    3    3    0  503  0.66483910894E+01  0.43142390539E+02 -0.36105045339E+02  0.56843040598E+02  0.47000000000E+01 0.  1.
         13    1    4    4    0    0  0.69503465564E+02  0.39831298663E+02  0.12655535080E+03  0.14977823905E+03  0.00000000000E+00 0. -1.
        -14    1    4    4    0    0  0.19557062949E+02  0.28356599818E+01 -0.10627117132E+02  0.22437809547E+02  0.00000000000E+00 0.  1.
</event>
<event>
12    1  0.8196217E-002  0.1764152E+03  0.7818608E-02  0.1175855E+00
         21   -1    0    0  503  502  0.00000000000E+00  0.00000000000E+00  0.70509147903E+02  0.70509147903E+02  0.00000000000E+00 0.  1.
         21   -1    0    0  501  503 -0.00000000000E+00 -0.00000000000E+00 -0.80486571437E+03  0.80486571437E+03  0.00000000000E+00 0.  1.
          6    2    1    2  501    0 -0.41463673962E+02  0.11427088394E+01 -0.66832233833E+03  0.68700593501E+03  0.15362898420E+03 0.  0.
         24    2    3    3    0    0 -0.29568839332E+02 -0.41624865289E+02 -0.58305988424E+03  0.59076494288E+03  0.80233680357E+02 0.  0.
         -6    2    1    2    0  502  0.41463673962E+02 -0.11427088394E+01 -0.66034228140E+02  0.18836892727E+03  0.17146950583E+03 0.  0.
        -24    2    5    5    0    0  0.46125598852E+02  0.62617443550E+02 -0.24434220027E+02  0.11195072753E+03  0.76729519607E+02 0.  0.
          5    1    3    3  501    0 -0.11894834629E+02  0.42767574128E+02 -0.85262454094E+02  0.96240992128E+02  0.47000000000E+01 0. -1.
        -13    1    4    4    0    0 -0.27527710865E+02 -0.15621403587E+02 -0.67571694238E+02  0.74617269969E+02  0.00000000000E+00 0.  1.
         14    1    4    4    0    0 -0.20411284672E+01 -0.26003461702E+02 -0.51548819000E+03  0.51614767291E+03  0.00000000000E+00 0. -1.
         -5    1    5    5    0  502 -0.46619248899E+01 -0.63760152390E+02 -0.41600008113E+02  0.76418199739E+02  0.47000000000E+01 0.  1.
         13    1    6    6    0    0 -0.20980807697E+02  0.88730255619E+01 -0.95310009634E+01  0.24693417212E+02  0.00000000000E+00 0. -1.
        -14    1    6    6    0    0  0.67106406549E+02  0.53744417988E+02 -0.14903219063E+02  0.87257310314E+02  0.00000000000E+00 0.  1.
</event>
<event>
12    1  0.8196217E-002  0.2506464E+03  0.7818608E-02  0.1113246E+00
         21   -1    0    0  503  502  0.00000000000E+00  0.00000000000E+00  0.24899749591E+03  0.24899749591E+03  0.00000000000E+00 0. -1.
         21   -1    0    0  501  503 -0.00000000000E+00 -0.00000000000E+00 -0.87001517136E+03  0.87001517136E+03  0.00000000000E+00 0.  1.
          6    2    1    2  501    0  0.17805742438E+03 -0.42044124694E+02 -0.78240520087E+03  0.82090270110E+03  0.16808090769E+03 0.  0.
         24    2    3    3    0    0  0.13560910915E+03  0.10514033845E+02 -0.35831497462E+03  0.39143928066E+03  0.79590916667E+02 0.  0.
         -6    2    1    2    0  502 -0.17805742438E+03  0.42044124694E+02  0.16138752542E+03  0.29810996617E+03  0.17132268902E+03 0.  0.
        -24    2    5    5    0    0 -0.13775417495E+03 -0.33530514334E+02  0.12411721104E+03  0.20458433165E+03  0.79681607493E+02 0.  0.
          5    1    3    3  501    0  0.42448315231E+02 -0.52558158539E+02 -0.42409022626E+03  0.42946342045E+03  0.47000000000E+01 0. -1.
        -11    1    4    4    0    0  0.94385493926E+02 -0.25833104888E+02 -0.27245894051E+03  0.28949930058E+03  0.00000000000E+00 0.  1.
         12    1    4    4    0    0  0.41223615220E+02  0.36347138734E+02 -0.85856034109E+02  0.10193998008E+03  0.00000000000E+00 0. -1.
         -5    1    5    5    0  502 -0.40303249429E+02  0.75574639028E+02  0.37270314383E+02  0.93525634523E+02  0.47000000000E+01 0.  1.
         13    1    6    6    0    0  0.99515716230E+01 -0.29813030614E+01  0.15718125746E+02  0.18840950684E+02  0.00000000000E+00 0. -1.
        -14    1    6    6    0    0 -0.14770574657E+03 -0.30549211273E+02  0.10839908529E+03  0.18574338096E+03  0.00000000000E+00 0.  1.
</event>
<event>
12    1  0.8196217E-002  0.1845944E+03  0.7818608E-02  0.1163752E+00
         21   -1    0    0  503  502  0.00000000000E+00  0.00000000000E+00  0.52888554124E+03  0.52888554124E+03  0.00000000000E+00 0.  1.
         21   -1    0    0  501  503 -0.00000000000E+00 -0.00000000000E+00 -0.19859718284E+03  0.19859718284E+03  0.00000000000E+00 0. -1.
          6    2    1    2  501    0  0.25571436402E+02  0.62109542834E+02 -0.13416226452E+03  0.22819864170E+03  0.17194072578E+03 0.  0.
         24    2    3    3    0    0  0.64273670884E+02  0.68020539760E+02 -0.44061463405E+02  0.12984699097E+03  0.78491591326E+02 0.  0.
         -6    2    1    2    0  502 -0.25571436402E+02 -0.62109542834E+02  0.46445062292E+03  0.49928408239E+03  0.17046618468E+03 0.  0.
        -24    2    5    5    0    0 -0.84183535565E+01  0.22691308668E+02  0.24354537424E+03  0.26199389809E+03  0.93491652876E+02 0.  0.
          5    1    3    3  501    0 -0.38702234482E+02 -0.59109969263E+01 -0.90100801117E+02  0.98351650726E+02  0.47000000000E+01 0. -1.
        -11    1    4    4    0    0  0.81534118942E+01 -0.82172720548E+01  0.14482794770E+02  0.18540577928E+02  0.00000000000E+00 0.  1.
         12    1    4    4    0    0  0.56120258989E+02  0.76237811815E+02 -0.58544258175E+02  0.11130641304E+03  0.00000000000E+00 0. -1.
         -5    1    5    5    0  502 -0.17153082845E+02 -0.84800851502E+02  0.22090524868E+03  0.23729018429E+03  0.47000000000E+01 0.  1.
         13    1    6    6    0    0  0.23848323025E+02  0.23824286211E+02  0.21862487625E+03  0.22120844388E+03  0.00000000000E+00 0. -1.
        -14    1    6    6    0    0 -0.32266676582E+02 -0.11329775423E+01  0.24920497988E+02  0.40785454217E+02  0.00000000000E+00 0.  1.
</event>
<event>
12    1  0.8196217E-002  0.1791817E+03  0.7818608E-02  0.1168619E+00
         21   -1    0    0  503  502  0.00000000000E+00  0.00000000000E+00  0.19689536355E+04  0.19689536355E+04  0.00000000000E+00 0.  1.
         21   -1    0    0  501  503 -0.00000000000E+00 -0.00000000000E+00 -0.16672049386E+02  0.16672049386E+02  0.00000000000E+00 0.  1.
          6    2    1    2  501    0 -0.44241400934E+02 -0.23669577979E+02  0.11245802762E+04  0.11387516965E+04  0.17192172122E+03 0.  0.
         24    2    3    3    0    0 -0.86600585787E+01 -0.69959919166E+02  0.49123749275E+03  0.50270610149E+03  0.80185804761E+02 0.  0.
         -6    2    1    2    0  502  0.44241400934E+02  0.23669577979E+02  0.82770130998E+03  0.84687398843E+03  0.17201320665E+03 0.  0.
        -24    2    5    5    0    0 -0.14984418800E+02 -0.36337606016E+02  0.55382819665E+03  0.56027822423E+03  0.75107008486E+02 0.  0.
          5    1    3    3  501    0 -0.35581342355E+02  0.46290341187E+02  0.63334278341E+03  0.63604559500E+03  0.47000000000E+01 0. -1.
        -11    1    4    4    0    0  0.50953265896E+01  0.12499778858E+02  0.17779410003E+03  0.17830577340E+03  0.00000000000E+00 0.  1.
         12    1    4    4    0    0 -0.13755385168E+02 -0.82459698025E+02  0.31344339272E+03  0.32440032808E+03  0.00000000000E+00 0. -1.
         -5    1    5    5    0  502  0.59225819734E+02  0.60007183995E+02  0.27387311333E+03  0.28659576420E+03  0.47000000000E+01 0.  1.
         13    1    6    6    0    0  0.16386916805E+02 -0.93946812535E+01  0.41480924619E+03  0.41523908993E+03  0.00000000000E+00 0. -1.
        -14    1    6    6    0    0 -0.31371335605E+02 -0.26942924762E+02  0.13901895046E+03  0.14503913430E+03  0.00000000000E+00 0.  1.
</event>
<event>
12    1  0.8196217E-002  0.1926161E+03  0.7818608E-02  0.1156184E+00
         21   -1    0    0  501  502  0.00000000000E+00  0.00000000000E+00  0.36887961306E+03  0.36887961306E+03  0.00000000000E+00 0.  1.
         21   -1    0    0  502  503 -0.00000000000E+00 -0.00000000000E+00 -0.13616121103E+03  0.13616121103E+03  0.00000000000E+00 0.  1.
         -6    2    1    2    0  503 -0.65994701982E+01  0.86471048385E+02 -0.12929942816E+02  0.19304957219E+03  0.17198883303E+03 0.  0.
        -24    2    3    3    0    0 -0.23714570475E+02 -0.16736266082E+02 -0.10927455771E+02  0.88308098214E+02  0.82682691450E+02 0.  0.
          6    2    1    2  501    0  0.65994701982E+01 -0.86471048385E+02  0.24564834484E+03  0.31199125189E+03  0.17168178913E+03 0.  0.
         24    2    5    5    0    0  0.69698216374E+02 -0.50651175096E+02  0.15160627875E+03  0.19311940793E+03  0.82989511743E+02 0.  0.
          5    1    5    5  501    0 -0.63098746176E+02 -0.35819873289E+02  0.94042066093E+02  0.11887184396E+03  0.47000000000E+01 0. -1.
        -11    1    6    6    0    0  0.58672698512E+02 -0.72287529498E+02  0.13381159121E+03  0.16301384731E+03  0.00000000000E+00 0.  1.
         12    1    6    6    0    0  0.11025517862E+02  0.21636354402E+02  0.17794687540E+02  0.30105560625E+02  0.00000000000E+00 0. -1.
         -5    1    3    3    0  503  0.17115100277E+02  0.10320731447E+03 -0.20024870441E+01  0.10474147398E+03  0.47000000000E+01 0.  1.
         13    1    4    4    0    0 -0.21223786167E+02  0.14331386606E+02 -0.38804059468E+02  0.46492932500E+02  0.00000000000E+00 0. -1.
        -14    1    4    4    0    0 -0.24907843086E+01 -0.31067652689E+02  0.27876603696E+02  0.41815165714E+02  0.00000000000E+00 0.  1.
</event>
<event>
12    1  0.8196217E-002  0.2012919E+03  0.7818608E-02  0.1148732E+00
         21   -1    0    0  503  502  0.00000000000E+00  0.00000000000E+00  0.45668074798E+03  0.45668074798E+03  0.00000000000E+00 0. -1.
         21   -1    0    0  501  503 -0.00000000000E+00 -0.00000000000E+00 -0.19601994536E+03  0.19601994536E+03  0.00000000000E+00 0. -1.
          6    2    1    2  501    0 -0.10261954419E+03 -0.21948716380E+02 -0.11124987210E+03  0.22998904302E+03  0.17177284089E+03 0.  0.
         24    2    3    3    0    0  0.57704826852E+01 -0.36011238958E+02 -0.65533913206E+02  0.11142179896E+03  0.82401551576E+02 0.  0.
         -6    2    1    2    0  502  0.10261954419E+03  0.21948716380E+02  0.37191067473E+03  0.42271165032E+03  0.17133322018E+03 0.  0.
        -24    2    5    5    0    0  0.88759634634E+02  0.41876689385E+02  0.12744220972E+03  0.17699607982E+03  0.73852322913E+02 0.  0.
          5    1    3    3  501    0 -0.10839002687E+03  0.14062522578E+02 -0.45715958898E+02  0.11856724406E+03  0.47000000000E+01 0. -1.
        -13    1    4    4    0    0  0.33237091381E+02 -0.37946070689E+02 -0.12973270479E+02  0.52085643619E+02  0.00000000000E+00 0.  1.
         14    1    4    4    0    0 -0.27466608696E+02  0.19348317311E+01 -0.52560642727E+02  0.59336155344E+02  0.00000000000E+00 0. -1.
         -5    1    5    5    0  502  0.13859909553E+02 -0.19927973005E+02  0.24446846501E+03  0.24571557050E+03  0.47000000000E+01 0.  1.
         11    1    6    6    0    0 -0.78982082022E+01  0.44163777828E+01  0.41101901294E+02  0.42086249245E+02  0.00000000000E+00 0. -1.
        -12    1    6    6    0    0  0.96657842836E+02  0.37460311603E+02  0.86340308428E+02  0.13490983058E+03  0.00000000000E+00 0.  1.
</event>
<event>
12    1  0.8196217E-002  0.2733093E+03  0.7818608E-02  0.1099976E+00
         21   -1    0    0  501  502  0.00000000000E+00  0.00000000000E+00  0.20502020472E+04  0.20502020472E+04  0.00000000000E+00 0. -1.
         21   -1    0    0  502  503 -0.00000000000E+00 -0.00000000000E+00 -0.36155601388E+02  0.36155601388E+02  0.00000000000E+00 0. -1.
         -6    2    1    2    0  503  0.98505662192E-01 -0.20750035749E+03  0.91122709613E+03  0.95017611120E+03  0.17159083169E+03 0.  0.
        -24    2    3    3    0    0 -0.28152558614E+02 -0.39725048583E+02  0.41495115670E+03  0.42552520348E+03  0.80725400680E+02 0.  0.
          6    2    1    2  501    0 -0.98505662192E-01  0.20750035749E+03  0.11028193497E+04  0.11361815374E+04  0.17788074602E+03 0.  0.
         24    2    5    5    0    0  0.22076140044E+02  0.20293937894E+02  0.32843464060E+03  0.33916728023E+03  0.79157633608E+02 0.  0.
          5    1    5    5  501    0 -0.22174645706E+02  0.18720641959E+03  0.77438470911E+03  0.79701425718E+03  0.47000000000E+01 0. -1.
        -13    1    6    6    0    0 -0.92315077886E+01  0.39044438507E+01  0.27452383441E+03  0.27470675469E+03  0.00000000000E+00 0.  1.
         14    1    6    6    0    0  0.31307647833E+02  0.16389494044E+02  0.53910806190E+02  0.64460525532E+02  0.00000000000E+00 0. -1.
         -5    1    3    3    0  503  0.28251064277E+02 -0.16777530890E+03  0.49627593944E+03  0.52465090772E+03  0.47000000000E+01 0.  1.
         13    1    4    4    0    0  0.22064776743E+02 -0.33999189033E+02  0.13155419557E+03  0.13765647678E+03  0.00000000000E+00 0. -1.
        -14    1    4    4    0    0 -0.50217335358E+02 -0.57258595502E+01  0.28339696113E+03  0.28786872670E+03  0.00000000000E+00 0.  1.
</event>
<event>
12    1  0.8196217E-002  0.2106175E+03  0.7818608E-02  0.1141237E+00
         21   -1    0    0  501  502  0.00000000000E+00  0.00000000000E+00  0.55231702220E+03  0.55231702220E+03  0.00000000000E+00 0.  1.
         21   -1    0    0  502  503 -0.00000000000E+00 -0.00000000000E+00 -0.80056359130E+02  0.80056359130E+02  0.00000000000E+00 0. -1.
         -6    2    1    2    0  503  0.61121803936E+02  0.10503489556E+03  0.22799811096E+03  0.30984597548E+03  0.17103562704E+03 0.  0.
        -24    2    3    3    0    0 -0.30335779066E+02  0.52948315115E+02  0.86713525826E+02  0.13360487543E+03  0.81284953171E+02 0.  0.
          6    2    1    2  501    0 -0.61121803936E+02 -0.10503489556E+03  0.24426255211E+03  0.32252740585E+03  0.17202188512E+03 0.  0.
         24    2    5    5    0    0 -0.83820717148E+02 -0.10638095998E+03  0.25248609913E+03  0.29789471870E+03  0.81542699907E+02 0.  0.
          5    1    5    5  501    0  0.22698913212E+02  0.13460644215E+01 -0.82235470203E+01  0.24632687146E+02  0.47000000000E+01 0. -1.
        -13    1    6    6    0    0  0.15830800059E+02 -0.20285933708E+02  0.52109859548E+02  0.58116871896E+02  0.00000000000E+00 0.  1.
         14    1    6    6    0    0 -0.99651517207E+02 -0.86095026273E+02  0.20037623958E+03  0.23977784681E+03  0.00000000000E+00 0. -1.
         -5    1    3    3    0  503  0.91457583002E+02  0.52086580445E+02  0.14128458513E+03  0.17624110005E+03  0.47000000000E+01 0.  1.
         11    1    4    4    0    0 -0.23552345126E+02  0.35104624095E+02 -0.25236239910E+01  0.42348745811E+02  0.00000000000E+00 0. -1.
        -12    1    4    4    0    0 -0.67834339404E+01  0.17843691020E+02  0.89237149817E+02  0.91256129617E+02  0.00000000000E+00 0.  1.
</event>
<event>
12    1  0.8196217E-002  0.1762666E+03  0.7818608E-02  0.1172136E+00
         21   -1    0    0  503  502  0.00000000000E+00  0.00000000000E+00  0.35722305468E+03  0.35722305468E+03  0.00000000000E+00 0.  1.
         21   -1    0    0  501  503 -0.00000000000E+00 -0.00000000000E+00 -0.14485436516E+03  0.14485436516E+03  0.00000000000E+00 0. -1.
          6    2    1    2  501    0  0.22110279917E+02  0.27039705930E+02 -0.54767526254E+02  0.18202792472E+03  0.17004315120E+03 0.  0.
         24    2    3    3    0    0  0.97937718742E+01  0.25982454377E+02  0.34078715101E+02  0.92202768144E+02  0.81049279623E+02 0.  0.
         -6    2    1    2    0  502 -0.22110279917E+02 -0.27039705930E+02  0.26713621577E+03  0.32004949512E+03  0.17277126895E+03 0.  0.
        -24    2    5    5    0    0 -0.77553517724E+02 -0.27151920852E+02  0.13706211960E+03  0.17857396470E+03  0.79692291502E+02 0.  0.
          5    1    3    3  501    0  0.12316508043E+02  0.10572515526E+01 -0.88846241355E+02  0.89825156577E+02  0.47000000000E+01 0. -1.
        -11    1    4    4    0    0  0.43452814129E+02  0.25951005025E+02  0.28498971197E+02  0.58084361724E+02  0.00000000000E+00 0.  1.
         12    1    4    4    0    0 -0.33659042255E+02  0.31449351590E-01  0.55797439045E+01  0.34118406420E+02  0.00000000000E+00 0. -1.
         -5    1    5    5    0  502  0.55443237807E+02  0.11221492231E+00  0.13007409617E+03  0.14147553041E+03  0.47000000000E+01 0.  1.
         13    1    6    6    0    0 -0.20118368607E+02 -0.48793151494E+02  0.56830855278E+02  0.77558149152E+02  0.00000000000E+00 0. -1.
        -14    1    6    6    0    0 -0.57435149117E+02  0.21641230642E+02  0.80231264318E+02  0.10101581555E+03  0.00000000000E+00 0.  1.
</event>
<event>
12    1  0.8196217E-002  0.1807976E+03  0.7818608E-02  0.1167324E+00
         21   -1    0    0  501  502  0.00000000000E+00  0.00000000000E+00  0.36451727457E+03  0.36451727457E+03  0.00000000000E+00 0. -1.
         21   -1    0    0  502  503 -0.00000000000E+00 -0.00000000000E+00 -0.10043549308E+03  0.10043549308E+03  0.00000000000E+00 0. -1.
         -6    2    1    2    0  503  0.24325757183E+02 -0.46949331706E+02  0.53473549472E+02  0.18738549036E+03  0.17163309499E+03 0.  0.
        -24    2    3    3    0    0  0.44592722248E+02  0.32317572811E+02  0.30163239011E+02  0.10218306904E+03  0.80614032413E+02 0.  0.
          6    2    1    2  501    0 -0.24325757183E+02  0.46949331706E+02  0.21060823202E+03  0.27756727728E+03  0.17289240531E+03 0.  0.
         24    2    5    5    0    0  0.50446408592E+02  0.45680210040E+02  0.13813032879E+03  0.17331938089E+03  0.79549345272E+02 0.  0.
          5    1    5    5  501    0 -0.74772165775E+02  0.12691216664E+01  0.72477903234E+02  0.10424789639E+03  0.47000000000E+01 0. -1.
        -11    1    6    6    0    0  0.68901981376E+02  0.49960961875E+02  0.10507403973E+03  0.13521883957E+03  0.00000000000E+00 0.  1.
         12    1    6    6    0    0 -0.18455572783E+02 -0.42807518354E+01  0.33056289055E+02  0.38100541323E+02  0.00000000000E+00 0. -1.
         -5    1    3    3    0  503 -0.20266965066E+02 -0.79266904518E+02  0.23310310460E+02  0.85202421318E+02  0.47000000000E+01 0.  1.
         11    1    4    4    0    0  0.43518633010E+02  0.28671344723E+02 -0.17038076495E+02  0.54828947445E+02  0.00000000000E+00 0. -1.
        -12    1    4    4    0    0  0.10740892382E+01  0.36462280880E+01  0.47201315506E+02  0.47354121600E+02  0.00000000000E+00 0.  1.
</event>
<event>
12    1  0.8196217E-002  0.2957052E+03  0.7818608E-02  0.1087661E+00
         21   -1    0    0  501  502  0.00000000000E+00  0.00000000000E+00  0.11321920378E+04  0.11321920378E+04  0.00000000000E+00 0. -1.
         21   -1    0    0  502  503 -0.00000000000E+00 -0.00000000000E+00 -0.82891429928E+02  0.82891429928E+02  0.00000000000E+00 0. -1.
         -6    2    1    2    0  503  0.23940709716E+03  0.14562245485E+02  0.68885899190E+03  0.74886490130E+03  0.16954088746E+03 0.  0.
        -24    2    3    3    0    0  0.43375051049E+02  0.15313140851E+01  0.14911137963E+03  0.17445394804E+03  0.79474753706E+02 0.  0.
          6    2    1    2  501    0 -0.23940709716E+03 -0.14562245485E+02  0.36044161601E+03  0.46621856646E+03  0.17295599439E+03 0.  0.
         24    2    5    5    0    0 -0.75949859782E+02  0.22895023174E+02  0.22033759427E+03  0.24764925861E+03  0.80553935677E+02 0.  0.
          5    1    5    5  501    0 -0.16345723738E+03 -0.37457268659E+02  0.14010402173E+03  0.21856930785E+03  0.47000000000E+01 0. -1.
        -11    1    6    6    0    0  0.77926687242E+01 -0.12500072301E+02  0.73370004185E+02  0.74834049787E+02  0.00000000000E+00 0.  1.
         12    1    6    6    0    0 -0.83742528506E+02  0.35395095475E+02  0.14696759009E+03  0.17281520882E+03  0.00000000000E+00 0. -1.
         -5    1    3    3    0  503  0.19603204611E+03  0.13030931400E+02  0.53974761227E+03  0.57441095326E+03  0.47000000000E+01 0.  1.
         13    1    4    4    0    0  0.39959816357E+02  0.67422067478E+01  0.15827072430E+03  0.16337645622E+03  0.00000000000E+00 0. -1.
        -14    1    4    4    0    0  0.34152346924E+01 -0.52108926627E+01 -0.91593446722E+01  0.11077491827E+02  0.00000000000E+00 0.  1.
</event>
<event>
12    1  0.8196217E-002  0.2253223E+03  0.7818608E-02  0.1130040E+00
         21   -1    0    0  503  502  0.00000000000E+00  0.00000000000E+00  0.27570411625E+03  0.27570411625E+03  0.00000000000E+00 0. -1.
         21   -1    0    0  501  503 -0.00000000000E+00 -0.00000000000E+00 -0.19664139611E+03  0.19664139611E+03  0.00000000000E+00 0. -1.
          6    2    1    2  501    0 -0.95675662845E+02  0.10907750534E+03 -0.20707372601E+02  0.22592267934E+03  0.17193175136E+03 0.  0.
         24    2    3    3    0    0 -0.31487323169E+02 -0.10085972157E+02 -0.32971322726E+02  0.89935283626E+02  0.76863962712E+02 0.  0.
         -6    2    1    2    0  502  0.95675662845E+02 -0.10907750534E+03  0.99770092732E+02  0.24642283302E+03  0.17239027409E+03 0.  0.
        -24    2    5    5    0    0  0.47693526423E+02 -0.15440734688E+02  0.10553225289E+03  0.14094571359E+03  0.78838753351E+02 0.  0.
          5    1    3    3  501    0 -0.64188339676E+02  0.11916347750E+03  0.12263950125E+02  0.13598739571E+03  0.47000000000E+01 0. -1.
        -13    1    4    4    0    0  0.45170698353E+01 -0.33372321218E+02  0.32127190399E+01  0.33829533059E+02  0.00000000000E+00 0.  1.
         14    1    4    4    0    0 -0.36004393005E+02  0.23286349061E+02 -0.36184041765E+02  0.56105750567E+02  0.00000000000E+00 0. -1.
         -5    1    5    5    0  502  0.47982136423E+02 -0.93636770651E+02 -0.57621601582E+01  0.10547711943E+03  0.47000000000E+01 0.  1.
         11    1    6    6    0    0  0.28244220730E+02 -0.38019313115E+02  0.21934253476E+02  0.52194977248E+02  0.00000000000E+00 0. -1.
        -12    1    6    6    0    0  0.19449305693E+02  0.22578578427E+02  0.83597999414E+02  0.88750736345E+02  0.00000000000E+00 0.  1.
</event>
<event>
12    1  0.8196217E-002  0.1958411E+03  0.7818608E-02  0.1153311E+00
         21   -1    0    0  503  502  0.00000000000E+00  0.00000000000E+00  0.24276309824E+03  0.24276309824E+03  0.00000000000E+00 0.  1.
         21   -1    0    0  501  503 -0.00000000000E+00 -0.00000000000E+00 -0.15956637303E+03  0.15956637303E+03  0.00000000000E+00 0.  1.
          6    2    1    2  501    0 -0.91210934774E+02  0.13728879944E+02  0.21227858207E+02  0.19691797404E+03  0.17267932640E+03 0.  0.
         24    2    3    3    0    0 -0.22855598527E+02 -0.49628315962E+02 -0.74353329631E+01  0.99294950140E+02  0.82576357499E+02 0.  0.
         -6    2    1    2    0  502  0.91210934774E+02 -0.13728879944E+02  0.61968866999E+02  0.20541149723E+03  0.17275944533E+03 0.  0.
        -24    2    5    5    0    0  0.93149225965E+02 -0.18121905072E+02 -0.15741562602E+02  0.12741113498E+03  0.83550097443E+02 0.  0.
          5    1    3    3  501    0 -0.68355336247E+02  0.63357195906E+02  0.28663191170E+02  0.97623023896E+02  0.47000000000E+01 0. -1.
        -13    1    4    4    0    0  0.14346893346E+01  0.18969723318E+02 -0.17477706851E+02  0.25833679046E+02  0.00000000000E+00 0.  1.
         14    1    4    4    0    0 -0.24290287862E+02 -0.68598039281E+02  0.10042373888E+02  0.73461271095E+02  0.00000000000E+00 0. -1.
         -5    1    5    5    0  502 -0.19382911908E+01  0.43930251282E+01  0.77710429601E+02  0.78000362251E+02  0.47000000000E+01 0.  1.
         13    1    6    6    0    0  0.52207243270E+01  0.18780489102E+02  0.17729141336E+02  0.26349291944E+02  0.00000000000E+00 0. -1.
        -14    1    6    6    0    0  0.87928501638E+02 -0.36902394175E+02 -0.33470703938E+02  0.10106184304E+03  0.00000000000E+00 0.  1.
</event>
<event>
12    1  0.8196217E-002  0.1965421E+03  0.7818608E-02  0.1153768E+00
         21   -1    0    0  501  502  0.00000000000E+00  0.00000000000E+00  0.34340566294E+03  0.34340566294E+03  0.00000000000E+00 0.  1.
         21   -1    0    0  502  503 -0.00000000000E+00 -0.00000000000E+00 -0.16601382550E+03  0.16601382550E+03  0.00000000000E+00 0.  1.
         -6    2    1    2    0  503 -0.73586366941E+02  0.40953734857E+02 -0.58921653400E+02  0.20518421735E+03  0.17758558503E+03 0.  0.
        -24    2    3    3    0    0 -0.67724196929E+02  0.15493227469E+02 -0.10777813915E+03  0.14958162142E+03  0.77019005705E+02 0.  0.
          6    2    1    2  501    0  0.73586366941E+02 -0.40953734857E+02  0.23631349083E+03  0.30423527109E+03  0.17211296415E+03 0.  0.
         24    2    5    5    0    0  0.10362336217E+03  0.79088119843E+01  0.18614974665E+03  0.22789222428E+03  0.80515757550E+02 0.  0.
          5    1    5    5  501    0 -0.30036995232E+02 -0.48862546841E+02  0.50163744178E+02  0.76343046810E+02  0.47000000000E+01 0. -1.
        -13    1    6    6    0    0  0.29345343399E+02  0.16579908400E+01  0.13333826861E+03  0.13653934227E+03  0.00000000000E+00 0.  1.
         14    1    6    6    0    0  0.74278018775E+02  0.62508211443E+01  0.52811478046E+02  0.91352882010E+02  0.00000000000E+00 0. -1.
         -5    1    3    3    0  503 -0.58621700117E+01  0.25460507387E+02  0.48856485755E+02  0.55602595928E+02  0.47000000000E+01 0.  1.
         13    1    4    4    0    0 -0.75552941300E+02  0.28812312336E+02 -0.63894235638E+02  0.10305760345E+03  0.00000000000E+00 0. -1.
        -14    1    4    4    0    0  0.78287443708E+01 -0.13319084867E+02 -0.43883903517E+02  0.46524017969E+02  0.00000000000E+00 0.  1.
</event>
<event>
12    1  0.8196217E-002  0.2262386E+03  0.7818608E-02  0.1129466E+00
         21   -1    0    0  501  502  0.00000000000E+00  0.00000000000E+00  0.38076599350E+03  0.38076599350E+03  0.00000000000E+00 0.  1.
         21   -1    0    0  502  503 -0.00000000000E+00 -0.00000000000E+00 -0.17255322021E+03  0.17255322021E+03  0.00000000000E+00 0.  1.
         -6    2    1    2    0  503 -0.87216148297E+01  0.14509772833E+03  0.23515305484E+03  0.32631403480E+03  0.17336225879E+03 0.  0.
        -24    2    3    3    0    0 -0.35455788528E+02  0.10081563593E+02  0.96822667559E+02  0.13111806448E+03  0.80365210223E+02 0.  0.
          6    2    1    2  501    0  0.87216148297E+01 -0.14509772833E+03 -0.26940281562E+02  0.22700517891E+03  0.17226768458E+03 0.  0.
         24    2    5    5    0    0  0.56690095825E+02 -0.57673623106E+02  0.16976214015E+02  0.11794236249E+03  0.84155779721E+02 0.  0.
          5    1    5    5  501    0 -0.47968480995E+02 -0.87424105221E+02 -0.43916495577E+02  0.10906281642E+03  0.47000000000E+01 0. -1.
        -13    1    6    6    0    0  0.25527228373E+02 -0.74009936561E+02 -0.12879256035E+01  0.78299226373E+02  0.00000000000E+00 0.  1.
         14    1    6    6    0    0  0.31162867451E+02  0.16336313455E+02  0.18264139619E+02  0.39643136116E+02  0.00000000000E+00 0. -1.
         -5    1    3    3    0  503  0.26734173698E+02  0.13501616473E+03  0.13833038728E+03  0.19519597032E+03  0.47000000000E+01 0.  1.
         13    1    4    4    0    0 -0.51711837918E+02  0.18331177581E+02  0.98564402228E+02  0.11280553018E+03  0.00000000000E+00 0. -1.
        -14    1    4    4    0    0  0.16256049390E+02 -0.82496139889E+01 -0.17417346691E+01  0.18312534298E+02  0.00000000000E+00 0.  1.
</event>
<event>
12    1  0.8196217E-002  0.3278876E+03  0.7818608E-02  0.1072142E+00
         21   -1    0    0  501  502  0.00000000000E+00  0.00000000000E+00  0.82055979421E+03  0.82055979421E+03  0.00000000000E+00 0. -1.
         21   -1    0    0  502  503 -0.00000000000E+00 -0.00000000000E+00 -0.18062851507E+03  0.18062851507E+03  0.00000000000E+00 0. -1.
         -6    2    1    2    0  503 -0.27353894912E+03 -0.55957249642E+02  0.57205808087E+02  0.33284052282E+03  0.17191724369E+03 0.  0.
        -24    2    3    3    0    0 -0.16339243668E+03 -0.97480770382E+02  0.57744986950E+02  0.21503204395E+03  0.81882278010E+02 0.  0.
          6    2    1    2  501    0  0.27353894912E+03  0.55957249642E+02  0.58272547105E+03  0.66834778647E+03  0.17077768763E+03 0.  0.
         24    2    5    5    0    0  0.18616939222E+03  0.10364946963E+03  0.39823868750E+03  0.45866838685E+03  0.79877291642E+02 0.  0.
          5    1    5    5  501    0  0.87369556899E+02 -0.47692219984E+02  0.18448678355E+03  0.20967939962E+03  0.47000000000E+01 0. -1.
        -13    1    6    6    0    0 -0.30137212916E+01  0.98482169825E+00  0.44337049659E+02  0.44450268416E+02  0.00000000000E+00 0.  1.
         14    1    6    6    0    0  0.18918311351E+03  0.10266464793E+03  0.35390163784E+03  0.41421811843E+03  0.00000000000E+00 0. -1.
         -5    1    3    3    0  503 -0.11014651244E+03  0.41523520740E+02 -0.53917886346E+00  0.11780847886E+03  0.47000000000E+01 0.  1.
         11    1    4    4    0    0 -0.69730740758E+02 -0.30365289928E+02 -0.16676446386E+02  0.77862255959E+02  0.00000000000E+00 0. -1.
        -12    1    4    4    0    0 -0.93661695918E+02 -0.67115480454E+02  0.74421433336E+02  0.13716978799E+03  0.00000000000E+00 0.  1.
</event>
<event>
12    1  0.8196217E-002  0.2174760E+03  0.7818608E-02  0.1136696E+00
         21   -1    0    0  501  502  0.00000000000E+00  0.00000000000E+00  0.11867768876E+03  0.11867768876E+03  0.00000000000E+00 0. -1.
         21   -1    0    0  502  503 -0.00000000000E+00 -0.00000000000E+00 -0.18246183047E+04  0.18246183047E+04  0.00000000000E+00 0.  1.
         -6    2    1    2    0  503 -0.56678960120E+02  0.11771165475E+03 -0.17125627780E+04  0.17257192230E+04  0.16783036008E+03 0.  0.
        -24    2    3    3    0    0 -0.58346468481E+02  0.46654800541E+02 -0.53361321720E+03  0.54461972927E+03  0.79288102151E+02 0.  0.
          6    2    1    2  501    0  0.56678960120E+02 -0.11771165475E+03  0.66221620413E+01  0.21757677050E+03  0.17385988568E+03 0.  0.
         24    2    5    5    0    0  0.79175615906E+02 -0.54374528354E+02 -0.45212272557E+02  0.13256741977E+03  0.79401534661E+02 0.  0.
          5    1    5    5  501    0 -0.22496655786E+02 -0.63337126397E+02  0.51834434599E+02  0.85009350732E+02  0.47000000000E+01 0. -1.
        -11    1    6    6    0    0  0.22329322033E+02  0.20498067898E+02 -0.15034160460E+02  0.33834825118E+02  0.00000000000E+00 0.  1.
         12    1    6    6    0    0  0.56846293873E+02 -0.74872596253E+02 -0.30178112097E+02  0.98732594651E+02  0.00000000000E+00 0. -1.
         -5    1    3    3    0  503  0.16675083609E+01  0.71056854210E+02 -0.11789495608E+04  0.11810994937E+04  0.47000000000E+01 0.  1.
         11    1    4    4    0    0  0.74803649122E+01  0.22841114630E+02 -0.44989539325E+02  0.51007166413E+02  0.00000000000E+00 0. -1.
        -12    1    4    4    0    0 -0.65826833393E+02  0.23813685911E+02 -0.48862367788E+03  0.49361256286E+03  0.00000000000E+00 0.  1.
</event>
<event>
12    1  0.8196217E-002  0.1808403E+03  0.7818608E-02  0.1167513E+00
         21   -1    0    0  503  502  0.00000000000E+00  0.00000000000E+00  0.24552275340E+03  0.24552275340E+03  0.00000000000E+00 0. -1.
         21   -1    0    0  501  503 -0.00000000000E+00 -0.00000000000E+00 -0.15066934821E+03  0.15066934821E+03  0.00000000000E+00 0. -1.
          6    2    1    2  501    0  0.55146320365E+02 -0.82466973054E+01 -0.23262859769E+02  0.18019519407E+03  0.16976460955E+03 0.  0.
         24    2    3    3    0    0  0.19055245859E+02 -0.68378470691E+02 -0.39818393703E+01  0.10731005445E+03  0.80379568875E+02 0.  0.
         -6    2    1    2    0  502 -0.55146320365E+02  0.82466973054E+01  0.11811626496E+03  0.21599690753E+03  0.17202932119E+03 0.  0.
        -24    2    5    5    0    0 -0.23480575836E+01 -0.54845496289E+02  0.61015145430E+02  0.11574268420E+03  0.81608695218E+02 0.  0.
          5    1    3    3  501    0  0.36091074507E+02  0.60131773386E+02 -0.19281020399E+02  0.72885139618E+02  0.47000000000E+01 0. -1.
        -11    1    4    4    0    0  0.38255645491E+02 -0.38393049637E+02  0.26599182820E+02  0.60374143465E+02  0.00000000000E+00 0.  1.
         12    1    4    4    0    0 -0.19200399633E+02 -0.29985421054E+02 -0.30581022190E+02  0.46935910986E+02  0.00000000000E+00 0. -1.
         -5    1    5    5    0  502 -0.52798262782E+02  0.63092193595E+02  0.57101119531E+02  0.10025422334E+03  0.47000000000E+01 0.  1.
         13    1    6    6    0    0  0.13379305457E+02 -0.31100427517E+02  0.76260400149E+02  0.83437947225E+02  0.00000000000E+00 0. -1.
        -14    1    6    6    0    0 -0.15727363041E+02 -0.23745068773E+02 -0.15245254720E+02  0.32304736970E+02  0.00000000000E+00 0.  1.
</event>
<event>
12    1  0.8196217E-002  0.1857606E+03  0.7818608E-02  0.1162501E+00
         21   -1    0    0  501  502  0.00000000000E+00  0.00000000000E+00  0.34629167356E+02  0.34629167356E+02  0.00000000000E+00 0. -1.
         21   -1    0    0  502  503 -0.00000000000E+00 -0.00000000000E+00 -0.10181324629E+04  0.10181324629E+04  0.00000000000E+00 0. -1.
         -6    2    1    2    0  503  0.40755787294E+02  0.51919876492E+02 -0.57565087452E+03  0.60488092087E+03  0.17363839242E+03 0.  0.
        -24    2    3    3    0    0  0.47684790477E+02  0.43066486974E+02 -0.58213575321E+03  0.59107739803E+03  0.79761480384E+02 0.  0.
          6    2    1    2  501    0 -0.40755787294E+02 -0.51919876492E+02 -0.40785242107E+03  0.44788070944E+03  0.17290698290E+03 0.  0.
         24    2    5    5    0    0 -0.22283349094E+02 -0.27521617786E+02 -0.76965079491E+02  0.11554800141E+03  0.78573087488E+02 0.  0.
          5    1    5    5  501    0 -0.18472438201E+02 -0.24398258706E+02 -0.33088734158E+03  0.33233270802E+03  0.47000000000E+01 0. -1.
        -13    1    6    6    0    0 -0.33132503067E+01  0.16652958976E+01  0.15924287573E+02  0.16350344729E+02  0.00000000000E+00 0.  1.
         14    1    6    6    0    0 -0.18970098787E+02 -0.29186913683E+02 -0.92889367064E+02  0.99197656686E+02  0.00000000000E+00 0. -1.
         -5    1    3    3    0  503 -0.69290031822E+01  0.88533895178E+01  0.64848786926E+01  0.13803522837E+02  0.47000000000E+01 0.  1.
         11    1    4    4    0    0  0.40154757237E+02 -0.83113018564E+01 -0.13937391609E+03  0.14528100617E+03  0.00000000000E+00 0. -1.
        -12    1    4    4    0    0  0.75300332393E+01  0.51377788831E+02 -0.44276183712E+03  0.44579639186E+03  0.00000000000E+00 0.  1.
</event>
<event>
12    1  0.8196217E-002  0.1875807E+03  0.7818608E-02  0.1160695E+00
         21   -1    0    0  503  502  0.00000000000E+00  0.00000000000E+00  0.16902577264E+03  0.16902577264E+03  0.00000000000E+00 0.  1.
         21   -1    0    0  501  503 -0.00000000000E+00 -0.00000000000E+00 -0.28135950034E+03  0.28135950034E+03  0.00000000000E+00 0.  1.
          6    2    1    2  501    0  0.57510949122E+02  0.44556083308E+02 -0.17116265732E+03  0.25393540080E+03  0.17289817433E+03 0.  0.
         24    2    3    3    0    0  0.11363057887E+02  0.92926103306E+02 -0.94384378022E+02  0.15202229628E+03  0.73742714828E+02 0.  0.
         -6    2    1    2    0  502 -0.57510949122E+02 -0.44556083308E+02  0.58828929621E+02  0.19644987218E+03  0.17273955972E+03 0.  0.
        -24    2    5    5    0    0 -0.89782592066E+02 -0.48153905309E+02  0.84824715042E+02  0.15458969873E+03  0.79517483852E+02 0.  0.
          5    1    3    3  501    0  0.46147891236E+02 -0.48370019998E+02 -0.76778279303E+02  0.10191310452E+03  0.47000000000E+01 0. -1.
        -13    1    4    4    0    0 -0.23057120502E+02  0.48218707635E+02 -0.75539557087E+02  0.92535934948E+02  0.00000000000E+00 0.  1.
         14    1    4    4    0    0  0.34420178389E+02  0.44707395670E+02 -0.18844820935E+02  0.59486361328E+02  0.00000000000E+00 0. -1.
         -5    1    5    5    0  502  0.32271642944E+02  0.35978220008E+01 -0.25995785421E+02  0.41860173448E+02  0.47000000000E+01 0.  1.
         13    1    6    6    0    0  0.11493879518E+02 -0.21498831342E+02  0.13303933583E+02  0.27772354316E+02  0.00000000000E+00 0. -1.
        -14    1    6    6    0    0 -0.10127647158E+03 -0.26655073967E+02  0.71520781459E+02  0.12681734442E+03  0.00000000000E+00 0.  1.
</event>
<event>
12    1  0.8196217E-002  0.2162616E+03  0.7818608E-02  0.1136885E+00
         21   -1    0    0  501  502  0.00000000000E+00  0.00000000000E+00  0.20011740384E+03  0.20011740384E+03  0.00000000000E+00 0.  1.
         21   -1    0    0  502  503 -0.00000000000E+00 -0.00000000000E+00 -0.24097826273E+03  0.24097826273E+03  0.00000000000E+00 0. -1.
         -6    2    1    2    0  503  0.12842566403E+03  0.23781923270E+02 -0.61337678680E+02  0.22386684928E+03  0.17115876936E+03 0.  0.
        -24    2    3    3    0    0  0.11629650615E+03  0.76819064884E+02 -0.46688579462E+02  0.16732712016E+03  0.79953083853E+02 0.  0.
          6    2    1    2  501    0 -0.12842566403E+03 -0.23781923270E+02  0.20476819793E+02  0.21722881728E+03  0.17236684094E+03 0.  0.
         24    2    5    5    0    0 -0.14075141434E+03  0.19745831319E+02  0.40924891278E+02  0.16736096022E+03  0.78319766262E+02 0.  0.
          5    1    5    5  501    0  0.12325750314E+02 -0.43527754588E+02 -0.20448071485E+02  0.49867857060E+02  0.47000000000E+01 0. -1.
        -11    1    6    6    0    0 -0.46887188260E+02  0.44055276951E+02  0.25377464259E+02  0.69161344278E+02  0.00000000000E+00 0.  1.
         12    1    6    6    0    0 -0.93864226081E+02 -0.24309445633E+02  0.15547427019E+02  0.98199615945E+02  0.00000000000E+00 0. -1.
         -5    1    3    3    0  503  0.12129157880E+02 -0.53037141615E+02 -0.14649099218E+02  0.56539729124E+02  0.47000000000E+01 0.  1.
         13    1    4    4    0    0  0.17358836131E+02 -0.17023569927E+02 -0.66198124102E+01  0.25198274568E+02  0.00000000000E+00 0. -1.
        -14    1    4    4    0    0  0.98937670016E+02  0.93842634811E+02 -0.40068767052E+02  0.14212884559E+03  0.00000000000E+00 0.  1.
</event>
<event>
12    1  0.8196217E-002  0.3280389E+03  0.7818608E-02  0.1072272E+00
         21   -1    0    0  503  502  0.00000000000E+00  0.00000000000E+00  0.19375454925E+03  0.19375454925E+03  0.00000000000E+00 0.  1.
         21   -1    0    0  501  503 -0.00000000000E+00 -0.00000000000E+00 -0.62281146828E+03  0.62281146828E+03  0.00000000000E+00 0. -1.
          6    2    1    2  501    0  0.21980676677E+03  0.17160649402E+03 -0.35208985111E+03  0.47961881112E+03  0.16823536257E+03 0.  0.
         24    2    3    3    0    0  0.32102643138E+02  0.58559336080E+02 -0.89001334852E+02  0.13720071094E+03  0.80268436746E+02 0.  0.
         -6    2    1    2    0  502 -0.21980676677E+03 -0.17160649402E+03 -0.76967067917E+02  0.33694720640E+03  0.17275904275E+03 0.  0.
        -24    2    5    5    0    0 -0.20718063526E+03 -0.95456337200E+02 -0.22786806530E+02  0.24252339423E+03  0.79136781976E+02 0.  0.
          5    1    3    3  501    0  0.18770412363E+03  0.11304715794E+03 -0.26308851626E+03  0.34241810018E+03  0.47000000000E+01 0. -1.
        -11    1    4    4    0    0  0.16781116803E+02  0.66789853036E+02 -0.96257585870E+02  0.11835545271E+03  0.00000000000E+00 0.  1.
         12    1    4    4    0    0  0.15321526336E+02 -0.82305169567E+01  0.72562510181E+01  0.18845258222E+02  0.00000000000E+00 0. -1.
         -5    1    5    5    0  502 -0.12626131510E+02 -0.76150156821E+02 -0.54180261387E+02  0.94423812171E+02  0.47000000000E+01 0.  1.
         13    1    6    6    0    0  0.57577964677E+01  0.29384843628E+01  0.16777763883E+01  0.66784612092E+01  0.00000000000E+00 0. -1.
        -14    1    6    6    0    0 -0.21293843173E+03 -0.98394821563E+02 -0.24464582918E+02  0.23584493302E+03  0.00000000000E+00 0.  1.
</event>
<event>
12    1  0.8196217E-002  0.1975452E+03  0.7818608E-02  0.1151870E+00
         21   -1    0    0  503  502  0.00000000000E+00  0.00000000000E+00  0.32107659964E+03  0.32107659964E+03  0.00000000000E+00 0.  1.
         21   -1    0    0  501  503 -0.00000000000E+00 -0.00000000000E+00 -0.23401335516E+03  0.23401335516E+03  0.00000000000E+00 0.  1.
          6    2    1    2  501    0  0.95198885656E+02 -0.53741316731E+01 -0.14900008163E+03  0.24727510122E+03  0.17277801433E+03 0.  0.
         24    2    3    3    0    0  0.95501184788E+02  0.17521542836E+02 -0.17327378068E+03  0.21357635107E+03  0.78508432070E+02 0.  0.
         -6    2    1    2    0  502 -0.95198885656E+02  0.53741316731E+01  0.23606332610E+03  0.30781485358E+03  0.17300977150E+03 0.  0.
        -24    2    5    5    0    0 -0.81514348968E+02  0.66953314625E+02  0.13733073590E+03  0.19055669103E+03  0.79528523475E+02 0.  0.
          5    1    3    3  501    0 -0.30229913118E+00 -0.22895674509E+02  0.24273699049E+02  0.33698750147E+02  0.47000000000E+01 0. -1.
        -11    1    4    4    0    0  0.16097748691E+02  0.36927685532E+02 -0.79887253613E+02  0.89469350962E+02  0.00000000000E+00 0.  1.
         12    1    4    4    0    0  0.79403436096E+02 -0.19406142696E+02 -0.93386527064E+02  0.12410700011E+03  0.00000000000E+00 0. -1.
         -5    1    5    5    0  502 -0.13684536689E+02 -0.61579182952E+02  0.98732590206E+02  0.11725816256E+03  0.47000000000E+01 0.  1.
         13    1    6    6    0    0 -0.48274063131E+02  0.59829397766E+02  0.13637213403E+03  0.15654807871E+03  0.00000000000E+00 0. -1.
        -14    1    6    6    0    0 -0.33240285836E+02  0.71239168590E+01  0.95860186356E+00  0.34008612313E+02  0.00000000000E+00 0.  1.
</event>
<event>
12    1  0.8196217E-002  0.2063291E+03  0.7818608E-02  0.1144595E+00
         21   -1    0    0  501  502  0.00000000000E+00  0.00000000000E+00  0.39126153640E+03  0.39126153640E+03  0.00000000000E+00 0.  1.
         21   -1    0    0  502  503 -0.00000000000E+00 -0.00000000000E+00 -0.12581781203E+03  0.12581781203E+03  0.00000000000E+00 0. -1.
         -6    2    1    2    0  503  0.10673921379E+03  0.40444559674E+02  0.22830914079E+03  0.30743514067E+03  0.17135425231E+03 0.  0.
        -24    2    3    3    0    0  0.25812413572E+02 -0.35924469942E+02  0.85780447716E+02  0.12655425714E+03  0.81858698709E+02 0.  0.
          6    2    1    2  501    0 -0.10673921379E+03 -0.40444559674E+02  0.37134583580E+02  0.20964420777E+03  0.17187988359E+03 0.  0.
         24    2    5    5    0    0 -0.13605045478E+03 -0.14336038051E+02  0.49458336042E+01  0.15866372744E+03  0.80215141351E+02 0.  0.
          5    1    5    5  501    0  0.29311240987E+02 -0.26108521623E+02  0.32188749976E+02  0.50980480329E+02  0.47000000000E+01 0. -1.
        -13    1    6    6    0    0 -0.35329034212E+01 -0.20944970611E+01  0.23889913295E+02  0.24240385347E+02  0.00000000000E+00 0.  1.
         14    1    6    6    0    0 -0.13251755136E+03 -0.12241540990E+02 -0.18944079691E+02  0.13442334209E+03  0.00000000000E+00 0. -1.
         -5    1    3    3    0  503  0.80926800222E+02  0.76369029616E+02  0.14252869307E+03  0.18088088353E+03  0.47000000000E+01 0.  1.
         11    1    4    4    0    0  0.10790352887E+01  0.19543418282E+01 -0.15484068864E+02  0.15644173283E+02  0.00000000000E+00 0. -1.
        -12    1    4    4    0    0  0.24733378283E+02 -0.37878811770E+02  0.10126451658E+03  0.11091008385E+03  0.00000000000E+00 0.  1.
</event>
<event>
12    1  0.8196217E-002  0.1823104E+03  0.7818608E-02  0.1166158E+00
         21   -1    0    0  501  502  0.00000000000E+00  0.00000000000E+00  0.45028224888E+02  0.45028224888E+02  0.00000000000E+00 0. -1.
         21   -1    0    0  502  503 -0.00000000000E+00 -0.00000000000E+00 -0.79447652703E+03  0.79447652703E+03  0.00000000000E+00 0. -1.
         -6    2    1    2    0  503  0.60443230915E+02 -0.15048872963E+01 -0.49341328916E+03  0.52519435412E+03  0.16946028100E+03 0.  0.
        -24    2    3    3    0    0  0.33073417808E+02  0.38551159685E+02 -0.45060153805E+03  0.46032117321E+03  0.79207282054E+02 0.  0.
          6    2    1    2  501    0 -0.60443230915E+02  0.15048872963E+01 -0.25603501298E+03  0.31431039779E+03  0.17199258542E+03 0.  0.
         24    2    5    5    0    0 -0.10580428184E+03 -0.72102378397E+01 -0.21864248502E+03  0.25469605813E+03  0.76282450028E+02 0.  0.
          5    1    5    5  501    0  0.45361050923E+02  0.87151251360E+01 -0.37392527959E+02  0.59614339669E+02  0.47000000000E+01 0. -1.
        -13    1    6    6    0    0 -0.20961848311E+02 -0.20222934781E+02 -0.13072490103E+02  0.31925791662E+02  0.00000000000E+00 0.  1.
         14    1    6    6    0    0 -0.84842433527E+02  0.13012696941E+02 -0.20556999492E+03  0.22277026646E+03  0.00000000000E+00 0. -1.
         -5    1    3    3    0  503  0.27369813107E+02 -0.40056046982E+02 -0.42811751107E+02  0.64873180916E+02  0.47000000000E+01 0.  1.
         11    1    4    4    0    0  0.53756375741E+01  0.94746918738E+01 -0.35320153254E+01  0.11451742125E+02  0.00000000000E+00 0. -1.
        -12    1    4    4    0    0  0.27697780234E+02  0.29076467811E+02 -0.44706952272E+03  0.44886943108E+03  0.00000000000E+00 0.  1.
</event>
<event>
12    1  0.8196217E-002  0.2574131E+03  0.7818608E-02  0.1109192E+00
         21   -1    0    0  501  502  0.00000000000E+00  0.00000000000E+00  0.46091635816E+03  0.46091635816E+03  0.00000000000E+00 0.  1.
         21   -1    0    0  502  503 -0.00000000000E+00 -0.00000000000E+00 -0.14218949438E+03  0.14218949438E+03  0.00000000000E+00 0.  1.
         -6    2    1    2    0  503 -0.14130231796E+03  0.12560772630E+03  0.16936409311E+03  0.30549752412E+03  0.17000263305E+03 0.  0.
        -24    2    3    3    0    0 -0.61187145519E+02  0.26098089478E+02  0.16156375222E+02  0.10595979963E+03  0.80879377014E+02 0.  0.
          6    2    1    2  501    0  0.14130231796E+03 -0.12560772630E+03  0.14936277066E+03  0.29760832842E+03  0.17469354286E+03 0.  0.
         24    2    5    5    0    0  0.15094421878E+03 -0.97879541224E+02  0.63335055058E+02  0.20658813092E+03  0.79389954440E+02 0.  0.
          5    1    5    5  501    0 -0.96419008259E+01 -0.27728185075E+02  0.86027715606E+02  0.91020197492E+02  0.47000000000E+01 0. -1.
        -13    1    6    6    0    0  0.90737920806E+02 -0.96442401682E+02  0.62335256106E+02  0.14635638445E+03  0.00000000000E+00 0.  1.
         14    1    6    6    0    0  0.60206297975E+02 -0.14371395426E+01  0.99979895226E+00  0.60231746478E+02  0.00000000000E+00 0. -1.
         -5    1    3    3    0  503 -0.80115172437E+02  0.99509636821E+02  0.15320771789E+03  0.19953772449E+03  0.47000000000E+01 0.  1.
         13    1    4    4    0    0  0.37157995730E+01  0.45666119129E+01  0.34630171301E+02  0.35127053323E+02  0.00000000000E+00 0. -1.
        -14    1    4    4    0    0 -0.64902945091E+02  0.21531477565E+02 -0.18473796079E+02  0.70832746306E+02  0.00000000000E+00 0.  1.
</event>
<event>
12    1  0.8196217E-002  0.1887086E+03  0.7818608E-02  0.1159735E+00
         21   -1    0    0  501  502  0.00000000000E+00  0.00000000000E+00  0.38939799537E+03  0.38939799537E+03  0.00000000000E+00 0.  1.
         21   -1    0    0  502  503 -0.00000000000E+00 -0.00000000000E+00 -0.19784707968E+03  0.19784707968E+03  0.00000000000E+00 0.  1.
         -6    2    1    2    0  503  0.33302930826E+02  0.68849348278E+02 -0.11971608259E+03  0.22347901581E+03  0.17251554167E+03 0.  0.
        -24    2    3    3    0    0  0.79039287224E+02  0.18874802121E+02 -0.84767113480E+02  0.14710631125E+03  0.88607766035E+02 0.  0.
          6    2    1    2  501    0 -0.33302930826E+02 -0.68849348278E+02  0.31126699828E+03  0.36376605923E+03  0.17201535883E+03 0.  0.
         24    2    5    5    0    0 -0.66988972096E+02 -0.67141942572E+02  0.12993568966E+03  0.17926457388E+03  0.79100829118E+02 0.  0.
          5    1    5    5  501    0  0.33686041270E+02 -0.17074057064E+01  0.18133130862E+03  0.18450148535E+03  0.47000000000E+01 0. -1.
        -11    1    6    6    0    0 -0.34479587635E+02  0.12287967894E+02  0.28491729108E+02  0.46385501464E+02  0.00000000000E+00 0.  1.
         12    1    6    6    0    0 -0.32509384461E+02 -0.79429910466E+02  0.10144396055E+03  0.13287907242E+03  0.00000000000E+00 0. -1.
         -5    1    3    3    0  503 -0.45736356397E+02  0.49974546157E+02 -0.34948969110E+02  0.76372704561E+02  0.47000000000E+01 0.  1.
         11    1    4    4    0    0  0.60404494291E+02  0.26592796858E+02 -0.65417969792E+01  0.66322506610E+02  0.00000000000E+00 0. -1.
        -12    1    4    4    0    0  0.18634792932E+02 -0.77179947362E+01 -0.78225316501E+02  0.80783804640E+02  0.00000000000E+00 0.  1.
</event>
<event>
12    1  0.8196217E-002  0.1759450E+03  0.7818608E-02  0.1171931E+00
         21   -1    0    0  501  502  0.00000000000E+00  0.00000000000E+00  0.14442013360E+03  0.14442013360E+03  0.00000000000E+00 0.  1.
         21   -1    0    0  502  503 -0.00000000000E+00 -0.00000000000E+00 -0.57244620700E+03  0.57244620700E+03  0.00000000000E+00 0.  1.
         -6    2    1    2    0  503 -0.11571054575E+02 -0.34348169307E+02 -0.49765187160E+03  0.52764587399E+03  0.17157825325E+03 0.  0.
        -24    2    3    3    0    0  0.40997739325E+02  0.18346072158E+02 -0.18776883745E+03  0.20891441017E+03  0.79816674099E+02 0.  0.
          6    2    1    2  501    0  0.11571054575E+02  0.34348169307E+02  0.69625798199E+02  0.18922046661E+03  0.17217127278E+03 0.  0.
         24    2    5    5    0    0 -0.38417714385E+02  0.58909967004E+02  0.80671055412E+02  0.13224462405E+03  0.77682149938E+02 0.  0.
          5    1    5    5  501    0  0.49988768960E+02 -0.24561797698E+02 -0.11045257213E+02  0.56975842558E+02  0.47000000000E+01 0. -1.
        -11    1    6    6    0    0  0.11328010150E+02  0.22128913923E+02 -0.61754166076E+01  0.25615394115E+02  0.00000000000E+00 0.  1.
         12    1    6    6    0    0 -0.49745724535E+02  0.36781053081E+02  0.86846472020E+02  0.10662922994E+03  0.00000000000E+00 0. -1.
         -5    1    3    3    0  503 -0.52568793900E+02 -0.52694241464E+02 -0.30988303415E+03  0.31873146382E+03  0.47000000000E+01 0.  1.
         13    1    4    4    0    0  0.10820972787E+02  0.42477300807E+02 -0.53326983677E+02  0.69030295697E+02  0.00000000000E+00 0. -1.
        -14    1    4    4    0    0  0.30176766538E+02 -0.24131228650E+02 -0.13444185377E+03  0.13988411447E+03  0.00000000000E+00 0.  1.
</event>
<event>
12    1  0.8196217E-002  0.2195302E+03  0.7818608E-02  0.1134602E+00
         21   -1    0    0  501  502  0.00000000000E+00  0.00000000000E+00  0.27913536855E+03  0.27913536855E+03  0.00000000000E+00 0.  1.
         21   -1    0    0  502  503 -0.00000000000E+00 -0.00000000000E+00 -0.21818973129E+03  0.21818973129E+03  0.00000000000E+00 0.  1.
         -6    2    1    2    0  503  0.13329173390E+03 -0.49367800216E+01  0.14608383322E+03  0.26369297111E+03  0.17436295066E+03 0.  0.
        -24    2    3    3    0    0  0.98750039262E+02  0.58288789871E+02  0.10589770606E+03  0.18106358062E+03  0.91763515619E+02 0.  0.
          6    2    1    2  501    0 -0.13329173390E+03  0.49367800216E+01 -0.85138195963E+02  0.23363212873E+03  0.17188484819E+03 0.  0.
         24    2    5    5    0    0 -0.14239218489E+03 -0.42698305502E+02 -0.65813874062E+02  0.18121611020E+03  0.80057060696E+02 0.  0.
          5    1    5    5  501    0  0.91004509876E+01  0.47635085524E+02 -0.19324321900E+02  0.52416018525E+02  0.47000000000E+01 0. -1.
        -11    1    6    6    0    0 -0.79028091886E+02  0.85878672654E+00 -0.68049745608E+02  0.10429259177E+03  0.00000000000E+00 0.  1.
         12    1    6    6    0    0 -0.63364093006E+02 -0.43557092229E+02  0.22358715461E+01  0.76923518429E+02  0.00000000000E+00 0. -1.
         -5    1    3    3    0  503  0.34541694643E+02 -0.63225569893E+02  0.40186127155E+02  0.82629390490E+02  0.47000000000E+01 0.  1.
         11    1    4    4    0    0  0.57390808819E+02 -0.17669897764E+02  0.49387162225E+02  0.77749739656E+02  0.00000000000E+00 0. -1.
        -12    1    4    4    0    0  0.41359230443E+02  0.75958687635E+02  0.56510543838E+02  0.10331384096E+03  0.00000000000E+00 0.  1.
</event>
<event>
12    1  0.8196217E-002  0.1908285E+03  0.7818608E-02  0.1157818E+00
         21   -1    0    0  503  502  0.00000000000E+00  0.00000000000E+00  0.18566171873E+03  0.18566171873E+03  0.00000000000E+00 0.  1.
         21   -1    0    0  501  503 -0.00000000000E+00 -0.00000000000E+00 -0.11577633585E+04  0.11577633585E+04  0.00000000000E+00 0.  1.
          6    2    1    2  501    0 -0.69460887514E+02  0.45594676140E+02 -0.10984726540E+04  0.11149249613E+04  0.17179001248E+03 0.  0.
         24    2    3    3    0    0 -0.79366987822E+02  0.34636011509E+00 -0.99679954662E+03  0.10030989729E+04  0.79366079154E+02 0.  0.
         -6    2    1    2    0  502  0.69460887514E+02 -0.45594676140E+02  0.12637101426E+03  0.22850011589E+03  0.17128625260E+03 0.  0.
        -24    2    5    5    0    0  0.42415512726E+02 -0.87573762493E+02  0.46826279940E+02  0.13446208769E+03  0.80119366801E+02 0.  0.
          5    1    3    3  501    0  0.99061003080E+01  0.45248316025E+02 -0.10167310741E+03  0.11182598847E+03  0.47000000000E+01 0. -1.
        -13    1    4    4    0    0 -0.87603703856E+02  0.13067002033E+02 -0.94461604751E+03  0.94875952311E+03  0.00000000000E+00 0.  1.
         14    1    4    4    0    0  0.82367160343E+01 -0.12720641918E+02 -0.52183499108E+02  0.54339449767E+02  0.00000000000E+00 0. -1.
         -5    1    5    5    0  502  0.27045374787E+02  0.41979086352E+02  0.79544734325E+02  0.94038028197E+02  0.47000000000E+01 0.  1.
         11    1    6    6    0    0 -0.22011020524E+02 -0.15661792650E+02  0.21818413624E+02  0.34724918237E+02  0.00000000000E+00 0. -1.
        -12    1    6    6    0    0  0.64426533250E+02 -0.71911969842E+02  0.25007866316E+02  0.99737169455E+02  0.00000000000E+00 0.  1.
</event>
<event>
12    1  0.8196217E-002  0.1812086E+03  0.7818608E-02  0.1166698E+00
         21   -1    0    0  501  502  0.00000000000E+00  0.00000000000E+00  0.31917952560E+03  0.31917952560E+03  0.00000000000E+00 0. -1.
         21   -1    0    0  502  503 -0.00000000000E+00 -0.00000000000E+00 -0.11878320516E+03  0.11878320516E+03  0.00000000000E+00 0. -1.
         -6    2    1    2    0  503 -0.50212871596E+01 -0.55342765067E+02  0.19775153904E+02  0.18228439981E+03  0.17247756588E+03 0.  0.
        -24    2    3    3    0    0  0.11016561397E+02 -0.80999645178E+01 -0.51926670462E+02  0.94806766054E+02  0.78134305744E+02 0.  0.
          6    2    1    2  501    0  0.50212871596E+01  0.55342765067E+02  0.18062116654E+03  0.25567833095E+03  0.17221895409E+03 0.  0.
         24    2    5    5    0    0  0.54512496049E+02  0.80026214802E+02  0.13185944448E+03  0.18179702083E+03  0.79293356607E+02 0.  0.
          5    1    5    5  501    0 -0.49491208890E+02 -0.24683449735E+02  0.48761722058E+02  0.73881310128E+02  0.47000000000E+01 0. -1.
        -13    1    6    6    0    0 -0.35135978551E+01  0.30807387985E+02  0.17305544340E+01  0.31055359328E+02  0.00000000000E+00 0.  1.
         14    1    6    6    0    0  0.58026093904E+02  0.49218826817E+02  0.13012889004E+03  0.15074166150E+03  0.00000000000E+00 0. -1.
         -5    1    3    3    0  503 -0.16037848556E+02 -0.47242800549E+02  0.71701824366E+02  0.87477633755E+02  0.47000000000E+01 0.  1.
         11    1    4    4    0    0 -0.18348137394E+02 -0.31146247919E+02 -0.43462270283E+02  0.56530627481E+02  0.00000000000E+00 0. -1.
        -12    1    4    4    0    0  0.29364698791E+02  0.23046283401E+02 -0.84644001785E+01  0.38276138573E+02  0.00000000000E+00 0.  1.
</event>
<event>
12    1  0.8196217E-002  0.2190206E+03  0.7818608E-02  0.1134876E+00
         21   -1    0    0  501  502  0.00000000000E+00  0.00000000000E+00  0.19851981893E+03  0.19851981893E+03  0.00000000000E+00 0.  1.
         21   -1    0    0  502  503 -0.00000000000E+00 -0.00000000000E+00 -0.43000318358E+03  0.43000318358E+03  0.00000000000E+00 0. -1.
         -6    2    1    2    0  503  0.11862849326E+03  0.60939589673E+02 -0.32437202271E+03  0.39061901949E+03  0.17198737241E+03 0.  0.
        -24    2    3    3    0    0  0.11000094997E+03  0.84962622436E+02 -0.16939192567E+03  0.23348066935E+03  0.80627180726E+02 0.  0.
          6    2    1    2  501    0 -0.11862849326E+03 -0.60939589673E+02  0.92888658061E+02  0.23790398302E+03  0.17373442186E+03 0.  0.
         24    2    5    5    0    0 -0.11608197163E+02 -0.59673919078E+02 -0.17614450472E+01  0.94950572019E+02  0.72916264156E+02 0.  0.
          5    1    5    5  501    0 -0.10702029609E+03 -0.12656705952E+01  0.94650103108E+02  0.14295341100E+03  0.47000000000E+01 0. -1.
        -13    1    6    6    0    0 -0.23080765771E+02  0.23278163218E+01  0.17457048269E+02  0.29032550898E+02  0.00000000000E+00 0.  1.
         14    1    6    6    0    0  0.11472568607E+02 -0.62001735400E+02 -0.19218493317E+02  0.65918021120E+02  0.00000000000E+00 0. -1.
         -5    1    3    3    0  503  0.86275432818E+01 -0.24023032762E+02 -0.15498009704E+03  0.15713835014E+03  0.47000000000E+01 0.  1.
         13    1    4    4    0    0 -0.44848135801E+01  0.27607704928E+02 -0.55326518234E+02  0.61994536406E+02  0.00000000000E+00 0. -1.
        -14    1    4    4    0    0  0.11448576355E+03  0.57354917507E+02 -0.11406540744E+03  0.17148613295E+03  0.00000000000E+00 0.  1.
</event>
<event>
12    1  0.8196217E-002  0.1770377E+03  0.7818608E-02  0.1171027E+00
         21   -1    0    0  501  502  0.00000000000E+00  0.00000000000E+00  0.20741066710E+03  0.20741066710E+03  0.00000000000E+00 0. -1.
         21   -1    0    0  502  503 -0.00000000000E+00 -0.00000000000E+00 -0.45310110816E+03  0.45310110816E+03  0.00000000000E+00 0. -1.
         -6    2    1    2    0  503 -0.33033207112E+02 -0.52444352220E+01 -0.39311183252E+03  0.43113719003E+03  0.17384955244E+03 0.  0.
        -24    2    3    3    0    0  0.19664686415E+02  0.23474772508E+02 -0.34105121490E+03  0.35154913324E+03  0.79580758143E+02 0.  0.
          6    2    1    2  501    0  0.33033207112E+02  0.52444352220E+01  0.14742139146E+03  0.22937458524E+03  0.17251358446E+03 0.  0.
         24    2    5    5    0    0  0.43212406068E+02  0.60220286058E+02  0.13280615077E+03  0.17139479974E+03  0.79024735392E+02 0.  0.
          5    1    5    5  501    0 -0.10179198956E+02 -0.54975850836E+02  0.14615240689E+02  0.57979785502E+02  0.47000000000E+01 0. -1.
        -13    1    6    6    0    0 -0.18243453770E+02 -0.18965490111E+01  0.10669552977E+02  0.21219327613E+02  0.00000000000E+00 0.  1.
         14    1    6    6    0    0  0.61455859838E+02  0.62116835069E+02  0.12213659780E+03  0.15017547213E+03  0.00000000000E+00 0. -1.
         -5    1    3    3    0  503 -0.52697893527E+02 -0.28719207730E+02 -0.52060617626E+02  0.79588056783E+02  0.47000000000E+01 0.  1.
         13    1    4    4    0    0  0.90847372876E-01  0.30795420410E+02 -0.43679633657E+02  0.53444144375E+02  0.00000000000E+00 0. -1.
        -14    1    4    4    0    0  0.19573839042E+02 -0.73206479023E+01 -0.29737158124E+03  0.29810498887E+03  0.00000000000E+00 0.  1.
</event>
<event>
12    1  0.8196217E-002  0.1761716E+03  0.7818608E-02  0.1171606E+00
         21   -1    0    0  501  502  0.00000000000E+00  0.00000000000E+00  0.36430459072E+03  0.36430459072E+03  0.00000000000E+00 0.  1.
         21   -1    0    0  502  503 -0.00000000000E+00 -0.00000000000E+00 -0.85206662852E+02  0.85206662852E+02  0.00000000000E+00 0. -1.
         -6    2    1    2    0  503  0.10437086980E+02 -0.37734141994E+02  0.13172531323E+03  0.21982646386E+03  0.17157889675E+03 0.  0.
        -24    2    3    3    0    0 -0.68791032200E+01 -0.55631172168E+02  0.15699929752E+03  0.18403514628E+03  0.77961569164E+02 0.  0.
          6    2    1    2  501    0 -0.10437086980E+02  0.37734141994E+02  0.14737261465E+03  0.22968478972E+03  0.17176616903E+03 0.  0.
         24    2    5    5    0    0  0.44564047305E+02 -0.16363793501E+02  0.11058921489E+03  0.14408794460E+03  0.79231516951E+02 0.  0.
          5    1    5    5  501    0 -0.55001134285E+02  0.54097935494E+02  0.36783399756E+02  0.85596845123E+02  0.47000000000E+01 0. -1.
        -11    1    6    6    0    0  0.49395449084E+02 -0.16768156587E+02  0.24098515482E+02  0.57461464600E+02  0.00000000000E+00 0.  1.
         12    1    6    6    0    0 -0.48314017790E+01  0.40436308687E+00  0.86490699408E+02  0.86626479998E+02  0.00000000000E+00 0. -1.
         -5    1    3    3    0  503  0.17316190201E+02  0.17897030175E+02 -0.25273984290E+02  0.35791317579E+02  0.47000000000E+01 0.  1.
         13    1    4    4    0    0  0.50417362746E+01 -0.72723355337E+02  0.10327862431E+03  0.12641431785E+03  0.00000000000E+00 0. -1.
        -14    1    4    4    0    0 -0.11920839495E+02  0.17092183169E+02  0.53720673202E+02  0.57620828431E+02  0.00000000000E+00 0.  1.
</event>
<event>
12    1  0.8196217E-002  0.2526904E+03  0.7818608E-02  0.1112063E+00
         21   -1    0    0  503  502  0.00000000000E+00  0.00000000000E+00  0.18743770586E+03  0.18743770586E+03  0.00000000000E+00 0.  1.
         21   -1    0    0  501  503 -0.00000000000E+00 -0.00000000000E+00 -0.49255209935E+03  0.49255209935E+03  0.00000000000E+00 0.  1.
          6    2    1    2  501    0 -0.13724203198E+01 -0.18042190531E+03 -0.34431999571E+03  0.42709332556E+03  0.17691382603E+03 0.  0.
         24    2    3    3    0    0 -0.24625660556E+02 -0.13510523625E+03 -0.34034175854E+03  0.37578806222E+03  0.80773182935E+02 0.  0.
         -6    2    1    2    0  502  0.13724203198E+01  0.18042190531E+03  0.39205602224E+02  0.25289647964E+03  0.17281667372E+03 0.  0.
        -24    2    5    5    0    0 -0.35971035415E+02  0.10412391226E+03 -0.34979552712E+02  0.14001847185E+03  0.79030999352E+02 0.  0.
          5    1    3    3  501    0  0.23253240236E+02 -0.45316669059E+02 -0.39782371751E+01  0.51305263347E+02  0.47000000000E+01 0. -1.
        -13    1    4    4    0    0 -0.40720971240E+01 -0.13843214787E+03 -0.29435903073E+03  0.32531105193E+03  0.00000000000E+00 0.  1.
         14    1    4    4    0    0 -0.20553563432E+02  0.33269116163E+01 -0.45982727810E+02  0.50477010287E+02  0.00000000000E+00 0. -1.
         -5    1    5    5    0  502  0.37343455734E+02  0.76297993053E+02  0.74185154936E+02  0.11287800779E+03  0.47000000000E+01 0.  1.
         11    1    6    6    0    0  0.74455076773E+01 -0.97861457876E+01  0.23671809476E+01  0.12522291307E+02  0.00000000000E+00 0. -1.
        -12    1    6    6    0    0 -0.43416543092E+02  0.11391005804E+03 -0.37346733659E+02  0.12749618054E+03  0.00000000000E+00 0.  1.
</event>
<event>
12    1  0.8196217E-002  0.2638398E+03  0.7818608E-02  0.1104893E+00
         21   -1    0    0  503  502  0.00000000000E+00  0.00000000000E+00  0.22475589807E+04  0.22475589807E+04  0.00000000000E+00 0. -1.
         21   -1    0    0  501  503 -0.00000000000E+00 -0.00000000000E+00 -0.41206906584E+02  0.41206906584E+02  0.00000000000E+00 0.  1.
          6    2    1    2  501    0 -0.11192032254E+03  0.16585674590E+03  0.53170140382E+03  0.59345875171E+03  0.17161669031E+03 0.  0.
         24    2    3    3    0    0 -0.38155697392E+02  0.11155982204E+03  0.17490214954E+03  0.22506063319E+03  0.78486148874E+02 0.  0.
         -6    2    1    2    0  502  0.11192032254E+03 -0.16585674590E+03  0.16746506703E+04  0.16953071356E+04  0.17197906169E+03 0.  0.
        -24    2    5    5    0    0  0.86065748428E+02 -0.24422428560E+02  0.71280009779E+03  0.72275855635E+03  0.79323283470E+02 0.  0.
          5    1    3    3  501    0 -0.73764625150E+02  0.54296923866E+02  0.35679925429E+03  0.36839811851E+03  0.47000000000E+01 0. -1.
        -11    1    4    4    0    0 -0.35897067017E+02  0.90719553348E+01  0.30497788790E+02  0.47968895288E+02  0.00000000000E+00 0.  1.
         12    1    4    4    0    0 -0.22586303750E+01  0.10248786670E+03  0.14440436075E+03  0.17709173791E+03  0.00000000000E+00 0. -1.
         -5    1    5    5    0  502  0.25854574114E+02 -0.14143431734E+03  0.96185057250E+03  0.97254857922E+03  0.47000000000E+01 0.  1.
         11    1    6    6    0    0  0.37216013412E+02 -0.19448273131E+02  0.57391248899E+03  0.57544661959E+03  0.00000000000E+00 0. -1.
        -12    1    6    6    0    0  0.48849735017E+02 -0.49741554283E+01  0.13888760880E+03  0.14731193676E+03  0.00000000000E+00 0.  1.
</event>
<event>
12    1  0.8196217E-002  0.1813806E+03  0.7818608E-02  0.1166501E+00
         21   -1    0    0  503  502  0.00000000000E+00  0.00000000000E+00  0.49654385161E+02  0.49654385161E+02  0.00000000000E+00 0.  1.
         21   -1    0    0  501  503 -0.00000000000E+00 -0.00000000000E+00 -0.78185047367E+03  0.78185047367E+03  0.00000000000E+00 0.  1.
          6    2    1    2  501    0 -0.41251225864E+01 -0.57971293282E+02 -0.52887194055E+03  0.55911041470E+03  0.17181745793E+03 0.  0.
         24    2    3    3    0    0 -0.36409445425E+02 -0.11659483094E+02 -0.13534109221E+03  0.16152309114E+03  0.79441213919E+02 0.  0.
         -6    2    1    2    0  502  0.41251225864E+01  0.57971293282E+02 -0.20332414796E+03  0.27239444413E+03  0.17169838836E+03 0.  0.
        -24    2    5    5    0    0  0.54806579692E+02  0.52221882101E+02 -0.18968946524E+03  0.21938821434E+03  0.80113726785E+02 0.  0.
          5    1    3    3  501    0  0.32284322839E+02 -0.46311810188E+02 -0.39353084834E+03  0.39758732356E+03  0.47000000000E+01 0. -1.
        -11    1    4    4    0    0 -0.61212333078E+01  0.16881714267E+02 -0.11274760941E+03  0.11416866996E+03  0.00000000000E+00 0.  1.
         12    1    4    4    0    0 -0.30288212117E+02 -0.28541197361E+02 -0.22593482802E+02  0.47354421178E+02  0.00000000000E+00 0. -1.
         -5    1    5    5    0  502 -0.50681457106E+02  0.57494111812E+01 -0.13634682717E+02  0.53006229786E+02  0.47000000000E+01 0.  1.
         13    1    6    6    0    0  0.20533470475E+02  0.66786029362E+02 -0.14685428818E+03  0.16262896139E+03  0.00000000000E+00 0. -1.
        -14    1    6    6    0    0  0.34273109218E+02 -0.14564147261E+02 -0.42835177067E+02  0.56759252948E+02  0.00000000000E+00 0.  1.
</event>
<event>
12    1  0.8196217E-002  0.2777260E+03  0.7818608E-02  0.1096986E+00
         21   -1    0    0  501  502  0.00000000000E+00  0.00000000000E+00  0.22264118140E+04  0.22264118140E+04  0.00000000000E+00 0.  1.
         21   -1    0    0  502  503 -0.00000000000E+00 -0.00000000000E+00 -0.63503021084E+02  0.63503021084E+02  0.00000000000E+00 0. -1.
         -6    2    1    2    0  503 -0.12788542380E+03 -0.17697863704E+03  0.30939233896E+03  0.41575878152E+03  0.17162641237E+03 0.  0.
        -24    2    3    3    0    0 -0.71481208678E+02 -0.11823380890E+03  0.93164764916E+02  0.18465524609E+03  0.79555576323E+02 0.  0.
          6    2    1    2  501    0  0.12788542380E+03  0.17697863704E+03  0.18535164540E+04  0.18741560536E+04  0.17106007252E+03 0.  0.
         24    2    5    5    0    0  0.69720040992E+01  0.11729866728E+03  0.89750300215E+03  0.90866883775E+03  0.79748552593E+02 0.  0.
          5    1    5    5  501    0  0.12091341970E+03  0.59679969752E+02  0.95601345184E+03  0.96548721584E+03  0.47000000000E+01 0. -1.
        -11    1    6    6    0    0 -0.19325000841E+02  0.88038562850E+02  0.76938725979E+03  0.77464895258E+03  0.00000000000E+00 0.  1.
         12    1    6    6    0    0  0.26297004940E+02  0.29260104433E+02  0.12811574236E+03  0.13401988517E+03  0.00000000000E+00 0. -1.
         -5    1    3    3    0  503 -0.56404215120E+02 -0.58744828132E+02  0.21622757404E+03  0.23110353544E+03  0.47000000000E+01 0.  1.
         13    1    4    4    0    0 -0.83997410423E+01 -0.85693056482E+02  0.35226654757E+02  0.93031031297E+02  0.00000000000E+00 0. -1.
        -14    1    4    4    0    0 -0.63081467635E+02 -0.32540752421E+02  0.57938110159E+02  0.91624214790E+02  0.00000000000E+00 0.  1.
</event>
<event>
12    1  0.8196217E-002  0.3002035E+03  0.7818608E-02  0.1085156E+00
         21   -1    0    0  501  502  0.00000000000E+00  0.00000000000E+00  0.33171062087E+03  0.33171062087E+03  0.00000000000E+00 0.  1.
         21   -1    0    0  502  503 -0.00000000000E+00 -0.00000000000E+00 -0.31895695119E+03  0.31895695119E+03  0.00000000000E+00 0. -1.
         -6    2    1    2    0  503  0.18934392800E+02 -0.24543769918E+03 -0.11902776652E+03  0.32293920274E+03  0.17182533007E+03 0.  0.
        -24    2    3    3    0    0 -0.54060224671E+02 -0.10408130305E+03 -0.73280339154E+02  0.15733496965E+03  0.75025722475E+02 0.  0.
          6    2    1    2  501    0 -0.18934392800E+02  0.24543769918E+03  0.13178143621E+03  0.32772836932E+03  0.17158485281E+03 0.  0.
         24    2    5    5    0    0 -0.61680741018E+02  0.13250000964E+03  0.29702458759E+02  0.16953740989E+03  0.80622149136E+02 0.  0.
          5    1    5    5  501    0  0.42746348218E+02  0.11293768954E+03  0.10207897745E+03  0.15819095942E+03  0.47000000000E+01 0. -1.
        -11    1    6    6    0    0 -0.19227077305E+02  0.11735303901E+02  0.34768631618E+02  0.41427715408E+02  0.00000000000E+00 0.  1.
         12    1    6    6    0    0 -0.42453663713E+02  0.12076470574E+03 -0.50661728594E+01  0.12810969449E+03  0.00000000000E+00 0. -1.
         -5    1    3    3    0  503  0.72994617471E+02 -0.14135639613E+03 -0.45747427370E+02  0.16560423309E+03  0.47000000000E+01 0.  1.
         13    1    4    4    0    0  0.14565151409E+02 -0.64550458296E+01 -0.22682480222E+02  0.27718336192E+02  0.00000000000E+00 0. -1.
        -14    1    4    4    0    0 -0.68625376080E+02 -0.97626257223E+02 -0.50597858932E+02  0.12961663346E+03  0.00000000000E+00 0.  1.
</event>
<event>
12    1  0.8196217E-002  0.2406996E+03  0.7818608E-02  0.1119573E+00
         21   -1    0    0  503  502  0.00000000000E+00  0.00000000000E+00  0.17382958663E+03  0.17382958663E+03  0.00000000000E+00 0. -1.
         21   -1    0    0  501  503 -0.00000000000E+00 -0.00000000000E+00 -0.52266400068E+03  0.52266400068E+03  0.00000000000E+00 0.  1.
          6    2    1    2  501    0  0.16407763001E+02 -0.16746362817E+03 -0.38482199730E+03  0.45311859893E+03  0.17004474012E+03 0.  0.
         24    2    3    3    0    0  0.33367290952E+02 -0.14889473580E+03 -0.18991244356E+03  0.25653718198E+03  0.80383898024E+02 0.  0.
         -6    2    1    2    0  502 -0.16407763001E+02  0.16746362817E+03  0.35987583250E+02  0.24337498839E+03  0.17211332714E+03 0.  0.
        -24    2    5    5    0    0  0.72620682539E+01  0.18700691323E+03  0.11867626681E+02  0.20405497812E+03  0.80456636166E+02 0.  0.
          5    1    3    3  501    0 -0.16959527951E+02 -0.18568892365E+02 -0.19490955374E+03  0.19658141695E+03  0.47000000000E+01 0. -1.
        -13    1    4    4    0    0  0.23129293878E+02 -0.35034215778E+02 -0.10808089877E+03  0.11594757949E+03  0.00000000000E+00 0.  1.
         14    1    4    4    0    0  0.10237997074E+02 -0.11386052003E+03 -0.81831544793E+02  0.14058960249E+03  0.00000000000E+00 0. -1.
         -5    1    5    5    0  502 -0.23669831255E+02 -0.19543285059E+02  0.24119956569E+02  0.39320010268E+02  0.47000000000E+01 0.  1.
         13    1    6    6    0    0  0.76865923645E+01  0.10514228464E+03  0.46427608514E+02  0.11519334423E+03  0.00000000000E+00 0. -1.
        -14    1    6    6    0    0 -0.42452411055E+00  0.81864628584E+02 -0.34559981833E+02  0.88861633893E+02  0.00000000000E+00 0.  1.
</event>
<event>
12    1  0.8196217E-002  0.1848863E+03  0.7818608E-02  0.1163552E+00
         21   -1    0    0  503  502  0.00000000000E+00  0.00000000000E+00  0.11464249619E+03  0.11464249619E+03  0.00000000000E+00 0. -1.
         21   -1    0    0  501  503 -0.00000000000E+00 -0.00000000000E+00 -0.61958746602E+03  0.61958746602E+03  0.00000000000E+00 0. -1.
          6    2    1    2  501    0  0.27085398928E+01 -0.68311102556E+02 -0.51744834477E+03  0.54892134011E+03  0.16996501172E+03 0.  0.
         24    2    3    3    0    0  0.45836301101E+02 -0.11606315272E+02 -0.17567213801E+03  0.19976735948E+03  0.82526509602E+02 0.  0.
         -6    2    1    2    0  502 -0.27085398928E+01  0.68311102556E+02  0.12503374945E+02  0.18530862210E+03  0.17178244415E+03 0.  0.
        -24    2    5    5    0    0 -0.77330767893E+01  0.42637420579E+02 -0.59466574436E+02  0.10858738950E+03  0.79857357665E+02 0.  0.
          5    1    3    3  501    0 -0.43127761209E+02 -0.56704787285E+02 -0.34177620676E+03  0.34915398064E+03  0.47000000000E+01 0. -1.
        -13    1    4    4    0    0  0.44739622330E+02 -0.34268513947E+02 -0.16563108993E+03  0.17495605964E+03  0.00000000000E+00 0.  1.
         14    1    4    4    0    0  0.10966787713E+01  0.22662198675E+02 -0.10041048085E+02  0.24811299840E+02  0.00000000000E+00 0. -1.
         -5    1    5    5    0  502  0.50245368965E+01  0.25673681977E+02  0.71969949381E+02  0.76721232597E+02  0.47000000000E+01 0.  1.
         11    1    6    6    0    0  0.11173563965E+02  0.51225979112E+02 -0.79329648464E+01  0.53027176042E+02  0.00000000000E+00 0. -1.
        -12    1    6    6    0    0 -0.18906640754E+02 -0.85885585333E+01 -0.51533609590E+02  0.55560213459E+02  0.00000000000E+00 0.  1.
</event>
<event>
12    1  0.8196217E-002  0.2223354E+03  0.7818608E-02  0.1132257E+00
         21   -1    0    0  501  502  0.00000000000E+00  0.00000000000E+00  0.69500926651E+03  0.69500926651E+03  0.00000000000E+00 0. -1.
         21   -1    0    0  502  503 -0.00000000000E+00 -0.00000000000E+00 -0.17382240807E+03  0.17382240807E+03  0.00000000000E+00 0.  1.
         -6    2    1    2    0  503  0.47131658944E+02  0.13185354029E+03 -0.73475112238E+02  0.23416154945E+03  0.17270289448E+03 0.  0.
        -24    2    3    3    0    0  0.37722642658E+02  0.93130519402E+02 -0.11403996534E+03  0.17710369073E+03  0.90908262343E+02 0.  0.
          6    2    1    2  501    0 -0.47131658944E+02 -0.13185354029E+03  0.59466197069E+03  0.63467012513E+03  0.17197836780E+03 0.  0.
         24    2    5    5    0    0  0.72790683927E+01 -0.14047988133E+01  0.21759954900E+03  0.23195985552E+03  0.80005328273E+02 0.  0.
          5    1    5    5  501    0 -0.54410727337E+02 -0.13044874147E+03  0.37706242169E+03  0.40271026961E+03  0.47000000000E+01 0. -1.
        -11    1    6    6    0    0 -0.29939390151E+02  0.20396030761E+02  0.81496427280E+02  0.89185384525E+02  0.00000000000E+00 0.  1.
         12    1    6    6    0    0  0.37218458543E+02 -0.21800829574E+02  0.13610312172E+03  0.14277447099E+03  0.00000000000E+00 0. -1.
         -5    1    3    3    0  503  0.94090162859E+01  0.38723020884E+02  0.40564853106E+02  0.57057858717E+02  0.47000000000E+01 0.  1.
         13    1    4    4    0    0 -0.75485158693E+01  0.63679142066E+01 -0.68420917316E+02  0.69129967088E+02  0.00000000000E+00 0. -1.
        -14    1    4    4    0    0  0.45271158528E+02  0.86762605195E+02 -0.45619048028E+02  0.10797372364E+03  0.00000000000E+00 0.  1.
</event>
<event>
12    1  0.8196217E-002  0.1719919E+03  0.7818608E-02  0.1176145E+00
         21   -1    0    0  501  502  0.00000000000E+00  0.00000000000E+00  0.25003486771E+03  0.25003486771E+03  0.00000000000E+00 0.  1.
         21   -1    0    0  502  503 -0.00000000000E+00 -0.00000000000E+00 -0.11935372369E+03  0.11935372369E+03  0.00000000000E+00 0.  1.
         -6    2    1    2    0  503  0.47492308355E+01 -0.40963872599E+01  0.41693395660E+02  0.17697329844E+03  0.17187749572E+03 0.  0.
        -24    2    3    3    0    0 -0.41428901615E+01 -0.60053312085E+02 -0.12463758800E+02  0.98453653566E+02  0.76903919184E+02 0.  0.
          6    2    1    2  501    0 -0.47492308355E+01  0.40963872599E+01  0.88987748361E+02  0.19241529296E+03  0.17048604056E+03 0.  0.
         24    2    5    5    0    0 -0.44632502029E+02  0.20739457595E+01  0.11297413273E+03  0.14559433371E+03  0.80238356493E+02 0.  0.
          5    1    5    5  501    0  0.39883271194E+02  0.20224415004E+01 -0.23986384370E+02  0.46820959258E+02  0.47000000000E+01 0. -1.
        -13    1    6    6    0    0 -0.65331464332E+02 -0.39619710931E+01  0.61604570372E+02  0.89883371862E+02  0.00000000000E+00 0.  1.
         14    1    6    6    0    0  0.20698962302E+02  0.60359168526E+01  0.51369562358E+02  0.55710961843E+02  0.00000000000E+00 0. -1.
         -5    1    3    3    0  503  0.88921209971E+01  0.55956924825E+02  0.54157154460E+02  0.78519644872E+02  0.47000000000E+01 0.  1.
         11    1    4    4    0    0 -0.21806584119E+01 -0.76552437945E+01  0.29964181505E+02  0.31003390168E+02  0.00000000000E+00 0. -1.
        -12    1    4    4    0    0 -0.19622317496E+01 -0.52398068290E+02 -0.42427940305E+02  0.67450263398E+02  0.00000000000E+00 0.  1.
</event>
<event>
12    1  0.8196217E-002  0.2134912E+03  0.7818608E-02  0.1138834E+00
         21   -1    0    0  501  502  0.00000000000E+00  0.00000000000E+00  0.87906161264E+02  0.87906161264E+02  0.00000000000E+00 0.  1.
         21   -1    0    0  502  503 -0.00000000000E+00 -0.00000000000E+00 -0.53329826965E+03  0.53329826965E+03  0.00000000000E+00 0. -1.
         -6    2    1    2    0  503 -0.10061368353E+03  0.76969131314E+02 -0.27453485353E+03  0.34777560685E+03  0.17184622903E+03 0.  0.
        -24    2    3    3    0    0 -0.13520592357E+03  0.42161024642E+02 -0.22814325255E+03  0.28008145642E+03  0.79612089422E+02 0.  0.
          6    2    1    2  501    0  0.10061368353E+03 -0.76969131314E+02 -0.17085725486E+03  0.27342882406E+03  0.17182479391E+03 0.  0.
         24    2    5    5    0    0  0.14332796364E+02  0.18845057581E+02 -0.54106477835E+02  0.99424271770E+02  0.79981933125E+02 0.  0.
          5    1    5    5  501    0  0.86280887163E+02 -0.95814188895E+02 -0.11675077702E+03  0.17400455229E+03  0.47000000000E+01 0. -1.
        -13    1    6    6    0    0 -0.30164926136E+02  0.18355897117E+02 -0.98398996834E+01  0.36656313966E+02  0.00000000000E+00 0.  1.
         14    1    6    6    0    0  0.44497722500E+02  0.48916046336E+00 -0.44266578152E+02  0.62767957804E+02  0.00000000000E+00 0. -1.
         -5    1    3    3    0  503  0.34592240038E+02  0.34808106672E+02 -0.46391600979E+02  0.67694150430E+02  0.47000000000E+01 0.  1.
         11    1    4    4    0    0 -0.71272264713E+02 -0.18969612525E+02 -0.11164889127E+03  0.13380977856E+03  0.00000000000E+00 0. -1.
        -12    1    4    4    0    0 -0.63933658852E+02  0.61130637167E+02 -0.11649436128E+03  0.14627167786E+03  0.00000000000E+00 0.  1.
</event>
<event>
12    1  0.8196217E-002  0.1923969E+03  0.7818608E-02  0.1156830E+00
         21   -1    0    0  503  502  0.00000000000E+00  0.00000000000E+00  0.96955258288E+03  0.96955258288E+03  0.00000000000E+00 0. -1.
         21   -1    0    0  501  503 -0.00000000000E+00 -0.00000000000E+00 -0.58914502266E+02  0.58914502266E+02  0.00000000000E+00 0. -1.
          6    2    1    2  501    0  0.74282154028E+02  0.30663632774E+02  0.14516881630E+03  0.23918909181E+03  0.17227692717E+03 0.  0.
         24    2    3    3    0    0  0.51467576025E+02  0.68215851930E+02  0.15466333983E+03  0.19399052867E+03  0.80057870881E+02 0.  0.
         -6    2    1    2    0  502 -0.74282154028E+02 -0.30663632774E+02  0.76546926432E+03  0.78927799334E+03  0.17480978053E+03 0.  0.
        -24    2    5    5    0    0 -0.10028756390E+03  0.16700879114E+02  0.63455260835E+03  0.64757076297E+03  0.79714273843E+02 0.  0.
          5    1    3    3  501    0  0.22814578003E+02 -0.37552219156E+02 -0.94945235300E+01  0.45198563141E+02  0.47000000000E+01 0. -1.
        -11    1    4    4    0    0 -0.20883563121E+02  0.88586910396E+01  0.40002182519E+02  0.45986674395E+02  0.00000000000E+00 0.  1.
         12    1    4    4    0    0  0.72351139146E+02  0.59357160891E+02  0.11466115731E+03  0.14800385427E+03  0.00000000000E+00 0. -1.
         -5    1    5    5    0  502  0.26005409869E+02 -0.47364511889E+02  0.13091665597E+03  0.14170723037E+03  0.47000000000E+01 0.  1.
         11    1    6    6    0    0  0.74269785403E+01  0.19250846631E+02  0.77886241375E+02  0.80573082986E+02  0.00000000000E+00 0. -1.
        -12    1    6    6    0    0 -0.10771454244E+03 -0.25499675168E+01  0.55666636697E+03  0.56699767998E+03  0.00000000000E+00 0.  1.
</event>
<event>
12    1  0.8196217E-002  0.1765561E+03  0.7818608E-02  0.1171326E+00
         21   -1    0    0  501  502  0.00000000000E+00  0.00000000000E+00  0.99857785357E+02  0.99857785357E+02  0.00000000000E+00 0.  1.
         21   -1    0    0  502  503 -0.00000000000E+00 -0.00000000000E+00 -0.31234190029E+03  0.31234190029E+03  0.00000000000E+00 0.  1.
         -6    2    1    2    0  503 -0.32153343906E+02 -0.22980923110E+02 -0.11899828169E+03  0.21242063138E+03  0.17146420396E+03 0.  0.
        -24    2    3    3    0    0 -0.24290657890E+02 -0.31228990722E+02  0.15168515862E+01  0.91276750816E+02  0.82242680395E+02 0.  0.
          6    2    1    2  501    0  0.32153343906E+02  0.22980923110E+02 -0.93485833239E+02  0.19977905426E+03  0.17207588196E+03 0.  0.
         24    2    5    5    0    0 -0.47847452376E+02 -0.16138108558E+02 -0.79050893564E+02  0.10944144566E+03  0.56378799273E+02 0.  0.
          5    1    5    5  501    0  0.80000796282E+02  0.39119031669E+02 -0.14434939674E+02  0.90337608602E+02  0.47000000000E+01 0. -1.
        -13    1    6    6    0    0 -0.20118247836E+02 -0.36230860295E+02 -0.43050339754E+02  0.59755760280E+02  0.00000000000E+00 0.  1.
         14    1    6    6    0    0 -0.27729204540E+02  0.20092751736E+02 -0.36000553810E+02  0.49685685377E+02  0.00000000000E+00 0. -1.
         -5    1    3    3    0  503 -0.78626860166E+01  0.82480676119E+01 -0.12051513328E+03  0.12114388057E+03  0.47000000000E+01 0.  1.
         13    1    4    4    0    0 -0.23010515963E+02 -0.51951972852E+02 -0.21066659232E+02  0.60599467484E+02  0.00000000000E+00 0. -1.
        -14    1    4    4    0    0 -0.12801419267E+01  0.20722982130E+02  0.22583510818E+02  0.30677283332E+02  0.00000000000E+00 0.  1.
</event>
<event>
12    1  0.8196217E-002  0.1852932E+03  0.7818608E-02  0.1162802E+00
         21   -1    0    0  501  502  0.00000000000E+00  0.00000000000E+00  0.41726600088E+03  0.41726600088E+03  0.00000000000E+00 0.  1.
         21   -1    0    0  502  503 -0.00000000000E+00 -0.00000000000E+00 -0.18936966405E+03  0.18936966405E+03  0.00000000000E+00 0.  1.
         -6    2    1    2    0  503  0.68013471362E+02 -0.13423145007E+02 -0.11421182761E+03  0.21757066022E+03  0.17171673627E+03 0.  0.
        -24    2    3    3    0    0 -0.92958239684E+01  0.44465349920E+02 -0.48220530820E+02  0.10050338794E+03  0.75578645842E+02 0.  0.
          6    2    1    2  501    0 -0.68013471362E+02  0.13423145007E+02  0.34210816443E+03  0.38906500470E+03  0.17183587695E+03 0.  0.
         24    2    5    5    0    0 -0.18019392421E+02  0.61315686518E+02  0.12731253285E+03  0.16333871734E+03  0.79917104833E+02 0.  0.
          5    1    5    5  501    0 -0.49994078941E+02 -0.47892541512E+02  0.21479563158E+03  0.22572628737E+03  0.47000000000E+01 0. -1.
        -13    1    6    6    0    0 -0.33606341312E+02  0.97026247318E+01  0.13670022559E+02  0.37555247567E+02  0.00000000000E+00 0.  1.
         14    1    6    6    0    0  0.15586948892E+02  0.51613061787E+02  0.11364251029E+03  0.12578346977E+03  0.00000000000E+00 0. -1.
         -5    1    3    3    0  503  0.77309295330E+02 -0.57888494927E+02 -0.65991296785E+02  0.11706727229E+03  0.47000000000E+01 0.  1.
         11    1    4    4    0    0 -0.31246158408E+02  0.28800942727E+02  0.30180012492E+01  0.42601937148E+02  0.00000000000E+00 0. -1.
        -12    1    4    4    0    0  0.21950334440E+02  0.15664407193E+02 -0.51238532069E+02  0.57901450788E+02  0.00000000000E+00 0.  1.
</event>
<event>
12    1  0.8196217E-002  0.2016301E+03  0.7818608E-02  0.1148704E+00
         21   -1    0    0  501  502  0.00000000000E+00  0.00000000000E+00  0.15584542798E+03  0.15584542798E+03  0.00000000000E+00 0. -1.
         21   -1    0    0  502  503 -0.00000000000E+00 -0.00000000000E+00 -0.30920803558E+03  0.30920803558E+03  0.00000000000E+00 0. -1.
         -6    2    1    2    0  503 -0.39913743327E+02 -0.95657668011E+02 -0.17080586671E+03  0.26425242067E+03  0.17294855122E+03 0.  0.
        -24    2    3    3    0    0  0.32966324606E+02 -0.24186115398E+02 -0.12131272514E+03  0.15071234758E+03  0.79534191984E+02 0.  0.
          6    2    1    2  501    0  0.39913743327E+02  0.95657668011E+02  0.17443259111E+02  0.20080104290E+03  0.17109440431E+03 0.  0.
         24    2    5    5    0    0  0.39493327128E+02  0.26692991464E+02 -0.45346665155E+02  0.10741492000E+03  0.84908222902E+02 0.  0.
          5    1    5    5  501    0  0.42041619894E+00  0.68964676547E+02  0.62789924267E+02  0.93386122901E+02  0.47000000000E+01 0. -1.
        -11    1    6    6    0    0  0.60385038440E+02  0.36453078935E+02 -0.20361199964E+02  0.73414973236E+02  0.00000000000E+00 0.  1.
         12    1    6    6    0    0 -0.20891711311E+02 -0.97600874710E+01 -0.24985465191E+02  0.33999946762E+02  0.00000000000E+00 0. -1.
         -5    1    3    3    0  503 -0.72880067934E+02 -0.71471552613E+02 -0.49493141570E+02  0.11354007309E+03  0.47000000000E+01 0.  1.
         11    1    4    4    0    0  0.46137389064E+01 -0.48171550431E+02 -0.46123414192E+02  0.66851732920E+02  0.00000000000E+00 0. -1.
        -12    1    4    4    0    0  0.28352585700E+02  0.23985435033E+02 -0.75189310949E+02  0.83860614657E+02  0.00000000000E+00 0.  1.
</event>
<event>
12    1  0.8196217E-002  0.1830550E+03  0.7818608E-02  0.1167316E+00
         21   -1    0    0  503  502  0.00000000000E+00  0.00000000000E+00  0.73456195972E+02  0.73456195972E+02  0.00000000000E+00 0.  1.
         21   -1    0    0  501  503 -0.00000000000E+00 -0.00000000000E+00 -0.53277632813E+03  0.53277632813E+03  0.00000000000E+00 0.  1.
          6    2    1    2  501    0  0.15255415241E+02  0.38077619588E+01 -0.36691776666E+03  0.41004607576E+03  0.18237848012E+03 0.  0.
         24    2    3    3    0    0  0.25869624332E+02 -0.35280729472E+02 -0.80683951332E+02  0.12092247134E+03  0.78729770336E+02 0.  0.
         -6    2    1    2    0  502 -0.15255415241E+02 -0.38077619588E+01 -0.92402365498E+02  0.19618644834E+03  0.17234760984E+03 0.  0.
        -24    2    5    5    0    0  0.20551009976E+02 -0.23261821537E+02 -0.11914305627E+03  0.14721997957E+03  0.80716777541E+02 0.  0.
          5    1    3    3  501    0 -0.10614209091E+02  0.39088491431E+02 -0.28623381532E+03  0.28912360442E+03  0.47000000000E+01 0. -1.
        -13    1    4    4    0    0 -0.24587622505E+02 -0.26661201294E+02 -0.19596779704E+02  0.41223835455E+02  0.00000000000E+00 0.  1.
         14    1    4    4    0    0  0.50457246837E+02 -0.86195281782E+01 -0.61087171627E+02  0.79698635884E+02  0.00000000000E+00 0. -1.
         -5    1    5    5    0  502 -0.35806425217E+02  0.19454059578E+02  0.26740690767E+02  0.48966468768E+02  0.47000000000E+01 0.  1.
         11    1    6    6    0    0 -0.59174254673E+01 -0.35457666912E+02 -0.14786193200E+02  0.38870214514E+02  0.00000000000E+00 0. -1.
        -12    1    6    6    0    0  0.26468435444E+02  0.12195845375E+02 -0.10435686307E+03  0.10834976506E+03  0.00000000000E+00 0.  1.
</event>
<event>
12    1  0.8196217E-002  0.1998213E+03  0.7818608E-02  0.1150156E+00
         21   -1    0    0  503  502  0.00000000000E+00  0.00000000000E+00  0.48368985307E+03  0.48368985307E+03  0.00000000000E+00 0. -1.
         21   -1    0    0  501  503 -0.00000000000E+00 -0.00000000000E+00 -0.96334252246E+02  0.96334252246E+02  0.00000000000E+00 0. -1.
          6    2    1    2  501    0 -0.60048318254E+02  0.82475535925E+02  0.81416415557E+02  0.21461017834E+03  0.17035516245E+03 0.  0.
         24    2    3    3    0    0  0.32238269444E+02  0.28812312444E+02  0.32404593267E+02  0.97048260412E+02  0.80615456453E+02 0.  0.
         -6    2    1    2    0  502  0.60048318254E+02 -0.82475535925E+02  0.30593918526E+03  0.36541392697E+03  0.17181541954E+03 0.  0.
        -24    2    5    5    0    0  0.54731865573E+02 -0.10215315130E+03  0.31312825613E+03  0.34329502202E+03  0.79820573332E+02 0.  0.
          5    1    3    3  501    0 -0.92286587698E+02  0.53663223481E+02  0.49011822290E+02  0.11756191793E+03  0.47000000000E+01 0. -1.
        -11    1    4    4    0    0  0.18763357188E+02  0.55939893686E+02  0.11155319312E+02  0.60048117602E+02  0.00000000000E+00 0.  1.
         12    1    4    4    0    0  0.13474912256E+02 -0.27127581242E+02  0.21249273956E+02  0.37000142811E+02  0.00000000000E+00 0. -1.
         -5    1    5    5    0  502  0.53164526814E+01  0.19677615376E+02 -0.71890708710E+01  0.22118904946E+02  0.47000000000E+01 0.  1.
         11    1    6    6    0    0  0.73473101075E+02 -0.96202117599E+02  0.26820657755E+03  0.29425824075E+03  0.00000000000E+00 0. -1.
        -12    1    6    6    0    0 -0.18741235502E+02 -0.59510337023E+01  0.44921678587E+02  0.49036781271E+02  0.00000000000E+00 0.  1.
</event>
<event>
12    1  0.8196217E-002  0.1777538E+03  0.7818608E-02  0.1170008E+00
         21   -1    0    0  501  502  0.00000000000E+00  0.00000000000E+00  0.11039837574E+04  0.11039837574E+04  0.00000000000E+00 0. -1.
         21   -1    0    0  502  503 -0.00000000000E+00 -0.00000000000E+00 -0.69773736147E+03  0.69773736147E+03  0.00000000000E+00 0. -1.
         -6    2    1    2    0  503  0.48138048886E+02 -0.13174710535E+01 -0.67907457276E+03  0.70194022586E+03  0.17105203252E+03 0.  0.
        -24    2    3    3    0    0  0.18351917624E+02 -0.63693405978E+02 -0.48018321390E+03  0.49132723124E+03  0.80205276646E+02 0.  0.
          6    2    1    2  501    0 -0.48138048886E+02  0.13174710535E+01  0.10853209687E+04  0.10997808930E+04  0.17110639984E+03 0.  0.
         24    2    5    5    0    0 -0.16256023840E+02  0.24512652704E+02  0.10185036419E+04  0.10220562178E+04  0.79900659341E+02 0.  0.
          5    1    5    5  501    0 -0.31882025046E+02 -0.23195181651E+02  0.66817326731E+02  0.77724675131E+02  0.47000000000E+01 0. -1.
        -11    1    6    6    0    0 -0.36389890350E+02  0.40768493375E+02  0.51574037368E+03  0.51862744549E+03  0.00000000000E+00 0.  1.
         12    1    6    6    0    0  0.20133866509E+02 -0.16255840670E+02  0.50276326825E+03  0.50342877235E+03  0.00000000000E+00 0. -1.
         -5    1    3    3    0  503  0.29786131263E+02  0.62375934924E+02 -0.19889135886E+03  0.21061299462E+03  0.47000000000E+01 0.  1.
         13    1    4    4    0    0  0.43603081064E+02 -0.29260893327E+02 -0.16215838389E+03  0.17044873136E+03  0.00000000000E+00 0. -1.
        -14    1    4    4    0    0 -0.25251163441E+02 -0.34432512651E+02 -0.31802483001E+03  0.32087849988E+03  0.00000000000E+00 0.  1.
</event>
<event>
12    1  0.8196217E-002  0.1795463E+03  0.7818608E-02  0.1168330E+00
         21   -1    0    0  503  502  0.00000000000E+00  0.00000000000E+00  0.43362494422E+03  0.43362494422E+03  0.00000000000E+00 0. -1.
         21   -1    0    0  501  503 -0.00000000000E+00 -0.00000000000E+00 -0.39034017342E+03  0.39034017342E+03  0.00000000000E+00 0. -1.
          6    2    1    2  501    0 -0.43312129397E+02 -0.26323718824E+02 -0.34912817059E+03  0.39242741186E+03  0.17187179919E+03 0.  0.
         24    2    3    3    0    0 -0.57619266677E+01 -0.32323876993E+02 -0.70180589157E+02  0.11086061196E+03  0.79288885513E+02 0.  0.
         -6    2    1    2    0  502  0.43312129397E+02  0.26323718824E+02  0.39241294139E+03  0.43153770578E+03  0.17224400197E+03 0.  0.
        -24    2    5    5    0    0 -0.28290244497E+02 -0.25069427672E+02  0.23462854904E+03  0.25074456453E+03  0.79959155075E+02 0.  0.
          5    1    3    3  501    0 -0.37550202729E+02  0.60001581688E+01 -0.27894758143E+03  0.28156679991E+03  0.47000000000E+01 0. -1.
        -11    1    4    4    0    0 -0.36000563676E+02 -0.16421578288E+01 -0.11034360130E+02  0.37689446411E+02  0.00000000000E+00 0.  1.
         12    1    4    4    0    0  0.30238637008E+02 -0.30681719164E+02 -0.59146229027E+02  0.73171165544E+02  0.00000000000E+00 0. -1.
         -5    1    5    5    0  502  0.71602373894E+02  0.51393146496E+02  0.15778439235E+03  0.18079314125E+03  0.47000000000E+01 0.  1.
         11    1    6    6    0    0 -0.35783946650E+02  0.20097404085E+02  0.87301289769E+02  0.96467153395E+02  0.00000000000E+00 0. -1.
        -12    1    6    6    0    0  0.74937021533E+01 -0.45166831757E+02  0.14732725927E+03  0.15427741113E+03  0.00000000000E+00 0.  1.
</event>
<event>
12    1  0.8196217E-002  0.1860701E+03  0.7818608E-02  0.1162690E+00
         21   -1    0    0  503  502  0.00000000000E+00  0.00000000000E+00  0.46076002255E+03  0.46076002255E+03  0.00000000000E+00 0. -1.
         21   -1    0    0  501  503 -0.00000000000E+00 -0.00000000000E+00 -0.12124433935E+03  0.12124433935E+03  0.00000000000E+00 0. -1.
          6    2    1    2  501    0 -0.68206625278E+02  0.11197798427E+02 -0.11038231108E+02  0.18639724699E+03  0.17275577188E+03 0.  0.
         24    2    3    3    0    0 -0.85056624425E+02  0.33225191246E+02 -0.59309050386E+02  0.13052873619E+03  0.71983642737E+02 0.  0.
         -6    2    1    2    0  502  0.68206625278E+02 -0.11197798427E+02  0.35055391431E+03  0.39560711491E+03  0.16982169505E+03 0.  0.
        -24    2    5    5    0    0 -0.26301021380E+02  0.24671580836E+02  0.15267690903E+03  0.17335566528E+03  0.73766642239E+02 0.  0.
          5    1    3    3  501    0  0.16849999147E+02 -0.22027392819E+02  0.48270819278E+02  0.55868510803E+02  0.47000000000E+01 0. -1.
        -11    1    4    4    0    0 -0.44678870112E+02 -0.10521076537E+02  0.82832064968E+00  0.45908393580E+02  0.00000000000E+00 0.  1.
         12    1    4    4    0    0 -0.40377754313E+02  0.43746267783E+02 -0.60137371036E+02  0.84620342610E+02  0.00000000000E+00 0. -1.
         -5    1    5    5    0  502  0.94507646658E+02 -0.35869379263E+02  0.19787700528E+03  0.22225144964E+03  0.47000000000E+01 0.  1.
         11    1    6    6    0    0 -0.29084000314E+02 -0.80453721402E+01  0.12998660361E+03  0.13344333706E+03  0.00000000000E+00 0. -1.
        -12    1    6    6    0    0  0.27829789340E+01  0.32716952976E+02  0.22690305411E+02  0.39912328214E+02  0.00000000000E+00 0.  1.
</event>
<event>
12    1  0.8196217E-002  0.2446094E+03  0.7818608E-02  0.1116897E+00
         21   -1    0    0  501  502  0.00000000000E+00  0.00000000000E+00  0.59041947166E+02  0.59041947166E+02  0.00000000000E+00 0.  1.
         21   -1    0    0  502  503 -0.00000000000E+00 -0.00000000000E+00 -0.11690474050E+04  0.11690474050E+04  0.00000000000E+00 0. -1.
         -6    2    1    2    0  503  0.49929752111E+02  0.16529546819E+03 -0.78071872097E+03  0.81788996706E+03  0.17206599023E+03 0.  0.
        -24    2    3    3    0    0  0.75941541075E+02  0.84551862453E+02 -0.31350776990E+03  0.34301703055E+03  0.80358113170E+02 0.  0.
          6    2    1    2  501    0 -0.49929752111E+02 -0.16529546819E+03 -0.32928673688E+03  0.41019938512E+03  0.17325763625E+03 0.  0.
         24    2    5    5    0    0 -0.60245143060E+02 -0.12741498803E+03 -0.33316077349E+03  0.37046984664E+03  0.79923399850E+02 0.  0.
          5    1    5    5  501    0  0.10315390949E+02 -0.37880480166E+02  0.38740366103E+01  0.39729538478E+02  0.47000000000E+01 0. -1.
        -13    1    6    6    0    0 -0.34460455844E+02 -0.48300607689E+02 -0.57884203994E+02  0.82891813782E+02  0.00000000000E+00 0.  1.
         14    1    6    6    0    0 -0.25784687216E+02 -0.79114380336E+02 -0.27527656949E+03  0.28757803286E+03  0.00000000000E+00 0. -1.
         -5    1    3    3    0  503 -0.26011788965E+02  0.80743605738E+02 -0.46721095107E+03  0.47487293652E+03  0.47000000000E+01 0.  1.
         13    1    4    4    0    0  0.49580359669E+02  0.47212994171E+02 -0.27455851730E+03  0.28296582533E+03  0.00000000000E+00 0. -1.
        -14    1    4    4    0    0  0.26361181407E+02  0.37338868282E+02 -0.38949252600E+02  0.60051205216E+02  0.00000000000E+00 0.  1.
</event>
<event>
12    1  0.8196217E-002  0.1917705E+03  0.7818608E-02  0.1157115E+00
         21   -1    0    0  503  502  0.00000000000E+00  0.00000000000E+00  0.34816603162E+03  0.34816603162E+03  0.00000000000E+00 0.  1.
         21   -1    0    0  501  503 -0.00000000000E+00 -0.00000000000E+00 -0.11165235902E+03  0.11165235902E+03  0.00000000000E+00 0.  1.
          6    2    1    2  501    0 -0.72240270789E+02  0.42982965963E+02  0.17453737812E+03  0.25930524076E+03  0.17236507604E+03 0.  0.
         24    2    3    3    0    0 -0.80289521100E+02  0.13176870503E+02  0.19110233297E+03  0.22395440645E+03  0.83758207871E+02 0.  0.
         -6    2    1    2    0  502  0.72240270789E+02 -0.42982965963E+02  0.61976294479E+02  0.20051314989E+03  0.17116737456E+03 0.  0.
        -24    2    5    5    0    0 -0.27228905174E+01 -0.26786679663E+02  0.86774395225E+02  0.11977387169E+03  0.78045142922E+02 0.  0.
          5    1    3    3  501    0  0.80492503106E+01  0.29806095460E+02 -0.16564954852E+02  0.35350834309E+02  0.47000000000E+01 0. -1.
        -11    1    4    4    0    0 -0.25252143339E+02  0.12395026680E+02  0.33844930876E+01  0.28333058837E+02  0.00000000000E+00 0.  1.
         12    1    4    4    0    0 -0.55037377761E+02  0.78184382301E+00  0.18771783988E+03  0.19562134761E+03  0.00000000000E+00 0. -1.
         -5    1    5    5    0  502  0.74963161307E+02 -0.16196286300E+02 -0.24798100745E+02  0.80739278196E+02  0.47000000000E+01 0.  1.
         11    1    6    6    0    0 -0.19005292556E+02 -0.23765880657E+02 -0.10039041858E+01  0.30447102525E+02  0.00000000000E+00 0. -1.
        -12    1    6    6    0    0  0.16282402038E+02 -0.30207990062E+01  0.87778299410E+02  0.89326769169E+02  0.00000000000E+00 0.  1.
</event>
<event>
12    1  0.8196217E-002  0.1825392E+03  0.7818608E-02  0.1166286E+00
         21   -1    0    0  503  502  0.00000000000E+00  0.00000000000E+00  0.40825887659E+03  0.40825887659E+03  0.00000000000E+00 0. -1.
         21   -1    0    0  501  503 -0.00000000000E+00 -0.00000000000E+00 -0.81294660704E+02  0.81294660704E+02  0.00000000000E+00 0. -1.
          6    2    1    2  501    0 -0.58867790066E+02 -0.11028999552E+02  0.19705508434E+03  0.26860989874E+03  0.17243409146E+03 0.  0.
         24    2    3    3    0    0 -0.68130284852E+01  0.14563055904E+02  0.19414168638E+03  0.21034130177E+03  0.79334537768E+02 0.  0.
         -6    2    1    2    0  502  0.58867790066E+02  0.11028999552E+02  0.12990913154E+03  0.22094363855E+03  0.16838246174E+03 0.  0.
        -24    2    5    5    0    0  0.48646510384E+02  0.62079200339E+02  0.12430832486E+03  0.16836934261E+03  0.81702911904E+02 0.  0.
          5    1    3    3  501    0 -0.52054761580E+02 -0.25592055456E+02  0.29133979594E+01  0.58268596974E+02  0.47000000000E+01 0. -1.
        -13    1    4    4    0    0  0.12292624122E+02  0.42448774386E+02  0.13698400872E+03  0.14393618620E+03  0.00000000000E+00 0.  1.
         14    1    4    4    0    0 -0.19105652607E+02 -0.27885718482E+02  0.57157677666E+02  0.66405115564E+02  0.00000000000E+00 0. -1.
         -5    1    5    5    0  502  0.10221279681E+02 -0.51050200787E+02  0.56008066849E+01  0.52574295946E+02  0.47000000000E+01 0.  1.
         13    1    6    6    0    0  0.35485875851E+02 -0.11869522916E+02  0.31039329074E+02  0.48616590877E+02  0.00000000000E+00 0. -1.
        -14    1    6    6    0    0  0.13160634534E+02  0.73948723255E+02  0.93268995785E+02  0.11975275173E+03  0.00000000000E+00 0.  1.
</event>
<event>
12    1  0.8196217E-002  0.1906677E+03  0.7818608E-02  0.1157875E+00
         21   -1    0    0  501  502  0.00000000000E+00  0.00000000000E+00  0.12654773986E+04  0.12654773986E+04  0.00000000000E+00 0. -1.
         21   -1    0    0  502  503 -0.00000000000E+00 -0.00000000000E+00 -0.39387611582E+02  0.39387611582E+02  0.00000000000E+00 0. -1.
         -6    2    1    2    0  503  0.11791101695E+02  0.81768478933E+02  0.27354739674E+03  0.33344016068E+03  0.17184018235E+03 0.  0.
        -24    2    3    3    0    0 -0.47100284735E+02  0.91936012135E+02  0.20112882550E+03  0.23942891888E+03  0.78757447879E+02 0.  0.
          6    2    1    2  501    0 -0.11791101695E+02 -0.81768478933E+02  0.95254239030E+03  0.97142484952E+03  0.17176762998E+03 0.  0.
         24    2    5    5    0    0  0.42797627499E+02 -0.77214129989E+02  0.80265664524E+03  0.81177367344E+03  0.83217473857E+02 0.  0.
          5    1    5    5  501    0 -0.54588729194E+02 -0.45543489436E+01  0.14988574506E+03  0.15965117607E+03  0.47000000000E+01 0. -1.
        -13    1    6    6    0    0  0.35216949715E+02 -0.40414026102E+02  0.17577805244E+03  0.18377010305E+03  0.00000000000E+00 0.  1.
         14    1    6    6    0    0  0.75806777834E+01 -0.36800103887E+02  0.62687859280E+03  0.62800357040E+03  0.00000000000E+00 0. -1.
         -5    1    3    3    0  503  0.58891386430E+02 -0.10167533202E+02  0.72418571230E+02  0.94011241807E+02  0.47000000000E+01 0.  1.
         11    1    4    4    0    0 -0.32721535817E+02  0.44817133018E+02  0.33745243618E+02  0.64946253048E+02  0.00000000000E+00 0. -1.
        -12    1    4    4    0    0 -0.14378748919E+02  0.47118879117E+02  0.16738358189E+03  0.17448266583E+03  0.00000000000E+00 0.  1.
</event>
<event>
12    1  0.8196217E-002  0.2016157E+03  0.7818608E-02  0.1148644E+00
         21   -1    0    0  503  502  0.00000000000E+00  0.00000000000E+00  0.22402012763E+02  0.22402012763E+02  0.00000000000E+00 0.  1.
         21   -1    0    0  501  503 -0.00000000000E+00 -0.00000000000E+00 -0.28437120466E+04  0.28437120466E+04  0.00000000000E+00 0.  1.
          6    2    1    2  501    0  0.99081746612E+02 -0.25733740112E+02 -0.22746828151E+04  0.22834904993E+04  0.17224265710E+03 0.  0.
         24    2    3    3    0    0  0.12705432472E+03  0.14448039207E+01 -0.20349348730E+04  0.20405454353E+04  0.81980772366E+02 0.  0.
         -6    2    1    2    0  502 -0.99081746612E+02  0.25733740112E+02 -0.54662721868E+03  0.58262356006E+03  0.17369363445E+03 0.  0.
        -24    2    5    5    0    0 -0.13212964062E+03  0.51694064816E+01 -0.36296979792E+03  0.39482794425E+03  0.81590849184E+02 0.  0.
          5    1    3    3  501    0 -0.27972578105E+02 -0.27178544032E+02 -0.23974794207E+03  0.24294506397E+03  0.47000000000E+01 0. -1.
        -13    1    4    4    0    0  0.12079742868E+03  0.23682801519E+02 -0.14725035610E+04  0.14776398854E+04  0.00000000000E+00 0.  1.
         14    1    4    4    0    0  0.62568960347E+01 -0.22237997598E+02 -0.56243131205E+03  0.56290554985E+03  0.00000000000E+00 0. -1.
         -5    1    5    5    0  502  0.33047894007E+02  0.20564333630E+02 -0.18365742076E+03  0.18779561581E+03  0.47000000000E+01 0.  1.
         11    1    6    6    0    0 -0.15004023682E+02  0.18725472261E+02 -0.17242124475E+02  0.29547502339E+02  0.00000000000E+00 0. -1.
        -12    1    6    6    0    0 -0.11712561694E+03 -0.13556065779E+02 -0.34572767344E+03  0.36528044191E+03  0.00000000000E+00 0.  1.
</event>
<event>
12    1  0.8196217E-002  0.1928673E+03  0.7818608E-02  0.1155956E+00
         21   -1    0    0  501  502  0.00000000000E+00  0.00000000000E+00  0.11117609199E+03  0.11117609199E+03  0.00000000000E+00 0. -1.
         21   -1    0    0  502  503 -0.00000000000E+00 -0.00000000000E+00 -0.33481109659E+03  0.33481109659E+03  0.00000000000E+00 0. -1.
         -6    2    1    2    0  503  0.47199413173E+02  0.73847205270E+02 -0.12181013758E+03  0.22811292322E+03  0.17180396327E+03 0.  0.
        -24    2    3    3    0    0  0.41327548359E+02  0.11322241093E+03 -0.65056398041E+02  0.15862938151E+03  0.80022903990E+02 0.  0.
          6    2    1    2  501    0 -0.47199413173E+02 -0.73847205270E+02 -0.10182486702E+03  0.21787426536E+03  0.17152171184E+03 0.  0.
         24    2    5    5    0    0 -0.13993415701E+02  0.26598474108E+02 -0.33894515489E+02  0.92062519352E+02  0.80145959232E+02 0.  0.
          5    1    5    5  501    0 -0.33205997472E+02 -0.10044567938E+03 -0.67930351532E+02  0.12581174601E+03  0.47000000000E+01 0. -1.
        -13    1    6    6    0    0  0.28378562322E+02  0.46815025272E+01 -0.33768956661E+02  0.44357656603E+02  0.00000000000E+00 0.  1.
         14    1    6    6    0    0 -0.42371978023E+02  0.21916971581E+02 -0.12555882821E+00  0.47704862749E+02  0.00000000000E+00 0. -1.
         -5    1    3    3    0  503  0.58718648142E+01 -0.39375205659E+02 -0.56753739535E+02  0.69483541708E+02  0.47000000000E+01 0.  1.
         13    1    4    4    0    0  0.40597155625E+02  0.23629920051E+02 -0.48497184262E+02  0.67516509446E+02  0.00000000000E+00 0. -1.
        -14    1    4    4    0    0  0.73039273400E+00  0.89592490877E+02 -0.16559213779E+02  0.91112872066E+02  0.00000000000E+00 0.  1.
</event>
<event>
12    1  0.8196217E-002  0.1976009E+03  0.7818608E-02  0.1153389E+00
         21   -1    0    0  501  502  0.00000000000E+00  0.00000000000E+00  0.97130955341E+03  0.97130955341E+03  0.00000000000E+00 0.  1.
         21   -1    0    0  502  503 -0.00000000000E+00 -0.00000000000E+00 -0.16534655522E+03  0.16534655522E+03  0.00000000000E+00 0.  1.
         -6    2    1    2    0  503  0.85268584019E+02  0.37213741141E+02 -0.92566673390E+02  0.21820795962E+03  0.17432880046E+03 0.  0.
        -24    2    3    3    0    0  0.11970631687E+03  0.13485023677E+01 -0.49669140393E+02  0.15237057561E+03  0.80114593215E+02 0.  0.
          6    2    1    2  501    0 -0.85268584019E+02 -0.37213741141E+02  0.89852967158E+03  0.91844814901E+03  0.16593925923E+03 0.  0.
         24    2    5    5    0    0 -0.10794408195E+03 -0.58064803302E+02  0.56385912924E+03  0.58233000473E+03  0.78407082427E+02 0.  0.
          5    1    5    5  501    0  0.22675497935E+02  0.20851062160E+02  0.33467054234E+03  0.33611814428E+03  0.47000000000E+01 0. -1.
        -11    1    6    6    0    0 -0.11349798335E+03 -0.66322101100E+02  0.54847266894E+03  0.56400592363E+03  0.00000000000E+00 0.  1.
         12    1    6    6    0    0  0.55539013949E+01  0.82572977982E+01  0.15386460299E+02  0.18324081100E+02  0.00000000000E+00 0. -1.
         -5    1    3    3    0  503 -0.34437732855E+02  0.35865238774E+02 -0.42897532997E+02  0.65837384013E+02  0.47000000000E+01 0.  1.
         11    1    4    4    0    0  0.59686449471E+02  0.29431085334E+02  0.46174118491E+01  0.66708181856E+02  0.00000000000E+00 0. -1.
        -12    1    4    4    0    0  0.60019867403E+02 -0.28082582967E+02 -0.54286552242E+02  0.85662393753E+02  0.00000000000E+00 0.  1.
</event>
<event>
12    1  0.8196217E-002  0.1753932E+03  0.7818608E-02  0.1172631E+00
         21   -1    0    0  501  502  0.00000000000E+00  0.00000000000E+00  0.10867446181E+04  0.10867446181E+04  0.00000000000E+00 0.  1.
         21   -1    0    0  502  503 -0.00000000000E+00 -0.00000000000E+00 -0.71356672506E+02  0.71356672506E+02  0.00000000000E+00 0.  1.
         -6    2    1    2    0  503  0.27894227285E+02 -0.22156553105E+02  0.56282737578E+02  0.18309073143E+03  0.17054462356E+03 0.  0.
        -24    2    3    3    0    0  0.58500140706E+02 -0.43363276389E+02 -0.75201977319E+01  0.10906808893E+03  0.80849579141E+02 0.  0.
          6    2    1    2  501    0 -0.27894227285E+02  0.22156553105E+02  0.95910520803E+03  0.97501055919E+03  0.17173756052E+03 0.  0.
         24    2    5    5    0    0 -0.74171812662E+02 -0.54269284304E+01  0.45143555087E+03  0.46446865673E+03  0.80038535409E+02 0.  0.
          5    1    5    5  501    0  0.46277585377E+02  0.27583481535E+02  0.50766965716E+03  0.51054190245E+03  0.47000000000E+01 0. -1.
        -13    1    6    6    0    0 -0.14610542641E+02 -0.19580725205E+01  0.31754228278E+03  0.31788426095E+03  0.00000000000E+00 0.  1.
         14    1    6    6    0    0 -0.59561270021E+02 -0.34688559099E+01  0.13389326809E+03  0.14658439579E+03  0.00000000000E+00 0. -1.
         -5    1    3    3    0  503 -0.30605913421E+02  0.21206723284E+02  0.63802935310E+02  0.74022642502E+02  0.47000000000E+01 0.  1.
         13    1    4    4    0    0  0.23527054590E+02 -0.26514176351E+02  0.36155699689E+02  0.50633570536E+02  0.00000000000E+00 0. -1.
        -14    1    4    4    0    0  0.34973086117E+02 -0.16849100038E+02 -0.43675897421E+02  0.58434518396E+02  0.00000000000E+00 0.  1.
</event>
<event>
12    1  0.8196217E-002  0.1858344E+03  0.7818608E-02  0.1163008E+00
         21   -1    0    0  503  502  0.00000000000E+00  0.00000000000E+00  0.64598306729E+03  0.64598306729E+03  0.00000000000E+00 0.  1.
         21   -1    0    0  501  503 -0.00000000000E+00 -0.00000000000E+00 -0.57802688882E+02  0.57802688882E+02  0.00000000000E+00 0.  1.
          6    2    1    2  501    0 -0.18945294281E+02 -0.66924550105E+02  0.40233294208E+03  0.44317742173E+03  0.17232704739E+03 0.  0.
         24    2    3    3    0    0 -0.52023059635E+01 -0.10225514252E+03  0.18919961439E+03  0.22664791828E+03  0.71341478941E+02 0.  0.
         -6    2    1    2    0  502  0.18945294281E+02  0.66924550105E+02  0.18584743632E+03  0.26060833445E+03  0.16893671837E+03 0.  0.
        -24    2    5    5    0    0  0.66154161560E+02  0.24935313789E+02  0.15940911528E+03  0.19195814919E+03  0.80240401543E+02 0.  0.
          5    1    3    3  501    0 -0.13742988318E+02  0.35330592413E+02  0.21313332770E+03  0.21652950345E+03  0.47000000000E+01 0. -1.
        -11    1    4    4    0    0 -0.37203899234E+02 -0.58323660832E+02  0.89776105145E+02  0.11333811621E+03  0.00000000000E+00 0.  1.
         12    1    4    4    0    0  0.32001593271E+02 -0.43931481685E+02  0.99423509242E+02  0.11330980207E+03  0.00000000000E+00 0. -1.
         -5    1    5    5    0  502 -0.47208867279E+02  0.41989236316E+02  0.26438321044E+02  0.68650185257E+02  0.47000000000E+01 0.  1.
         13    1    6    6    0    0  0.71303057497E+02  0.21886872977E+02  0.69810672227E+02  0.10216012517E+03  0.00000000000E+00 0. -1.
        -14    1    6    6    0    0 -0.51488959364E+01  0.30484408111E+01  0.89598443053E+02  0.89798024022E+02  0.00000000000E+00 0.  1.
</event>
<event>
12    1  0.8196217E-002  0.1974883E+03  0.7818608E-02  0.1152077E+00
         21   -1    0    0  501  502  0.00000000000E+00  0.00000000000E+00  0.56622396613E+03  0.56622396613E+03  0.00000000000E+00 0. -1.
         21   -1    0    0  502  503 -0.00000000000E+00 -0.00000000000E+00 -0.68668783697E+02  0.68668783697E+02  0.00000000000E+00 0. -1.
         -6    2    1    2    0  503  0.41356366793E+02 -0.87589056725E+02  0.26231672516E+03  0.32834688482E+03  0.17210293589E+03 0.  0.
        -24    2    3    3    0    0  0.42152048404E+02 -0.12412259236E+03  0.16951510826E+03  0.22849918864E+03  0.79330285262E+02 0.  0.
          6    2    1    2  501    0 -0.41356366793E+02  0.87589056725E+02  0.23523845728E+03  0.30654586501E+03  0.17102936484E+03 0.  0.
         24    2    5    5    0    0 -0.44601851360E+02  0.19958920679E+02  0.21791094276E+03  0.23649801542E+03  0.77836037076E+02 0.  0.
          5    1    5    5  501    0  0.32454845670E+01  0.67630136047E+02  0.17327514522E+02  0.70047849584E+02  0.47000000000E+01 0. -1.
        -11    1    6    6    0    0  0.99971120453E+01 -0.16901707222E+02  0.95383972521E+02  0.97384352799E+02  0.00000000000E+00 0.  1.
         12    1    6    6    0    0 -0.54598963405E+02  0.36860627900E+02  0.12252697023E+03  0.13911366262E+03  0.00000000000E+00 0. -1.
         -5    1    3    3    0  503 -0.79568161183E+00  0.36533535632E+02  0.92801616899E+02  0.99847696188E+02  0.47000000000E+01 0.  1.
         13    1    4    4    0    0  0.61419516867E+02 -0.59073255540E+02  0.89169226428E+02  0.12334162928E+03  0.00000000000E+00 0. -1.
        -14    1    4    4    0    0 -0.19267468463E+02 -0.65049336818E+02  0.80345881834E+02  0.10515755935E+03  0.00000000000E+00 0.  1.
</event>
<event>
12    1  0.8196217E-002  0.1782182E+03  0.7818608E-02  0.1170310E+00
         21   -1    0    0  501  502  0.00000000000E+00  0.00000000000E+00  0.89648761428E+02  0.89648761428E+02  0.00000000000E+00 0. -1.
         21   -1    0    0  502  503 -0.00000000000E+00 -0.00000000000E+00 -0.82964187469E+03  0.82964187469E+03  0.00000000000E+00 0.  1.
         -6    2    1    2    0  503 -0.70302901316E+01 -0.51377268450E+02 -0.71879619120E+03  0.73981632474E+03  0.16724587043E+03 0.  0.
        -24    2    3    3    0    0  0.26324148472E+02 -0.27296403069E+01 -0.61357788987E+03  0.61910140755E+03  0.78155704571E+02 0.  0.
          6    2    1    2  501    0  0.70302901316E+01  0.51377268450E+02 -0.21196922062E+02  0.17947431138E+03  0.17050709735E+03 0.  0.
         24    2    5    5    0    0  0.53740747758E+02  0.36981599716E+02 -0.58084170090E+02  0.11805883127E+03  0.79425500555E+02 0.  0.
          5    1    5    5  501    0 -0.46710457626E+02  0.14395668734E+02  0.36887248028E+02  0.61415480109E+02  0.47000000000E+01 0. -1.
        -11    1    6    6    0    0  0.67254278020E+02  0.87833083326E+01 -0.24356060311E+02  0.72065956534E+02  0.00000000000E+00 0.  1.
         12    1    6    6    0    0 -0.13513530262E+02  0.28198291384E+02 -0.33728109779E+02  0.45992874735E+02  0.00000000000E+00 0. -1.
         -5    1    3    3    0  503 -0.33354438604E+02 -0.48647628143E+02 -0.10521830132E+03  0.12071491719E+03  0.47000000000E+01 0.  1.
         11    1    4    4    0    0  0.34662755161E+02  0.29545513624E+02 -0.26033779832E+03  0.26429190908E+03  0.00000000000E+00 0. -1.
        -12    1    4    4    0    0 -0.83386066886E+01 -0.32275153930E+02 -0.35324009156E+03  0.35480949847E+03  0.00000000000E+00 0.  1.
</event>
<event>
12    1  0.8196217E-002  0.2201025E+03  0.7818608E-02  0.1134299E+00
         21   -1    0    0  503  502  0.00000000000E+00  0.00000000000E+00  0.49133024691E+02  0.49133024691E+02  0.00000000000E+00 0. -1.
         21   -1    0    0  501  503 -0.00000000000E+00 -0.00000000000E+00 -0.10501780525E+04  0.10501780525E+04  0.00000000000E+00 0.  1.
          6    2    1    2  501    0 -0.20901054305E+02 -0.13232675224E+03 -0.64551363774E+03  0.68116314019E+03  0.17131299894E+03 0.  0.
         24    2    3    3    0    0 -0.67695016470E+02 -0.57104026137E+02 -0.26248654074E+03  0.28799653370E+03  0.78735851409E+02 0.  0.
         -6    2    1    2    0  502  0.20901054305E+02  0.13232675224E+03 -0.35553139009E+03  0.41814793703E+03  0.17463649239E+03 0.  0.
        -24    2    5    5    0    0  0.76044090804E+02  0.73996740758E+02 -0.26828966444E+03  0.29950412805E+03  0.80406201797E+02 0.  0.
          5    1    3    3  501    0  0.46793962165E+02 -0.75222726102E+02 -0.38302709701E+03  0.39316660649E+03  0.47000000000E+01 0. -1.
        -11    1    4    4    0    0 -0.58628619536E+02 -0.12772399808E+01 -0.16723649903E+03  0.17722018220E+03  0.00000000000E+00 0.  1.
         12    1    4    4    0    0 -0.90663969337E+01 -0.55826786156E+02 -0.95250041703E+02  0.11077635149E+03  0.00000000000E+00 0. -1.
         -5    1    5    5    0  502 -0.55143036500E+02  0.58330011481E+02 -0.87241725655E+02  0.11864380898E+03  0.47000000000E+01 0.  1.
         11    1    6    6    0    0  0.12975102013E+02 -0.10383003339E+02 -0.96995715097E+02  0.98408987282E+02  0.00000000000E+00 0. -1.
        -12    1    6    6    0    0  0.63068988791E+02  0.84379744097E+02 -0.17129394934E+03  0.20109514077E+03  0.00000000000E+00 0.  1.
</event>
<event>
12    1  0.8196217E-002  0.1730687E+03  0.7818608E-02  0.1174810E+00
         21   -1    0    0  503  502  0.00000000000E+00  0.00000000000E+00  0.20335370354E+03  0.20335370354E+03  0.00000000000E+00 0. -1.
         21   -1    0    0  501  503 -0.00000000000E+00 -0.00000000000E+00 -0.14690501683E+03  0.14690501683E+03  0.00000000000E+00 0. -1.
          6    2    1    2  501    0 -0.70211805616E+00 -0.87455127806E+01  0.30657134605E+02  0.17527882573E+03  0.17235379277E+03 0.  0.
         24    2    3    3    0    0  0.67494896303E+01  0.45810669492E+01 -0.45236835913E+02  0.97721692304E+02  0.86235816450E+02 0.  0.
         -6    2    1    2    0  502  0.70211805616E+00  0.87455127806E+01  0.25791552109E+02  0.17497989464E+03  0.17284612349E+03 0.  0.
        -24    2    5    5    0    0  0.12965666328E+01 -0.13661414528E+01 -0.52355067092E+02  0.96039518328E+02  0.80492164854E+02 0.  0.
          5    1    3    3  501    0 -0.74516076865E+01 -0.13326579730E+02  0.75893970518E+02  0.77557133427E+02  0.47000000000E+01 0. -1.
        -13    1    4    4    0    0  0.15823620490E+02  0.12710372351E+02  0.21684088566E+02  0.29700845571E+02  0.00000000000E+00 0.  1.
         14    1    4    4    0    0 -0.90741308593E+01 -0.81293054020E+01 -0.66920924479E+02  0.68020846733E+02  0.00000000000E+00 0. -1.
         -5    1    5    5    0  502 -0.59444857668E+00  0.10111654233E+02  0.78146619200E+02  0.78940376316E+02  0.47000000000E+01 0.  1.
         13    1    6    6    0    0  0.30742516624E+02  0.18216450407E+02 -0.48819394773E+02  0.60500204130E+02  0.00000000000E+00 0. -1.
        -14    1    6    6    0    0 -0.29445949991E+02 -0.19582591860E+02 -0.35356723187E+01  0.35539314197E+02  0.00000000000E+00 0.  1.
</event>
<event>
12    1  0.8196217E-002  0.1818340E+03  0.7818608E-02  0.1166166E+00
         21   -1    0    0  501  502  0.00000000000E+00  0.00000000000E+00  0.23910837975E+02  0.23910837975E+02  0.00000000000E+00 0. -1.
         21   -1    0    0  502  503 -0.00000000000E+00 -0.00000000000E+00 -0.14360976430E+04  0.14360976430E+04  0.00000000000E+00 0. -1.
         -6    2    1    2    0  503  0.45189926973E+02 -0.40343280416E+02 -0.85294339536E+03  0.87211011620E+03  0.17144652031E+03 0.  0.
        -24    2    3    3    0    0  0.89216859388E+02 -0.41054084552E+02 -0.74183826220E+03  0.75250528087E+03  0.79341695351E+02 0.  0.
          6    2    1    2  501    0 -0.45189926973E+02  0.40343280416E+02 -0.55924340962E+03  0.58789836473E+03  0.17088471631E+03 0.  0.
         24    2    5    5    0    0 -0.64133872279E+02 -0.24886492958E+02 -0.25281959167E+03  0.27400117995E+03  0.80164889946E+02 0.  0.
          5    1    5    5  501    0  0.18943945307E+02  0.65229773374E+02 -0.30642381796E+03  0.31389718478E+03  0.47000000000E+01 0. -1.
        -11    1    6    6    0    0  0.13360547339E+02 -0.13716467998E+02 -0.10494945885E+03  0.10668193208E+03  0.00000000000E+00 0.  1.
         12    1    6    6    0    0 -0.77494419618E+02 -0.11170024960E+02 -0.14787013282E+03  0.16731924788E+03  0.00000000000E+00 0. -1.
         -5    1    3    3    0  503 -0.44026932416E+02  0.71080413664E+00 -0.11110513316E+03  0.11960483533E+03  0.47000000000E+01 0.  1.
         11    1    4    4    0    0  0.47220576090E+02 -0.58063841455E+01 -0.57335315478E+03  0.57532368020E+03  0.00000000000E+00 0. -1.
        -12    1    4    4    0    0  0.41996283298E+02 -0.35247700407E+02 -0.16848510742E+03  0.17718160067E+03  0.00000000000E+00 0.  1.
</event>
<event>
12    1  0.8196217E-002  0.1782990E+03  0.7818608E-02  0.1170961E+00
         21   -1    0    0  503  502  0.00000000000E+00  0.00000000000E+00  0.35118320293E+02  0.35118320293E+02  0.00000000000E+00 0. -1.
         21   -1    0    0  501  503 -0.00000000000E+00 -0.00000000000E+00 -0.87495357170E+03  0.87495357170E+03  0.00000000000E+00 0.  1.
          6    2    1    2  501    0  0.41628202424E+02 -0.69679803915E+01 -0.41133189170E+03  0.44595372388E+03  0.16703095141E+03 0.  0.
         24    2    3    3    0    0  0.16820226413E+02  0.30078050893E+02 -0.38273610644E+03  0.39277804295E+03  0.81240720664E+02 0.  0.
         -6    2    1    2    0  502 -0.41628202424E+02  0.69679803915E+01 -0.42850335971E+03  0.46411816811E+03  0.17323130404E+03 0.  0.
        -24    2    5    5    0    0  0.41622924760E+02 -0.11979707350E+02 -0.26604364068E+03  0.28052891093E+03  0.77725606225E+02 0.  0.
          5    1    3    3  501    0  0.24807976011E+02 -0.37046031284E+02 -0.28595785263E+02  0.53175680931E+02  0.47000000000E+01 0. -1.
        -13    1    4    4    0    0  0.13823874417E+02  0.57093533737E+02 -0.21620363788E+03  0.22404192494E+03  0.00000000000E+00 0.  1.
         14    1    4    4    0    0  0.29963519959E+01 -0.27015482844E+02 -0.16653246855E+03  0.16873611801E+03  0.00000000000E+00 0. -1.
         -5    1    5    5    0  502 -0.83251127184E+02  0.18947687742E+02 -0.16245971903E+03  0.18358925719E+03  0.47000000000E+01 0.  1.
         11    1    6    6    0    0  0.84602780729E+01  0.21682071257E+02 -0.22251949560E+02  0.32199965501E+02  0.00000000000E+00 0. -1.
        -12    1    6    6    0    0  0.33162646687E+02 -0.33661778608E+02 -0.24379169113E+03  0.24832894543E+03  0.00000000000E+00 0.  1.
</event>
<event>
12    1  0.8196217E-002  0.2600338E+03  0.7818608E-02  0.1107274E+00
         21   -1    0    0  501  502  0.00000000000E+00  0.00000000000E+00  0.21929565089E+03  0.21929565089E+03  0.00000000000E+00 0.  1.
         21   -1    0    0  502  503 -0.00000000000E+00 -0.00000000000E+00 -0.36621429253E+03  0.36621429253E+03  0.00000000000E+00 0.  1.
         -6    2    1    2    0  503 -0.89525671647E+01  0.19397602787E+03 -0.19114754466E+03  0.32273048202E+03  0.17294719527E+03 0.  0.
        -24    2    3    3    0    0 -0.53380926894E+02  0.68748077908E+02 -0.46542417828E+02  0.12629053877E+03  0.78786305618E+02 0.  0.
          6    2    1    2  501    0  0.89525671647E+01 -0.19397602787E+03  0.44228903022E+02  0.26277946140E+03  0.17143512366E+03 0.  0.
         24    2    5    5    0    0 -0.18410643896E+02 -0.23963004339E+02 -0.37579821244E+01  0.83955512683E+02  0.78238278960E+02 0.  0.
          5    1    5    5  501    0  0.27363211061E+02 -0.17001302353E+03  0.47986885147E+02  0.17882394872E+03  0.47000000000E+01 0. -1.
        -13    1    6    6    0    0 -0.27220087185E+02 -0.36048190642E+02  0.24937088356E+02  0.51597127542E+02  0.00000000000E+00 0.  1.
         14    1    6    6    0    0  0.88094432891E+01  0.12085186303E+02 -0.28695070480E+02  0.32358385141E+02  0.00000000000E+00 0. -1.
         -5    1    3    3    0  503  0.44428359730E+02  0.12522794996E+03 -0.14460512684E+03  0.19643994326E+03  0.47000000000E+01 0.  1.
         13    1    4    4    0    0 -0.62488757638E+02  0.73242561749E+02 -0.56858977341E+02  0.11181350986E+03  0.00000000000E+00 0. -1.
        -14    1    4    4    0    0  0.91078307437E+01 -0.44944838408E+01  0.10316559513E+02  0.14477028909E+02  0.00000000000E+00 0.  1.
</event>
<event>
12    1  0.8196217E-002  0.1908332E+03  0.7818608E-02  0.1157873E+00
         21   -1    0    0  503  502  0.00000000000E+00  0.00000000000E+00  0.91359646979E+03  0.91359646979E+03  0.00000000000E+00 0. -1.
         21   -1    0    0  501  503 -0.00000000000E+00 -0.00000000000E+00 -0.40945429437E+02  0.40945429437E+02  0.00000000000E+00 0.  1.
          6    2    1    2  501    0 -0.72170705209E+02 -0.39738534251E+02  0.51836740715E+03  0.55213142886E+03  0.17133763203E+03 0.  0.
         24    2    3    3    0    0 -0.30594951151E+02 -0.43839914980E+02  0.49421773351E+03  0.50364780909E+03  0.80944167818E+02 0.  0.
         -6    2    1    2    0  502  0.72170705209E+02  0.39738534251E+02  0.35428363321E+03  0.40241047037E+03  0.17213230989E+03 0.  0.
        -24    2    5    5    0    0 -0.30024791158E+02  0.20208279750E+02  0.17771491210E+03  0.19741302260E+03  0.77970820528E+02 0.  0.
          5    1    3    3  501    0 -0.41575754058E+02  0.41013807284E+01  0.24149673636E+02  0.48483619771E+02  0.47000000000E+01 0. -1.
        -11    1    4    4    0    0  0.18003217855E+02  0.80801480388E+01  0.49647433328E+02  0.53425389858E+02  0.00000000000E+00 0.  1.
         12    1    4    4    0    0 -0.48598169006E+02 -0.51920063019E+02  0.44457030018E+03  0.45022241923E+03  0.00000000000E+00 0. -1.
         -5    1    5    5    0  502  0.10219549637E+03  0.19530254502E+02  0.17656872110E+03  0.20499744777E+03  0.47000000000E+01 0.  1.
         13    1    6    6    0    0  0.86126852570E+01  0.20320410080E+02  0.14533567720E+03  0.14700189278E+03  0.00000000000E+00 0. -1.
        -14    1    6    6    0    0 -0.38637476415E+02 -0.11213033078E+00  0.32379234899E+02  0.50411129818E+02  0.00000000000E+00 0.  1.
</event>
<event>
12    1  0.8196217E-002  0.1890903E+03  0.7818608E-02  0.1160674E+00
         21   -1    0    0  501  502  0.00000000000E+00  0.00000000000E+00  0.15921955347E+03  0.15921955347E+03  0.00000000000E+00 0.  1.
         21   -1    0    0  502  503 -0.00000000000E+00 -0.00000000000E+00 -0.24642772132E+03  0.24642772132E+03  0.00000000000E+00 0.  1.
         -6    2    1    2    0  503 -0.44923101706E+02 -0.60696889484E+02 -0.11374116460E+03  0.22066307851E+03  0.17335785022E+03 0.  0.
        -24    2    3    3    0    0 -0.53103806971E+02 -0.99296604541E+02 -0.53541806029E+02  0.14853184593E+03  0.80716505588E+02 0.  0.
          6    2    1    2  501    0  0.44923101706E+02  0.60696889484E+02  0.26532996749E+02  0.18498419628E+03  0.16677216643E+03 0.  0.
         24    2    5    5    0    0  0.59118141554E+02  0.21401451131E+02  0.70949320075E+02  0.12382432047E+03  0.79659773715E+02 0.  0.
          5    1    5    5  501    0 -0.14195039848E+02  0.39295438353E+02 -0.44416323326E+02  0.61159875813E+02  0.47000000000E+01 0. -1.
        -13    1    6    6    0    0 -0.16485452340E+02  0.12437572276E+02  0.32568588060E+02  0.38563924479E+02  0.00000000000E+00 0.  1.
         14    1    6    6    0    0  0.75603593894E+02  0.89638788547E+01  0.38380732015E+02  0.85260395987E+02  0.00000000000E+00 0. -1.
         -5    1    3    3    0  503  0.81807052654E+01  0.38599715058E+02 -0.60199358575E+02  0.72131232583E+02  0.47000000000E+01 0.  1.
         11    1    4    4    0    0 -0.35932316746E+01 -0.52728647710E+02  0.11905136022E+02  0.54175214507E+02  0.00000000000E+00 0. -1.
        -12    1    4    4    0    0 -0.49510575297E+02 -0.46567956831E+02 -0.65446942051E+02  0.94356631423E+02  0.00000000000E+00 0.  1.
</event>
<event>
12    1  0.8196217E-002  0.2050082E+03  0.7818608E-02  0.1145738E+00
         21   -1    0    0  501  502  0.00000000000E+00  0.00000000000E+00  0.17411000580E+03  0.17411000580E+03  0.00000000000E+00 0.  1.
         21   -1    0    0  502  503 -0.00000000000E+00 -0.00000000000E+00 -0.49552640942E+03  0.49552640942E+03  0.00000000000E+00 0.  1.
         -6    2    1    2    0  503  0.11172558239E+03  0.30131503867E+01 -0.40105734838E+03  0.45041685302E+03  0.17186232850E+03 0.  0.
        -24    2    3    3    0    0  0.37868448611E+02  0.44570081926E+02 -0.11602072663E+03  0.15301170762E+03  0.80816223983E+02 0.  0.
          6    2    1    2  501    0 -0.11172558239E+03 -0.30131503867E+01  0.79640944768E+02  0.21921956220E+03  0.17094692607E+03 0.  0.
         24    2    5    5    0    0  0.36059512689E+01 -0.18329874520E+02  0.67398827095E+01  0.81841909201E+02  0.79395748615E+02 0.  0.
          5    1    5    5  501    0 -0.11533153366E+03  0.15316724134E+02  0.72901062059E+02  0.13737765300E+03  0.47000000000E+01 0. -1.
        -11    1    6    6    0    0 -0.52976764548E+01  0.27440430996E+02  0.18796495720E+02  0.33680125897E+02  0.00000000000E+00 0.  1.
         12    1    6    6    0    0  0.89036277237E+01 -0.45770305517E+02 -0.12056613011E+02  0.48161783304E+02  0.00000000000E+00 0. -1.
         -5    1    3    3    0  503  0.73857133778E+02 -0.41556931539E+02 -0.28503662175E+03  0.29740514540E+03  0.47000000000E+01 0.  1.
         11    1    4    4    0    0  0.48331708472E+02  0.55932142812E+02 -0.11601719287E+03  0.13756579402E+03  0.00000000000E+00 0. -1.
        -12    1    4    4    0    0 -0.10463259861E+02 -0.11362060887E+02 -0.35337605083E-02  0.15445913602E+02  0.00000000000E+00 0.  1.
</event>
<event>
12    1  0.8196217E-002  0.2133424E+03  0.7818608E-02  0.1139518E+00
         21   -1    0    0  501  502  0.00000000000E+00  0.00000000000E+00  0.12455889467E+03  0.12455889467E+03  0.00000000000E+00 0.  1.
         21   -1    0    0  502  503 -0.00000000000E+00 -0.00000000000E+00 -0.38628317145E+03  0.38628317145E+03  0.00000000000E+00 0.  1.
         -6    2    1    2    0  503 -0.11871014916E+03  0.23329582682E+02 -0.19779681962E+03  0.29092706770E+03  0.17572310015E+03 0.  0.
        -24    2    3    3    0    0 -0.15427743860E+03  0.26760951804E+02 -0.14958223375E+03  0.23073119855E+03  0.79651520548E+02 0.  0.
          6    2    1    2  501    0  0.11871014916E+03 -0.23329582682E+02 -0.63927457162E+02  0.21991499841E+03  0.17216131333E+03 0.  0.
         24    2    5    5    0    0  0.11328769631E+02  0.33683769965E+02 -0.11592607637E+02  0.87467614428E+02  0.79077541954E+02 0.  0.
          5    1    5    5  501    0  0.10738137953E+03 -0.57013352647E+02 -0.52334849525E+02  0.13244738399E+03  0.47000000000E+01 0. -1.
        -13    1    6    6    0    0  0.27289326980E+02 -0.15351954547E+01  0.22895635680E+02  0.35654934095E+02  0.00000000000E+00 0.  1.
         14    1    6    6    0    0 -0.15960557350E+02  0.35218965420E+02 -0.34488243317E+02  0.51812680333E+02  0.00000000000E+00 0. -1.
         -5    1    3    3    0  503  0.35567289442E+02 -0.34313691219E+01 -0.48214585868E+02  0.60195869150E+02  0.47000000000E+01 0.  1.
         13    1    4    4    0    0 -0.42394973115E+02 -0.28180304450E+02 -0.47372239175E+02  0.69538423543E+02  0.00000000000E+00 0. -1.
        -14    1    4    4    0    0 -0.11188246549E+03  0.54941256254E+02 -0.10220999457E+03  0.16119277500E+03  0.00000000000E+00 0.  1.
</event>
<event>
12    1  0.8196217E-002  0.2098361E+03  0.7818608E-02  0.1141708E+00
         21   -1    0    0  503  502  0.00000000000E+00  0.00000000000E+00  0.47579579705E+03  0.47579579705E+03  0.00000000000E+00 0. -1.
         21   -1    0    0  501  503 -0.00000000000E+00 -0.00000000000E+00 -0.13252362760E+03  0.13252362760E+03  0.00000000000E+00 0. -1.
          6    2    1    2  501    0  0.11337701699E+03  0.35517510191E+02  0.33877160769E+03  0.39849390165E+03  0.17296053298E+03 0.  0.
         24    2    3    3    0    0  0.46297999616E+02  0.61658192543E+02  0.10002608764E+03  0.14908571576E+03  0.79221808614E+02 0.  0.
         -6    2    1    2    0  502 -0.11337701699E+03 -0.35517510191E+02  0.45005617623E+01  0.20982552299E+03  0.17288913653E+03 0.  0.
        -24    2    5    5    0    0 -0.49546403796E+02  0.31765188666E+01  0.64532802657E+02  0.11392174303E+03  0.79679009244E+02 0.  0.
          5    1    3    3  501    0  0.67079017371E+02 -0.26140682353E+02  0.23874552005E+03  0.24940818589E+03  0.47000000000E+01 0. -1.
        -11    1    4    4    0    0 -0.13374285847E+02 -0.36693905595E+01 -0.20292826420E+01  0.14016202661E+02  0.00000000000E+00 0.  1.
         12    1    4    4    0    0  0.59672285463E+02  0.65327583103E+02  0.10205537028E+03  0.13506951310E+03  0.00000000000E+00 0. -1.
         -5    1    5    5    0  502 -0.63830613191E+02 -0.38694029057E+02 -0.60032240894E+02  0.95903779966E+02  0.47000000000E+01 0.  1.
         11    1    6    6    0    0 -0.97044148987E+01 -0.19423272460E+02 -0.11940796563E+02  0.24779463355E+02  0.00000000000E+00 0. -1.
        -12    1    6    6    0    0 -0.39841988897E+02  0.22599791327E+02  0.76473599219E+02  0.89142279671E+02  0.00000000000E+00 0.  1.
</event>
<event>
12    1  0.8196217E-002  0.3300508E+03  0.7818608E-02  0.1072037E+00
         21   -1    0    0  501  502  0.00000000000E+00  0.00000000000E+00  0.18865132669E+03  0.18865132669E+03  0.00000000000E+00 0. -1.
         21   -1    0    0  502  503 -0.00000000000E+00 -0.00000000000E+00 -0.68564186348E+03  0.68564186348E+03  0.00000000000E+00 0. -1.
         -6    2    1    2    0  503  0.15818828320E+03 -0.22104899384E+03 -0.43585432999E+03  0.54671978596E+03  0.18720933944E+03 0.  0.
        -24    2    3    3    0    0  0.17963656357E+03 -0.16107568770E+03 -0.27915452402E+03  0.37750469984E+03  0.79798984844E+02 0.  0.
          6    2    1    2  501    0 -0.15818828320E+03  0.22104899384E+03 -0.61136206800E+02  0.32757340421E+03  0.17228032024E+03 0.  0.
         24    2    5    5    0    0 -0.50354930992E+02  0.42425892399E+02  0.15910808312E+02  0.10510413272E+03  0.80362612405E+02 0.  0.
          5    1    5    5  501    0 -0.10783335221E+03  0.17862310144E+03 -0.77047015111E+02  0.22246927149E+03  0.47000000000E+01 0. -1.
        -13    1    6    6    0    0 -0.28142443907E+02 -0.15407051301E+02 -0.15513980268E+02  0.35637872588E+02  0.00000000000E+00 0.  1.
         14    1    6    6    0    0 -0.22212487085E+02  0.57832943699E+02  0.31424788579E+02  0.69466260132E+02  0.00000000000E+00 0. -1.
         -5    1    3    3    0  503 -0.21448280372E+02 -0.59973306146E+02 -0.15669980597E+03  0.16921508612E+03  0.47000000000E+01 0.  1.
         13    1    4    4    0    0  0.20016899711E+02 -0.63304419631E+02 -0.84337208487E+02  0.10733541146E+03  0.00000000000E+00 0. -1.
        -14    1    4    4    0    0  0.15961966386E+03 -0.97771268066E+02 -0.19481731553E+03  0.27016928838E+03  0.00000000000E+00 0.  1.
</event>
<event>
12    1  0.8196217E-002  0.2618297E+03  0.7818608E-02  0.1106064E+00
         21   -1    0    0  501  502  0.00000000000E+00  0.00000000000E+00  0.12416771219E+03  0.12416771219E+03  0.00000000000E+00 0. -1.
         21   -1    0    0  502  503 -0.00000000000E+00 -0.00000000000E+00 -0.14785686060E+04  0.14785686060E+04  0.00000000000E+00 0.  1.
         -6    2    1    2    0  503  0.18865942280E+03 -0.57640768940E+02 -0.13116607995E+04  0.13375383547E+04  0.17216260111E+03 0.  0.
        -24    2    3    3    0    0  0.11844524790E+03  0.23968768580E+02 -0.56983803674E+03  0.58792962452E+03  0.79637156247E+02 0.  0.
          6    2    1    2  501    0 -0.18865942280E+03  0.57640768940E+02 -0.42740094294E+02  0.26519796350E+03  0.17201281384E+03 0.  0.
         24    2    5    5    0    0 -0.17232452066E+03 -0.99522771102E+01 -0.42694358229E+02  0.19550046717E+03  0.81257837770E+02 0.  0.
          5    1    5    5  501    0 -0.16334902142E+02  0.67593046050E+02 -0.45736064933E-01  0.69697496326E+02  0.47000000000E+01 0. -1.
        -11    1    6    6    0    0  0.49258852066E+01  0.10838420596E+02  0.37597603679E+00  0.11911215893E+02  0.00000000000E+00 0.  1.
         12    1    6    6    0    0 -0.17725040587E+03 -0.20790697706E+02 -0.43070334266E+02  0.18358925128E+03  0.00000000000E+00 0. -1.
         -5    1    3    3    0  503  0.70214174898E+02 -0.81609537520E+02 -0.74182276280E+03  0.74960873019E+03  0.47000000000E+01 0.  1.
         13    1    4    4    0    0  0.14411066557E+01  0.86571621891E+01 -0.18958341902E+03  0.18978644844E+03  0.00000000000E+00 0. -1.
        -14    1    4    4    0    0  0.11700414125E+03  0.15311606391E+02 -0.38025461773E+03  0.39814317609E+03  0.00000000000E+00 0.  1.
</event>
<event>
12    1  0.8196217E-002  0.2104234E+03  0.7818608E-02  0.1141926E+00
         21   -1    0    0  503  502  0.00000000000E+00  0.00000000000E+00  0.85624641523E+02  0.85624641523E+02  0.00000000000E+00 0.  1.
         21   -1    0    0  501  503 -0.00000000000E+00 -0.00000000000E+00 -0.53439677309E+03  0.53439677309E+03  0.00000000000E+00 0.  1.
          6    2    1    2  501    0  0.78221210895E+02 -0.94988824069E+02 -0.29431349576E+03  0.36179888029E+03  0.17069435099E+03 0.  0.
         24    2    3    3    0    0  0.77325466344E+02 -0.90608071898E+02 -0.31162959974E+03  0.34330750919E+03  0.80981405217E+02 0.  0.
         -6    2    1    2    0  502 -0.78221210895E+02  0.94988824069E+02 -0.15445863581E+03  0.25822253432E+03  0.16637299217E+03 0.  0.
        -24    2    5    5    0    0 -0.50618174859E+00  0.96178231852E+02 -0.12047749078E+03  0.17326461142E+03  0.79090399450E+02 0.  0.
          5    1    3    3  501    0  0.89574455094E+00 -0.43807521713E+01  0.17316103986E+02  0.18491371099E+02  0.47000000000E+01 0. -1.
        -11    1    4    4    0    0  0.61987851636E+02 -0.70997709140E+02 -0.13333511383E+03  0.16328325399E+03  0.00000000000E+00 0.  1.
         12    1    4    4    0    0  0.15337614708E+02 -0.19610362758E+02 -0.17829448592E+03  0.18002425520E+03  0.00000000000E+00 0. -1.
         -5    1    5    5    0  502 -0.77715029146E+02 -0.11894077827E+01 -0.33981145033E+02  0.84957922902E+02  0.47000000000E+01 0.  1.
         13    1    6    6    0    0 -0.12788174844E+02  0.13015613803E+02  0.78421392974E+01  0.19860583256E+02  0.00000000000E+00 0. -1.
        -14    1    6    6    0    0  0.12281993095E+02  0.83162618049E+02 -0.12831963008E+03  0.15340402817E+03  0.00000000000E+00 0.  1.
</event>
<event>
12    1  0.8196217E-002  0.1825108E+03  0.7818608E-02  0.1165918E+00
         21   -1    0    0  501  502  0.00000000000E+00  0.00000000000E+00  0.59976895266E+03  0.59976895266E+03  0.00000000000E+00 0. -1.
         21   -1    0    0  502  503 -0.00000000000E+00 -0.00000000000E+00 -0.60277105178E+02  0.60277105178E+02  0.00000000000E+00 0. -1.
         -6    2    1    2    0  503  0.48352708497E+02  0.35567621484E+02  0.37002472134E+03  0.41258756681E+03  0.17235766814E+03 0.  0.
        -24    2    3    3    0    0  0.29999005694E+01  0.21967032057E+02  0.68830620324E+02  0.10765834599E+03  0.79756600149E+02 0.  0.
          6    2    1    2  501    0 -0.48352708497E+02 -0.35567621484E+02  0.16946712614E+03  0.24745849103E+03  0.17003987127E+03 0.  0.
         24    2    5    5    0    0  0.57158826666E+01  0.13153943203E+02  0.15167967732E+03  0.17238727983E+03  0.80653283860E+02 0.  0.
          5    1    5    5  501    0 -0.54068591163E+02 -0.48721564688E+02  0.17787448823E+02  0.75071211204E+02  0.47000000000E+01 0. -1.
        -13    1    6    6    0    0  0.26710963292E+02 -0.24648375093E+02  0.49292770308E+02  0.61243735674E+02  0.00000000000E+00 0.  1.
         14    1    6    6    0    0 -0.20995080626E+02  0.37802318296E+02  0.10238690701E+03  0.11114354415E+03  0.00000000000E+00 0. -1.
         -5    1    3    3    0  503  0.45352807927E+02  0.13600589428E+02  0.30119410101E+03  0.30492922081E+03  0.47000000000E+01 0.  1.
         11    1    4    4    0    0  0.76743496032E+01  0.41365890345E+02  0.69523816600E+01  0.42642327993E+02  0.00000000000E+00 0. -1.
        -12    1    4    4    0    0 -0.46744490338E+01 -0.19398858288E+02  0.61878238664E+02  0.65016018002E+02  0.00000000000E+00 0.  1.
</event>
<event>
12    1  0.8196217E-002  0.2345079E+03  0.7818608E-02  0.1123876E+00
         21   -1    0    0  503  502  0.00000000000E+00  0.00000000000E+00  0.42546365584E+02  0.42546365584E+02  0.00000000000E+00 0. -1.
         21   -1    0    0  501  503 -0.00000000000E+00 -0.00000000000E+00 -0.15115842208E+04  0.15115842208E+04  0.00000000000E+00 0. -1.
          6    2    1    2  501    0  0.10701124383E+03  0.11379455627E+03 -0.10352997124E+04  0.10610558321E+04  0.17202725623E+03 0.  0.
         24    2    3    3    0    0  0.12489747113E+03  0.13651784231E+03 -0.87594766059E+03  0.89903289765E+03  0.82093528342E+02 0.  0.
         -6    2    1    2    0  502 -0.10701124383E+03 -0.11379455627E+03 -0.43373814275E+03  0.49307475427E+03  0.17490948939E+03 0.  0.
        -24    2    5    5    0    0 -0.13649846581E+03 -0.66255827423E+02 -0.37218819797E+03  0.40976861583E+03  0.79778430480E+02 0.  0.
          5    1    3    3  501    0 -0.17886227297E+02 -0.22723286045E+02 -0.15935205185E+03  0.16202293444E+03  0.47000000000E+01 0. -1.
        -11    1    4    4    0    0  0.18034658486E+02  0.74960180927E+02 -0.40032937144E+03  0.40768601064E+03  0.00000000000E+00 0.  1.
         12    1    4    4    0    0  0.10686281265E+03  0.61557661387E+02 -0.47561828915E+03  0.49134688701E+03  0.00000000000E+00 0. -1.
         -5    1    5    5    0  502  0.29487221980E+02 -0.47538728846E+02 -0.61549944783E+02  0.83306138448E+02  0.47000000000E+01 0.  1.
         13    1    6    6    0    0 -0.59896032947E+02 -0.66725514660E+01 -0.22895943794E+03  0.23675827742E+03  0.00000000000E+00 0. -1.
        -14    1    6    6    0    0 -0.76602432868E+02 -0.59583275957E+02 -0.14322876004E+03  0.17301033841E+03  0.00000000000E+00 0.  1.
</event>
<event>
12    1  0.8196217E-002  0.1974173E+03  0.7818608E-02  0.1153435E+00
         21   -1    0    0  503  502  0.00000000000E+00  0.00000000000E+00  0.10109830455E+04  0.10109830455E+04  0.00000000000E+00 0. -1.
         21   -1    0    0  501  503 -0.00000000000E+00 -0.00000000000E+00 -0.71013996895E+02  0.71013996895E+02  0.00000000000E+00 0.  1.
          6    2    1    2  501    0 -0.21218164134E+02  0.93072719102E+02  0.92477337879E+02  0.21181557516E+03  0.16492737289E+03 0.  0.
         24    2    3    3    0    0  0.23511580986E+02 -0.39440356799E+01  0.13538092703E+02  0.78900206463E+02  0.73983868296E+02 0.  0.
         -6    2    1    2    0  502  0.21218164134E+02 -0.93072719102E+02  0.84749171068E+03  0.87018146719E+03  0.17280290691E+03 0.  0.
        -24    2    5    5    0    0  0.55930056338E+02 -0.14155503990E+02  0.32570299438E+03  0.34129736196E+03  0.84100530559E+02 0.  0.
          5    1    3    3  501    0 -0.44729745119E+02  0.97016754782E+02  0.78939245176E+02  0.13291536870E+03  0.47000000000E+01 0. -1.
        -13    1    4    4    0    0  0.10691431935E+01 -0.36516939602E+02 -0.15477375548E+01  0.36565358423E+02  0.00000000000E+00 0.  1.
         14    1    4    4    0    0  0.22442437792E+02  0.32572903922E+02  0.15085830258E+02  0.42334848040E+02  0.00000000000E+00 0. -1.
         -5    1    5    5    0  502 -0.34711892204E+02 -0.78917215112E+02  0.52178871631E+03  0.52888410523E+03  0.47000000000E+01 0.  1.
         13    1    6    6    0    0  0.67515334965E+01 -0.21179665377E+01  0.25072985965E+03  0.25082968626E+03  0.00000000000E+00 0. -1.
        -14    1    6    6    0    0  0.49178522841E+02 -0.12037537452E+02  0.74973134726E+02  0.90467675704E+02  0.00000000000E+00 0.  1.
</event>
<event>
12    1  0.8196217E-002  0.1883776E+03  0.7818608E-02  0.1160157E+00
         21   -1    0    0  503  502  0.00000000000E+00  0.00000000000E+00  0.41257540629E+02  0.41257540629E+02  0.00000000000E+00 0.  1.
         21   -1    0    0  501  503 -0.00000000000E+00 -0.00000000000E+00 -0.11733623186E+04  0.11733623186E+04  0.00000000000E+00 0.  1.
          6    2    1    2  501    0 -0.79293410738E+02 -0.53680861154E+01 -0.88314805509E+03  0.90301529638E+03  0.17079191127E+03 0.  0.
         24    2    3    3    0    0  0.10642350543E+01  0.31419012667E+02 -0.59162329234E+03  0.59835250054E+03  0.83781310028E+02 0.  0.
         -6    2    1    2    0  502  0.79293410738E+02  0.53680861154E+01 -0.24895672293E+03  0.31160456289E+03  0.16971061366E+03 0.  0.
        -24    2    5    5    0    0  0.26842961129E+02 -0.89641564560E+01 -0.24277086128E+03  0.25667899757E+03  0.78393341847E+02 0.  0.
          5    1    3    3  501    0 -0.80357645792E+02 -0.36787098782E+02 -0.29152476275E+03  0.30466279585E+03  0.47000000000E+01 0. -1.
        -11    1    4    4    0    0 -0.17482203879E+02 -0.18711633928E+02 -0.34768569389E+03  0.34862744360E+03  0.00000000000E+00 0.  1.
         12    1    4    4    0    0  0.18546438933E+02  0.50130646595E+02 -0.24393759844E+03  0.24972505693E+03  0.00000000000E+00 0. -1.
         -5    1    5    5    0  502  0.52450449609E+02  0.14332242571E+02 -0.61858616490E+01  0.54925565319E+02  0.47000000000E+01 0.  1.
         13    1    6    6    0    0  0.35588565748E+02 -0.32045874177E+02 -0.90206026815E+02  0.10213036442E+03  0.00000000000E+00 0. -1.
        -14    1    6    6    0    0 -0.87456046184E+01  0.23081717721E+02 -0.15256483446E+03  0.15454863315E+03  0.00000000000E+00 0.  1.
</event>
<event>
12    1  0.8196217E-002  0.2429871E+03  0.7818608E-02  0.1117969E+00
         21   -1    0    0  501  502  0.00000000000E+00  0.00000000000E+00  0.18412289760E+03  0.18412289760E+03  0.00000000000E+00 0.  1.
         21   -1    0    0  502  503 -0.00000000000E+00 -0.00000000000E+00 -0.13015911588E+04  0.13015911588E+04  0.00000000000E+00 0.  1.
         -6    2    1    2    0  503 -0.15383667707E+03  0.75110510762E+02 -0.12037606890E+04  0.12278591834E+04  0.17114632902E+03 0.  0.
        -24    2    3    3    0    0 -0.62461104430E+01  0.71898075531E+01 -0.29394009586E+03  0.30363421138E+03  0.75513224914E+02 0.  0.
          6    2    1    2  501    0  0.15383667707E+03 -0.75110510762E+02  0.86292427729E+02  0.25785487303E+03  0.17243967183E+03 0.  0.
         24    2    5    5    0    0  0.15124544166E+03 -0.23579805541E+02  0.10536165425E+03  0.20264750502E+03  0.80831567179E+02 0.  0.
          5    1    5    5  501    0  0.25912354066E+01 -0.51530705221E+02 -0.19069226523E+02  0.55207368002E+02  0.47000000000E+01 0. -1.
        -13    1    6    6    0    0  0.32712344340E+02 -0.27041731165E+02  0.64519221053E+02  0.77227472974E+02  0.00000000000E+00 0.  1.
         14    1    6    6    0    0  0.11853309732E+03  0.34619256242E+01  0.40842433199E+02  0.12542003205E+03  0.00000000000E+00 0. -1.
         -5    1    3    3    0  503 -0.14759056663E+03  0.67920703209E+02 -0.90982059310E+03  0.92422497203E+03  0.47000000000E+01 0.  1.
         13    1    4    4    0    0 -0.13233800881E+02 -0.68741480994E+01 -0.73705289048E+01  0.16634665436E+02  0.00000000000E+00 0. -1.
        -14    1    4    4    0    0  0.69876904376E+01  0.14063955652E+02 -0.28656956695E+03  0.28699954594E+03  0.00000000000E+00 0.  1.
</event>
<event>
12    1  0.8196217E-002  0.1864846E+03  0.7818608E-02  0.1161872E+00
         21   -1    0    0  501  502  0.00000000000E+00  0.00000000000E+00  0.36111370776E+03  0.36111370776E+03  0.00000000000E+00 0. -1.
         21   -1    0    0  502  503 -0.00000000000E+00 -0.00000000000E+00 -0.11523948593E+03  0.11523948593E+03  0.00000000000E+00 0.  1.
         -6    2    1    2    0  503 -0.54581188762E+02  0.46533439392E+02  0.22085621759E+03  0.28905702331E+03  0.17213955596E+03 0.  0.
        -24    2    3    3    0    0 -0.64950239900E+02 -0.13069979173E+01  0.21705679653E+03  0.23973410506E+03  0.78348875591E+02 0.  0.
          6    2    1    2  501    0  0.54581188762E+02 -0.46533439392E+02  0.25018004241E+02  0.18729617039E+03  0.17120013948E+03 0.  0.
         24    2    5    5    0    0  0.43093349020E+02 -0.94959771652E+02  0.37510744873E+01  0.13296889897E+03  0.82415184112E+02 0.  0.
          5    1    5    5  501    0  0.11487839742E+02  0.48426332260E+02  0.21266929754E+02  0.54327271414E+02  0.47000000000E+01 0. -1.
        -11    1    6    6    0    0 -0.12370853915E+02  0.80324281149E+01 -0.52246109120E+01  0.15647826916E+02  0.00000000000E+00 0.  1.
         12    1    6    6    0    0  0.55464202935E+02 -0.10299219977E+03  0.89756853993E+01  0.11732107206E+03  0.00000000000E+00 0. -1.
         -5    1    3    3    0  503  0.10369051138E+02  0.47840437310E+02  0.37994210685E+01  0.49322918242E+02  0.47000000000E+01 0.  1.
         13    1    4    4    0    0  0.17796647459E+02 -0.14300403887E+01  0.26128074710E+02  0.31645567846E+02  0.00000000000E+00 0. -1.
        -14    1    4    4    0    0 -0.82746887359E+02  0.12304247138E+00  0.19092872182E+03  0.20808853722E+03  0.00000000000E+00 0.  1.
</event>
<event>
12    1  0.8196217E-002  0.1747429E+03  0.7818608E-02  0.1174133E+00
         21   -1    0    0  503  502  0.00000000000E+00  0.00000000000E+00  0.37176456628E+02  0.37176456628E+02  0.00000000000E+00 0. -1.
         21   -1    0    0  501  503 -0.00000000000E+00 -0.00000000000E+00 -0.10256895769E+04  0.10256895769E+04  0.00000000000E+00 0. -1.
          6    2    1    2  501    0  0.27462298228E+02 -0.13583706376E+02 -0.74830457991E+03  0.76843661410E+03  0.17203601562E+03 0.  0.
         24    2    3    3    0    0 -0.16759799439E+02 -0.29094998598E+02 -0.18099874151E+03  0.19917902882E+03  0.76054791269E+02 0.  0.
         -6    2    1    2    0  502 -0.27462298228E+02  0.13583706376E+02 -0.24020854033E+03  0.29442941940E+03  0.16748088027E+03 0.  0.
        -24    2    5    5    0    0 -0.12254457857E+02 -0.56065949933E+02 -0.14466142624E+03  0.17512437322E+03  0.80299784397E+02 0.  0.
          5    1    3    3  501    0  0.44222097668E+02  0.15511292222E+02 -0.56730583841E+03  0.56925758528E+03  0.47000000000E+01 0. -1.
        -13    1    4    4    0    0 -0.17122289806E+02  0.19023502672E+02 -0.11308788365E+03  0.11594798786E+03  0.00000000000E+00 0.  1.
         14    1    4    4    0    0  0.36249036637E+00 -0.48118501269E+02 -0.67910857859E+02  0.83231040957E+02  0.00000000000E+00 0. -1.
         -5    1    5    5    0  502 -0.15207840371E+02  0.69649656308E+02 -0.95547114089E+02  0.11930504618E+03  0.47000000000E+01 0.  1.
         11    1    6    6    0    0 -0.38852074063E+01 -0.39560949984E+02 -0.12495177538E+02  0.41668850019E+02  0.00000000000E+00 0. -1.
        -12    1    6    6    0    0 -0.83692504506E+01 -0.16504999949E+02 -0.13216624870E+03  0.13345552320E+03  0.00000000000E+00 0.  1.
</event>
<event>
12    1  0.8196217E-002  0.2158430E+03  0.7818608E-02  0.1137717E+00
         21   -1    0    0  503  502  0.00000000000E+00  0.00000000000E+00  0.32384370050E+03  0.32384370050E+03  0.00000000000E+00 0. -1.
         21   -1    0    0  501  503 -0.00000000000E+00 -0.00000000000E+00 -0.49993751209E+03  0.49993751209E+03  0.00000000000E+00 0. -1.
          6    2    1    2  501    0 -0.11180565011E+03 -0.53891541310E+02 -0.43703415369E+03  0.48742903517E+03  0.17658825334E+03 0.  0.
         24    2    3    3    0    0 -0.28605474493E+02 -0.90638672775E+02 -0.26934032674E+03  0.29659945022E+03  0.79958614872E+02 0.  0.
         -6    2    1    2    0  502  0.11180565011E+03  0.53891541310E+02  0.26094034211E+03  0.33635217742E+03  0.17215726384E+03 0.  0.
        -24    2    5    5    0    0  0.13854332782E+03  0.13250275881E+02  0.20973234035E+03  0.26556400532E+03  0.84656735356E+02 0.  0.
          5    1    3    3  501    0 -0.83200175619E+02  0.36747131465E+02 -0.16769382696E+03  0.19082958495E+03  0.47000000000E+01 0. -1.
        -13    1    4    4    0    0  0.19910719438E+02 -0.33452685070E+02 -0.15534036993E+03  0.16014415199E+03  0.00000000000E+00 0.  1.
         14    1    4    4    0    0 -0.48516193932E+02 -0.57185987705E+02 -0.11399995680E+03  0.13645529823E+03  0.00000000000E+00 0. -1.
         -5    1    5    5    0  502 -0.26737677705E+02  0.40641265429E+02  0.51208001760E+02  0.70788172098E+02  0.47000000000E+01 0.  1.
         13    1    6    6    0    0  0.46694893299E+02  0.43006365838E+02  0.10825480444E+03  0.12549527181E+03  0.00000000000E+00 0. -1.
        -14    1    6    6    0    0  0.91848434518E+02 -0.29756089957E+02  0.10147753591E+03  0.14006873351E+03  0.00000000000E+00 0.  1.
</event>
<event>
12    1  0.8196217E-002  0.2992449E+03  0.7818608E-02  0.1085928E+00
         21   -1    0    0  503  502  0.00000000000E+00  0.00000000000E+00  0.33207921889E+03  0.33207921889E+03  0.00000000000E+00 0. -1.
         21   -1    0    0  501  503 -0.00000000000E+00 -0.00000000000E+00 -0.31026111910E+03  0.31026111910E+03  0.00000000000E+00 0. -1.
          6    2    1    2  501    0  0.22005844657E+03 -0.10508680251E+03 -0.10843744226E+03  0.31597545672E+03  0.16915334581E+03 0.  0.
         24    2    3    3    0    0  0.19019127978E+03 -0.10137699465E+03 -0.29583963963E+02  0.23144279223E+03  0.78997070862E+02 0.  0.
         -6    2    1    2    0  502 -0.22005844657E+03  0.10508680251E+03  0.13025554206E+03  0.32636488126E+03  0.17343175464E+03 0.  0.
        -24    2    5    5    0    0 -0.18455544267E+03  0.12503016415E+03  0.57878870567E+02  0.24318631710E+03  0.78079240546E+02 0.  0.
          5    1    3    3  501    0  0.29867166788E+02 -0.37098078668E+01 -0.78853478299E+02  0.84532664492E+02  0.47000000000E+01 0. -1.
        -11    1    4    4    0    0  0.10713732980E+03 -0.29894242302E+02  0.16723688443E+02  0.11248002006E+03  0.00000000000E+00 0.  1.
         12    1    4    4    0    0  0.83053949984E+02 -0.71482752343E+02 -0.46307652405E+02  0.11896277217E+03  0.00000000000E+00 0. -1.
         -5    1    5    5    0  502 -0.35503003901E+02 -0.19943361637E+02  0.72376671489E+02  0.83178564157E+02  0.47000000000E+01 0.  1.
         11    1    6    6    0    0 -0.12763581997E+03  0.40107757544E+02  0.28154823325E+02  0.13671952615E+03  0.00000000000E+00 0. -1.
        -12    1    6    6    0    0 -0.56919622695E+02  0.84922406605E+02  0.29724047241E+02  0.10646679095E+03  0.00000000000E+00 0.  1.
</event>
<event>
12    1  0.8196217E-002  0.2307036E+03  0.7818608E-02  0.1126948E+00
         21   -1    0    0  501  502  0.00000000000E+00  0.00000000000E+00  0.18867218401E+03  0.18867218401E+03  0.00000000000E+00 0.  1.
         21   -1    0    0  502  503 -0.00000000000E+00 -0.00000000000E+00 -0.33316584120E+03  0.33316584120E+03  0.00000000000E+00 0. -1.
         -6    2    1    2    0  503  0.11755737004E+03  0.90595945861E+02 -0.18036435908E+03  0.29284029739E+03  0.17662609402E+03 0.  0.
        -24    2    3    3    0    0  0.54684598580E+02  0.80091022833E+02 -0.18970890274E+03  0.22824347629E+03  0.81857433575E+02 0.  0.
          6    2    1    2  501    0 -0.11755737004E+03 -0.90595945861E+02  0.35870701890E+02  0.22899772782E+03  0.17066309336E+03 0.  0.
         24    2    5    5    0    0 -0.88808125423E+02 -0.11951932376E+03  0.62332830576E+02  0.18015701622E+03  0.79996355114E+02 0.  0.
          5    1    5    5  501    0 -0.28749244619E+02  0.28923377897E+02 -0.26462128687E+02  0.48840711602E+02  0.47000000000E+01 0. -1.
        -11    1    6    6    0    0 -0.45362916057E+02 -0.54436920131E+02  0.72346597088E+02  0.10126797389E+03  0.00000000000E+00 0.  1.
         12    1    6    6    0    0 -0.43445209366E+02 -0.65082403626E+02 -0.10013766511E+02  0.78889042321E+02  0.00000000000E+00 0. -1.
         -5    1    3    3    0  503  0.62872771462E+02  0.10504923027E+02  0.93445436569E+01  0.64596821093E+02  0.47000000000E+01 0.  1.
         11    1    4    4    0    0  0.12419627935E+02  0.78647311786E+02 -0.91355357261E+02  0.12118353069E+03  0.00000000000E+00 0. -1.
        -12    1    4    4    0    0  0.42264970645E+02  0.14437110471E+01 -0.98353545480E+02  0.10705994561E+03  0.00000000000E+00 0.  1.
</event>
<event>
12    1  0.8196217E-002  0.2084524E+03  0.7818608E-02  0.1142945E+00
         21   -1    0    0  503  502  0.00000000000E+00  0.00000000000E+00  0.24210879646E+02  0.24210879646E+02  0.00000000000E+00 0. -1.
         21   -1    0    0  501  503 -0.00000000000E+00 -0.00000000000E+00 -0.17996419111E+04  0.17996419111E+04  0.00000000000E+00 0. -1.
          6    2    1    2  501    0 -0.73467296352E+02  0.90239022369E+02 -0.81728196327E+03  0.84344663097E+03  0.17295053344E+03 0.  0.
         24    2    3    3    0    0 -0.75626174728E+02  0.10911797611E+03 -0.80618315000E+03  0.82094442428E+03  0.79952644728E+02 0.  0.
         -6    2    1    2    0  502  0.73467296352E+02 -0.90239022369E+02 -0.95814906818E+03  0.98040615977E+03  0.17206416382E+03 0.  0.
        -24    2    5    5    0    0  0.47449817848E+02 -0.74678545842E+02 -0.93374103032E+03  0.94120309956E+03  0.78502181510E+02 0.  0.
          5    1    3    3  501    0  0.21588783760E+01 -0.18878953738E+02 -0.11098813276E+02  0.22502206697E+02  0.47000000000E+01 0. -1.
        -11    1    4    4    0    0 -0.80174263656E+02  0.47746744837E+02 -0.46956659832E+03  0.47874884276E+03  0.00000000000E+00 0.  1.
         12    1    4    4    0    0  0.45480889276E+01  0.61371231270E+02 -0.33661655168E+03  0.34219558151E+03  0.00000000000E+00 0. -1.
         -5    1    5    5    0  502  0.26017478504E+02 -0.15560476527E+02 -0.24408037860E+02  0.39203060207E+02  0.47000000000E+01 0.  1.
         13    1    6    6    0    0  0.32192074229E+02  0.17877301625E+01 -0.45621895658E+03  0.45735682127E+03  0.00000000000E+00 0. -1.
        -14    1    6    6    0    0  0.15257743620E+02 -0.76466276004E+02 -0.47752207374E+03  0.48384627829E+03  0.00000000000E+00 0.  1.
</event>
<event>
12    1  0.8196217E-002  0.2282288E+03  0.7818608E-02  0.1128014E+00
         21   -1    0    0  501  502  0.00000000000E+00  0.00000000000E+00  0.67976016339E+03  0.67976016339E+03  0.00000000000E+00 0.  1.
         21   -1    0    0  502  503 -0.00000000000E+00 -0.00000000000E+00 -0.77001734060E+02  0.77001734060E+02  0.00000000000E+00 0. -1.
         -6    2    1    2    0  503 -0.10736193429E+03 -0.10270704348E+03  0.33531374533E+03  0.40561520344E+03  0.17324278842E+03 0.  0.
        -24    2    3    3    0    0 -0.99195816576E+02 -0.46656505946E+01  0.15935418340E+03  0.20396536428E+03  0.79665147581E+02 0.  0.
          6    2    1    2  501    0  0.10736193429E+03  0.10270704348E+03  0.26744468400E+03  0.35114669401E+03  0.17234273990E+03 0.  0.
         24    2    5    5    0    0  0.95563478531E+02  0.13638855938E+03  0.17783266593E+03  0.25457520829E+03  0.73823180937E+02 0.  0.
          5    1    5    5  501    0  0.11798455759E+02 -0.33681515901E+02  0.89612018068E+02  0.96571485719E+02  0.47000000000E+01 0. -1.
        -11    1    6    6    0    0  0.82621250370E+02  0.79804982208E+02  0.77196945344E+02  0.13839969136E+03  0.00000000000E+00 0.  1.
         12    1    6    6    0    0  0.12942228161E+02  0.56583577173E+02  0.10063572059E+03  0.11617551693E+03  0.00000000000E+00 0. -1.
         -5    1    3    3    0  503 -0.81661177143E+01 -0.98041392885E+02  0.17595956193E+03  0.20164983916E+03  0.47000000000E+01 0.  1.
         11    1    4    4    0    0 -0.38963532231E+02 -0.52422056342E+01  0.67320738839E+01  0.39886819660E+02  0.00000000000E+00 0. -1.
        -12    1    4    4    0    0 -0.60232284345E+02  0.57655503955E+00  0.15262210951E+03  0.16407854462E+03  0.00000000000E+00 0.  1.
</event>
<event>
12    1  0.8196217E-002  0.2786404E+03  0.7818608E-02  0.1096454E+00
         21   -1    0    0  503  502  0.00000000000E+00  0.00000000000E+00  0.11853144263E+04  0.11853144263E+04  0.00000000000E+00 0.  1.
         21   -1    0    0  501  503 -0.00000000000E+00 -0.00000000000E+00 -0.10402495309E+03  0.10402495309E+03  0.00000000000E+00 0. -1.
          6    2    1    2  501    0 -0.21731755936E+03 -0.28412547678E+02  0.93304082411E+03  0.97371601180E+03  0.17182403123E+03 0.  0.
         24    2    3    3    0    0 -0.78606728093E+02 -0.71447411803E+02  0.40578773073E+03  0.42680595638E+03  0.78840926141E+02 0.  0.
         -6    2    1    2    0  502  0.21731755936E+03  0.28412547678E+02  0.14824864906E+03  0.31562336755E+03  0.17206467889E+03 0.  0.
        -24    2    5    5    0    0  0.19096999865E+03  0.46143107524E+02  0.17403158278E+03  0.27444793337E+03  0.80224370182E+02 0.  0.
          5    1    3    3  501    0 -0.13871083127E+03  0.43034864125E+02  0.52725309338E+03  0.54691005542E+03  0.47000000000E+01 0. -1.
        -13    1    4    4    0    0  0.13057803768E+02 -0.21743107245E+02  0.11840240396E+03  0.12108839010E+03  0.00000000000E+00 0.  1.
         14    1    4    4    0    0 -0.91664531861E+02 -0.49704304558E+02  0.28738532677E+03  0.30571756628E+03  0.00000000000E+00 0. -1.
         -5    1    5    5    0  502  0.26347560718E+02 -0.17730559845E+02 -0.25782933727E+02  0.41175434178E+02  0.47000000000E+01 0.  1.
         11    1    6    6    0    0  0.88396285501E+02 -0.21584393451E+01  0.35121180143E+02  0.95142311541E+02  0.00000000000E+00 0. -1.
        -12    1    6    6    0    0  0.10257371314E+03  0.48301546869E+02  0.13891040264E+03  0.17930562183E+03  0.00000000000E+00 0.  1.
</event>
<event>
12    1  0.8196217E-002  0.1878156E+03  0.7818608E-02  0.1162322E+00
         21   -1    0    0  501  502  0.00000000000E+00  0.00000000000E+00  0.70207151275E+02  0.70207151275E+02  0.00000000000E+00 0.  1.
         21   -1    0    0  502  503 -0.00000000000E+00 -0.00000000000E+00 -0.58559907240E+03  0.58559907240E+03  0.00000000000E+00 0.  1.
         -6    2    1    2    0  503  0.64112091736E+02  0.38997614299E+02 -0.40069611686E+03  0.44252916940E+03  0.17217291738E+03 0.  0.
        -24    2    3    3    0    0  0.25598715072E+02 -0.37861132271E+02 -0.27846854196E+03  0.29302259037E+03  0.78922430646E+02 0.  0.
          6    2    1    2  501    0 -0.64112091736E+02 -0.38997614299E+02 -0.11469580427E+03  0.21327705428E+03  0.16340379474E+03 0.  0.
         24    2    5    5    0    0 -0.67558988780E+02 -0.75179309307E+02 -0.12005425318E+03  0.17623924754E+03  0.80194159109E+02 0.  0.
          5    1    5    5  501    0  0.34468970435E+01  0.36181695008E+02  0.53584489111E+01  0.37037806734E+02  0.47000000000E+01 0. -1.
        -11    1    6    6    0    0 -0.62198978701E+02 -0.11612787568E+02 -0.44495007004E+02  0.77352281381E+02  0.00000000000E+00 0.  1.
         12    1    6    6    0    0 -0.53600100786E+01 -0.63566521739E+02 -0.75559246177E+02  0.98886966163E+02  0.00000000000E+00 0. -1.
         -5    1    3    3    0  503  0.38513376664E+02  0.76858746569E+02 -0.12222757490E+03  0.14950657903E+03  0.47000000000E+01 0.  1.
         13    1    4    4    0    0  0.27053631715E+02 -0.32534362939E+02 -0.54554171083E+02  0.69040142985E+02  0.00000000000E+00 0. -1.
        -14    1    4    4    0    0 -0.14549166425E+01 -0.53267693311E+01 -0.22391437087E+03  0.22398244739E+03  0.00000000000E+00 0.  1.
</event>
<event>
12    1  0.8196217E-002  0.2019280E+03  0.7818608E-02  0.1151746E+00
         21   -1    0    0  501  502  0.00000000000E+00  0.00000000000E+00  0.11608353451E+03  0.11608353451E+03  0.00000000000E+00 0. -1.
         21   -1    0    0  502  503 -0.00000000000E+00 -0.00000000000E+00 -0.48559092802E+03  0.48559092802E+03  0.00000000000E+00 0. -1.
         -6    2    1    2    0  503  0.12347756900E+02  0.10469037953E+03 -0.35348238207E+03  0.39911162425E+03  0.15240653368E+03 0.  0.
        -24    2    3    3    0    0  0.57019418666E+02  0.99528856566E+02 -0.26615975225E+03  0.30077785404E+03  0.80430692961E+02 0.  0.
          6    2    1    2  501    0 -0.12347756900E+02 -0.10469037953E+03 -0.16025011442E+02  0.20256283829E+03  0.17222763947E+03 0.  0.
         24    2    5    5    0    0 -0.82693014988E+01 -0.12601259845E+03 -0.53024783481E+02  0.15940795503E+03  0.81558029333E+02 0.  0.
          5    1    5    5  501    0 -0.40784554016E+01  0.21322218919E+02  0.36999772039E+02  0.43154883258E+02  0.47000000000E+01 0. -1.
        -13    1    6    6    0    0 -0.44063704487E+02 -0.71372575095E+02 -0.39445423511E+02  0.92690862359E+02  0.00000000000E+00 0.  1.
         14    1    6    6    0    0  0.35794402988E+02 -0.54640023351E+02 -0.13579359970E+02  0.66717092670E+02  0.00000000000E+00 0. -1.
         -5    1    3    3    0  503 -0.44671661765E+02  0.51615229611E+01 -0.87322629817E+02  0.98333770203E+02  0.47000000000E+01 0.  1.
         11    1    4    4    0    0  0.12944670519E+02 -0.13541366388E+02 -0.34827340055E+02  0.39545881123E+02  0.00000000000E+00 0. -1.
        -12    1    4    4    0    0  0.44074748146E+02  0.11307022295E+03 -0.23133241219E+03  0.26123197292E+03  0.00000000000E+00 0.  1.
</event>
<event>
12    1  0.8196217E-002  0.2770215E+03  0.7818608E-02  0.1097358E+00
         21   -1    0    0  501  502  0.00000000000E+00  0.00000000000E+00  0.29243048855E+03  0.29243048855E+03  0.00000000000E+00 0.  1.
         21   -1    0    0  502  503 -0.00000000000E+00 -0.00000000000E+00 -0.30865725052E+03  0.30865725052E+03  0.00000000000E+00 0. -1.
         -6    2    1    2    0  503  0.19950820498E+03  0.85140752845E+02  0.10847082581E+03  0.29750094444E+03  0.17230327984E+03 0.  0.
        -24    2    3    3    0    0  0.17291345191E+03  0.82478589805E+02  0.14399678663E+03  0.25279577812E+03  0.80429169132E+02 0.  0.
          6    2    1    2  501    0 -0.19950820498E+03 -0.85140752845E+02 -0.12469758778E+03  0.30358679464E+03  0.17193888981E+03 0.  0.
         24    2    5    5    0    0 -0.12735580032E+03 -0.27259555447E+02 -0.14263125063E+03  0.20924746681E+03  0.80487548567E+02 0.  0.
          5    1    5    5  501    0 -0.72152404665E+02 -0.57881197398E+02  0.17933662848E+02  0.94339327824E+02  0.47000000000E+01 0. -1.
        -11    1    6    6    0    0 -0.37530729227E+01  0.19136997492E+02 -0.29605610958E+02  0.35451409416E+02  0.00000000000E+00 0.  1.
         12    1    6    6    0    0 -0.12360272739E+03 -0.46396552938E+02 -0.11302563967E+03  0.17379605740E+03  0.00000000000E+00 0. -1.
         -5    1    3    3    0  503  0.26594753077E+02  0.26621630401E+01 -0.35525960828E+02  0.44705166324E+02  0.47000000000E+01 0.  1.
         13    1    4    4    0    0  0.40297453734E+02  0.27665405721E+01 -0.14774268963E+01  0.40419318579E+02  0.00000000000E+00 0. -1.
        -14    1    4    4    0    0  0.13261599817E+03  0.79712049233E+02  0.14547421353E+03  0.21237645954E+03  0.00000000000E+00 0.  1.
</event>
<event>
12    1  0.8196217E-002  0.1998303E+03  0.7818608E-02  0.1150879E+00
         21   -1    0    0  501  502  0.00000000000E+00  0.00000000000E+00  0.22637062323E+03  0.22637062323E+03  0.00000000000E+00 0. -1.
         21   -1    0    0  502  503 -0.00000000000E+00 -0.00000000000E+00 -0.17320006345E+03  0.17320006345E+03  0.00000000000E+00 0. -1.
         -6    2    1    2    0  503  0.82921624832E+02  0.53939416155E+02  0.11945286743E+02  0.19553225101E+03  0.16824005121E+03 0.  0.
        -24    2    3    3    0    0  0.24248300214E+02 -0.22838687400E+02 -0.28873639906E+02  0.90528865449E+02  0.79070871329E+02 0.  0.
          6    2    1    2  501    0 -0.82921624832E+02 -0.53939416155E+02  0.41225273031E+02  0.20403843567E+03  0.17362806113E+03 0.  0.
         24    2    5    5    0    0 -0.38364370882E+01 -0.19405460497E+02  0.74822256918E+02  0.11131352887E+03  0.80006508693E+02 0.  0.
          5    1    5    5  501    0 -0.79085187744E+02 -0.34533955658E+02 -0.33596983886E+02  0.92724906795E+02  0.47000000000E+01 0. -1.
        -11    1    6    6    0    0 -0.11883790708E+02 -0.46855341359E+02  0.26413001942E+02  0.55084427627E+02  0.00000000000E+00 0.  1.
         12    1    6    6    0    0  0.80473536197E+01  0.27449880862E+02  0.48409254975E+02  0.56229101245E+02  0.00000000000E+00 0. -1.
         -5    1    3    3    0  503  0.58673324618E+02  0.76778103555E+02  0.40818926649E+02  0.10500338556E+03  0.47000000000E+01 0.  1.
         11    1    4    4    0    0  0.96047600648E+01 -0.71134330798E+01  0.27615481918E+02  0.30090981833E+02  0.00000000000E+00 0. -1.
        -12    1    4    4    0    0  0.14643540150E+02 -0.15725254320E+02 -0.56489121825E+02  0.60437883617E+02  0.00000000000E+00 0.  1.
</event>
<event>
12    1  0.8196217E-002  0.1958224E+03  0.7818608E-02  0.1153701E+00
         21   -1    0    0  501  502  0.00000000000E+00  0.00000000000E+00  0.72351608114E+02  0.72351608114E+02  0.00000000000E+00 0.  1.
         21   -1    0    0  502  503 -0.00000000000E+00 -0.00000000000E+00 -0.18842700553E+04  0.18842700553E+04  0.00000000000E+00 0.  1.
         -6    2    1    2    0  503  0.74591883203E+02 -0.52820769475E+02 -0.17379736825E+04  0.17489708166E+04  0.17318317933E+03 0.  0.
        -24    2    3    3    0    0  0.67678317497E+02 -0.46676738181E+02 -0.17341388787E+04  0.17379099743E+04  0.79588666344E+02 0.  0.
          6    2    1    2  501    0 -0.74591883203E+02  0.52820769475E+02 -0.73944764726E+02  0.20765084683E+03  0.17116384908E+03 0.  0.
         24    2    5    5    0    0 -0.62843046900E+02  0.88293609447E+02 -0.93962044653E+02  0.16499948078E+03  0.81553373999E+02 0.  0.
          5    1    5    5  501    0 -0.11748836303E+02 -0.35472839972E+02  0.20017279927E+02  0.42651366049E+02  0.47000000000E+01 0. -1.
        -11    1    6    6    0    0  0.72877252770E+00 -0.11394167578E+02 -0.26544942190E+02  0.28896230205E+02  0.00000000000E+00 0.  1.
         12    1    6    6    0    0 -0.63571819428E+02  0.99687777025E+02 -0.67417102463E+02  0.13610325058E+03  0.00000000000E+00 0. -1.
         -5    1    3    3    0  503  0.69135657063E+01 -0.61440312933E+01 -0.38348037960E+01  0.11060842258E+02  0.47000000000E+01 0.  1.
         13    1    4    4    0    0  0.37795828228E+01  0.61711879067E+01 -0.13875401411E+02  0.15649139619E+02  0.00000000000E+00 0. -1.
        -14    1    4    4    0    0  0.63898734674E+02 -0.52847926088E+02 -0.17202634773E+04  0.17222608347E+04  0.00000000000E+00 0.  1.
</event>
<event>
12    1  0.8196217E-002  0.2160621E+03  0.7818608E-02  0.1137030E+00
         21   -1    0    0  501  502  0.00000000000E+00  0.00000000000E+00  0.17848989925E+04  0.17848989925E+04  0.00000000000E+00 0.  1.
         21   -1    0    0  502  503 -0.00000000000E+00 -0.00000000000E+00 -0.37563934422E+02  0.37563934422E+02  0.00000000000E+00 0.  1.
         -6    2    1    2    0  503  0.89176292134E+02  0.96327639046E+02  0.36772157915E+03  0.42603313454E+03  0.17045130339E+03 0.  0.
        -24    2    3    3    0    0  0.19689010836E+02  0.84644625840E+02  0.31745832358E+03  0.33935291811E+03  0.82633201487E+02 0.  0.
          6    2    1    2  501    0 -0.89176292134E+02 -0.96327639046E+02  0.13796134789E+04  0.13964297924E+04  0.17161406906E+03 0.  0.
         24    2    5    5    0    0 -0.54723072235E+02 -0.29293502657E+02  0.31911031724E+03  0.33324135859E+03  0.73250833265E+02 0.  0.
          5    1    5    5  501    0 -0.34453219899E+02 -0.67034136389E+02  0.10605031617E+04  0.10631884338E+04  0.47000000000E+01 0. -1.
        -11    1    6    6    0    0 -0.41625852292E+02  0.29525236329E+01  0.26907407970E+03  0.27229081759E+03  0.00000000000E+00 0.  1.
         12    1    6    6    0    0 -0.13097219943E+02 -0.32246026290E+02  0.50036237537E+02  0.60950541003E+02  0.00000000000E+00 0. -1.
         -5    1    3    3    0  503  0.69487281298E+02  0.11683013206E+02  0.50263255575E+02  0.86680216433E+02  0.47000000000E+01 0.  1.
         13    1    4    4    0    0  0.23605659544E+02  0.88436840186E+01  0.18483183834E+03  0.18654288079E+03  0.00000000000E+00 0. -1.
        -14    1    4    4    0    0 -0.39166487080E+01  0.75800941822E+02  0.13262648523E+03  0.15281003731E+03  0.00000000000E+00 0.  1.
</event>
<event>
12    1  0.8196217E-002  0.1830455E+03  0.7818608E-02  0.1164949E+00
         21   -1    0    0  501  502  0.00000000000E+00  0.00000000000E+00  0.19462302209E+03  0.19462302209E+03  0.00000000000E+00 0. -1.
         21   -1    0    0  502  503 -0.00000000000E+00 -0.00000000000E+00 -0.21784952546E+03  0.21784952546E+03  0.00000000000E+00 0. -1.
         -6    2    1    2    0  503 -0.14792909933E+02 -0.61859518743E+02 -0.10630969879E+03  0.21145398330E+03  0.17136395407E+03 0.  0.
        -24    2    3    3    0    0  0.38712640419E+02 -0.49782740892E+02 -0.12813303459E+02  0.10295348366E+03  0.80363233098E+02 0.  0.
          6    2    1    2  501    0  0.14792909933E+02  0.61859518743E+02  0.83083195424E+02  0.20101856425E+03  0.17163978433E+03 0.  0.
         24    2    5    5    0    0  0.37223225952E+02  0.19855509846E+02 -0.15839533446E+02  0.91131112154E+02  0.79209715068E+02 0.  0.
          5    1    5    5  501    0 -0.22430316020E+02  0.42004008897E+02  0.98922728869E+02  0.10988745209E+03  0.47000000000E+01 0. -1.
        -11    1    6    6    0    0  0.20845774394E+02  0.24278115644E+02 -0.46290194112E+02  0.56273930734E+02  0.00000000000E+00 0.  1.
         12    1    6    6    0    0  0.16377451558E+02 -0.44226057986E+01  0.30450660666E+02  0.34857181421E+02  0.00000000000E+00 0. -1.
         -5    1    3    3    0  503 -0.53505550352E+02 -0.12076777850E+02 -0.93496395329E+02  0.10850049964E+03  0.47000000000E+01 0.  1.
         13    1    4    4    0    0  0.22964228220E+02 -0.41089772416E+02 -0.45612351077E+02  0.65545493710E+02  0.00000000000E+00 0. -1.
        -14    1    4    4    0    0  0.15748412200E+02 -0.86929684767E+01  0.32799047618E+02  0.37407989954E+02  0.00000000000E+00 0.  1.
</event>
<event>
12    1  0.8196217E-002  0.1750589E+03  0.7818608E-02  0.1172722E+00
         21   -1    0    0  503  502  0.00000000000E+00  0.00000000000E+00  0.51596011163E+03  0.51596011163E+03  0.00000000000E+00 0.  1.
         21   -1    0    0  501  503 -0.00000000000E+00 -0.00000000000E+00 -0.25933188283E+03  0.25933188283E+03  0.00000000000E+00 0.  1.
          6    2    1    2  501    0 -0.27887411234E+02 -0.87004684812E+01 -0.21213090578E+03  0.27491139932E+03  0.17240461255E+03 0.  0.
         24    2    3    3    0    0 -0.27076994063E+02 -0.22082678476E+02 -0.31917252747E+02  0.94138638480E+02  0.81379136981E+02 0.  0.
         -6    2    1    2    0  502  0.27887411234E+02  0.87004684812E+01  0.46875913458E+03  0.50038059515E+03  0.17260419431E+03 0.  0.
        -24    2    5    5    0    0  0.34302940546E+02  0.25044447539E+02  0.47303520254E+03  0.48170817096E+03  0.80476972125E+02 0.  0.
          5    1    3    3  501    0 -0.81041717117E+00  0.13382209995E+02 -0.18021365304E+03  0.18077276084E+03  0.47000000000E+01 0. -1.
        -11    1    4    4    0    0 -0.39901911303E+02 -0.11458561341E+02 -0.52967002445E+02  0.67297581692E+02  0.00000000000E+00 0.  1.
         12    1    4    4    0    0  0.12824917240E+02 -0.10624117135E+02  0.21049749698E+02  0.26841056787E+02  0.00000000000E+00 0. -1.
         -5    1    5    5    0  502 -0.64155293117E+01 -0.16343979058E+02 -0.42760679654E+01  0.18672424187E+02  0.47000000000E+01 0.  1.
         11    1    6    6    0    0  0.93352390125E+01  0.27319245006E+02  0.48564980537E+02  0.56498187314E+02  0.00000000000E+00 0. -1.
        -12    1    6    6    0    0  0.24967701533E+02 -0.22747974675E+01  0.42447022201E+03  0.42520998365E+03  0.00000000000E+00 0.  1.
</event>
<event>
12    1  0.8196217E-002  0.2176587E+03  0.7818608E-02  0.1135735E+00
         21   -1    0    0  503  502  0.00000000000E+00  0.00000000000E+00  0.20637605315E+03  0.20637605315E+03  0.00000000000E+00 0. -1.
         21   -1    0    0  501  503 -0.00000000000E+00 -0.00000000000E+00 -0.23028546159E+03  0.23028546159E+03  0.00000000000E+00 0.  1.
          6    2    1    2  501    0 -0.11196204049E+03  0.74443680264E+02 -0.28068064597E+02  0.21946101425E+03  0.17116647009E+03 0.  0.
         24    2    3    3    0    0 -0.30390511120E+02 -0.20397167963E+02 -0.58729257947E+01  0.92325593997E+02  0.84557060158E+02 0.  0.
         -6    2    1    2    0  502  0.11196204049E+03 -0.74443680264E+02  0.41586561535E+01  0.21720050049E+03  0.17053270346E+03 0.  0.
        -24    2    5    5    0    0  0.86347002967E+02 -0.10547423921E+03  0.36655808330E+02  0.16526611270E+03  0.85957080358E+02 0.  0.
          5    1    3    3  501    0 -0.81571529370E+02  0.94840848226E+02 -0.22195138802E+02  0.12713542025E+03  0.47000000000E+01 0. -1.
        -13    1    4    4    0    0 -0.44310118026E+02 -0.13848681084E+02 -0.35834706180E+02  0.58645534308E+02  0.00000000000E+00 0.  1.
         14    1    4    4    0    0  0.13919606906E+02 -0.65484868783E+01  0.29961780385E+02  0.33680059689E+02  0.00000000000E+00 0. -1.
         -5    1    5    5    0  502  0.25615037523E+02  0.31030558947E+02 -0.32497152176E+02  0.51934387793E+02  0.47000000000E+01 0.  1.
         13    1    6    6    0    0  0.50069401407E+02 -0.10023982885E+03  0.54385227275E+02  0.12455007504E+03  0.00000000000E+00 0. -1.
        -14    1    6    6    0    0  0.36277601560E+02 -0.52344103571E+01 -0.17729418945E+02  0.40716037662E+02  0.00000000000E+00 0.  1.
</event>
<event>
12    1  0.8196217E-002  0.2491508E+03  0.7818608E-02  0.1114025E+00
         21   -1    0    0  503  502  0.00000000000E+00  0.00000000000E+00  0.27106237655E+03  0.27106237655E+03  0.00000000000E+00 0.  1.
         21   -1    0    0  501  503 -0.00000000000E+00 -0.00000000000E+00 -0.99089925883E+03  0.99089925883E+03  0.00000000000E+00 0.  1.
          6    2    1    2  501    0 -0.15265828749E+03  0.92971192488E+02 -0.91377440502E+03  0.94713240467E+03  0.17357399962E+03 0.  0.
         24    2    3    3    0    0 -0.17347698300E+03  0.11031810405E+03 -0.78000012272E+03  0.81056014531E+03  0.79644271667E+02 0.  0.
         -6    2    1    2    0  502  0.15265828749E+03 -0.92971192488E+02  0.19393752275E+03  0.31482923071E+03  0.17192290833E+03 0.  0.
        -24    2    5    5    0    0  0.15477438919E+03 -0.20345894708E+02  0.13625179261E+03  0.22193872944E+03  0.79518435947E+02 0.  0.
          5    1    3    3  501    0  0.20818695510E+02 -0.17346911561E+02 -0.13377428229E+03  0.13657225936E+03  0.47000000000E+01 0. -1.
        -13    1    4    4    0    0 -0.63380109224E+02  0.79331434483E+02 -0.44959503114E+03  0.46091887222E+03  0.00000000000E+00 0.  1.
         14    1    4    4    0    0 -0.11009687378E+03  0.30986669567E+02 -0.33040509158E+03  0.34964127309E+03  0.00000000000E+00 0. -1.
         -5    1    5    5    0  502 -0.21161017029E+01 -0.72625297781E+02  0.57685730139E+02  0.92890501268E+02  0.47000000000E+01 0.  1.
         13    1    6    6    0    0  0.15568949497E+03 -0.30610802459E+02  0.13935315358E+03  0.21117656471E+03  0.00000000000E+00 0. -1.
        -14    1    6    6    0    0 -0.91510577359E+00  0.10264907751E+02 -0.31013609767E+01  0.10762164728E+02  0.00000000000E+00 0.  1.
</event>
<event>
12    1  0.8196217E-002  0.1860444E+03  0.7818608E-02  0.1162212E+00
         21   -1    0    0  503  502  0.00000000000E+00  0.00000000000E+00  0.62451595939E+03  0.62451595939E+03  0.00000000000E+00 0.  1.
         21   -1    0    0  501  503 -0.00000000000E+00 -0.00000000000E+00 -0.11789814537E+03  0.11789814537E+03  0.00000000000E+00 0.  1.
          6    2    1    2  501    0  0.68802151218E+02  0.17749278132E+02 -0.17464925965E+02  0.18628891759E+03  0.17131772906E+03 0.  0.
         24    2    3    3    0    0 -0.30893542511E+00 -0.45900755655E+02  0.30249149445E+01  0.90010193676E+02  0.77367370670E+02 0.  0.
         -6    2    1    2    0  502 -0.68802151218E+02 -0.17749278132E+02  0.52408273999E+03  0.55612518717E+03  0.17194107296E+03 0.  0.
        -24    2    5    5    0    0  0.25838310330E+02 -0.90690418811E+01  0.17574012864E+03  0.19502017704E+03  0.79990067116E+02 0.  0.
          5    1    3    3  501    0  0.69111086643E+02  0.63650033787E+02 -0.20489840910E+02  0.96278723914E+02  0.47000000000E+01 0. -1.
        -11    1    4    4    0    0  0.23366803552E+01 -0.11053061880E+01 -0.32607687946E+02  0.32709984562E+02  0.00000000000E+00 0.  1.
         12    1    4    4    0    0 -0.26456157803E+01 -0.44795449467E+02  0.35632602890E+02  0.57300209114E+02  0.00000000000E+00 0. -1.
         -5    1    5    5    0  502 -0.94640461548E+02 -0.86802362506E+01  0.34834261135E+03  0.36110501013E+03  0.47000000000E+01 0.  1.
         13    1    6    6    0    0  0.13737519214E+02  0.15506849781E+02  0.16385509398E+03  0.16515953998E+03  0.00000000000E+00 0. -1.
        -14    1    6    6    0    0  0.12100791116E+02 -0.24575891662E+02  0.11885034660E+02  0.29860637057E+02  0.00000000000E+00 0.  1.
</event>
<event>
12    1  0.8196217E-002  0.1733163E+03  0.7818608E-02  0.1174464E+00
         21   -1    0    0  501  502  0.00000000000E+00  0.00000000000E+00  0.37058132193E+02  0.37058132193E+02  0.00000000000E+00 0. -1.
         21   -1    0    0  502  503 -0.00000000000E+00 -0.00000000000E+00 -0.84624225997E+03  0.84624225997E+03  0.00000000000E+00 0. -1.
         -6    2    1    2    0  503  0.59973569300E+01 -0.11682003760E+02 -0.49584386701E+03  0.52522125776E+03  0.17269566192E+03 0.  0.
        -24    2    3    3    0    0  0.40435654020E+02 -0.50619202815E+02 -0.42685222291E+03  0.43871091889E+03  0.77891619148E+02 0.  0.
          6    2    1    2  501    0 -0.59973569300E+01  0.11682003760E+02 -0.31334026076E+03  0.35807913440E+03  0.17281814134E+03 0.  0.
         24    2    5    5    0    0 -0.54621294869E+02  0.30794362036E+02 -0.11896778470E+03  0.15675273516E+03  0.80537616044E+02 0.  0.
          5    1    5    5  501    0  0.48623937939E+02 -0.19112358276E+02 -0.19437247606E+03  0.20132639924E+03  0.47000000000E+01 0. -1.
        -11    1    6    6    0    0 -0.33254350489E+01  0.36723086554E+02 -0.13400077040E+02  0.39232711721E+02  0.00000000000E+00 0.  1.
         12    1    6    6    0    0 -0.51295859820E+02 -0.59287245176E+01 -0.10556770766E+03  0.11752002344E+03  0.00000000000E+00 0. -1.
         -5    1    3    3    0  503 -0.34438297090E+02  0.38937199055E+02 -0.68991644095E+02  0.86510338871E+02  0.47000000000E+01 0.  1.
         11    1    4    4    0    0  0.14193537927E+01  0.19857728636E+02 -0.64034416189E+02  0.67057813926E+02  0.00000000000E+00 0. -1.
        -12    1    4    4    0    0  0.39016300227E+02 -0.70476931451E+02 -0.36281780672E+03  0.37165310496E+03  0.00000000000E+00 0.  1.
</event>
<event>
12    1  0.8196217E-002  0.2811751E+03  0.7818608E-02  0.1095232E+00
         21   -1    0    0  503  502  0.00000000000E+00  0.00000000000E+00  0.10331283457E+04  0.10331283457E+04  0.00000000000E+00 0. -1.
         21   -1    0    0  501  503 -0.00000000000E+00 -0.00000000000E+00 -0.10209403003E+03  0.10209403003E+03  0.00000000000E+00 0.  1.
          6    2    1    2  501    0 -0.22208690975E+03 -0.61292398426E+01  0.18026541917E+03  0.33399861467E+03  0.17233482001E+03 0.  0.
         24    2    3    3    0    0 -0.22679129665E+03 -0.19799560799E+02  0.19687680767E+03  0.31148112904E+03  0.80210357846E+02 0.  0.
         -6    2    1    2    0  502  0.22208690975E+03  0.61292398426E+01  0.75076889649E+03  0.80122376104E+03  0.17013352478E+03 0.  0.
        -24    2    5    5    0    0  0.16892950003E+03 -0.49334812305E+02  0.43383162634E+03  0.47507457048E+03  0.80714731139E+02 0.  0.
          5    1    3    3  501    0  0.47043869003E+01  0.13670320956E+02 -0.16611388500E+02  0.22517485629E+02  0.47000000000E+01 0. -1.
        -13    1    4    4    0    0 -0.66904843587E+02 -0.16503423683E+02  0.17360362707E+02  0.71063375109E+02  0.00000000000E+00 0.  1.
         14    1    4    4    0    0 -0.15988645307E+03 -0.32961371158E+01  0.17951644496E+03  0.24041775393E+03  0.00000000000E+00 0. -1.
         -5    1    5    5    0  502  0.53157409718E+02  0.55464052148E+02  0.31693727016E+03  0.32614919056E+03  0.47000000000E+01 0.  1.
         11    1    6    6    0    0  0.11013778717E+03 -0.31153640427E+02  0.36603629954E+03  0.38351460736E+03  0.00000000000E+00 0. -1.
        -12    1    6    6    0    0  0.58791712862E+02 -0.18181171878E+02  0.67795326793E+02  0.91559963123E+02  0.00000000000E+00 0.  1.
</event>
<event>
12    1  0.8196217E-002  0.1785231E+03  0.7818608E-02  0.1170463E+00
         21   -1    0    0  501  502  0.00000000000E+00  0.00000000000E+00  0.48058399126E+02  0.48058399126E+02  0.00000000000E+00 0. -1.
         21   -1    0    0  502  503 -0.00000000000E+00 -0.00000000000E+00 -0.64568558761E+03  0.64568558761E+03  0.00000000000E+00 0. -1.
         -6    2    1    2    0  503  0.34719066242E+02  0.29346638157E+02 -0.31432238733E+03  0.36148175093E+03  0.17263792846E+03 0.  0.
        -24    2    3    3    0    0  0.74523600383E+01  0.28041782199E+02 -0.56080201045E+02  0.10175825816E+03  0.79798965755E+02 0.  0.
          6    2    1    2  501    0 -0.34719066242E+02 -0.29346638157E+02 -0.28330480115E+03  0.33226223581E+03  0.16754087339E+03 0.  0.
         24    2    5    5    0    0  0.12642544218E+02 -0.13934140861E+02 -0.27414505932E+03  0.28140303715E+03  0.60647848761E+02 0.  0.
          5    1    5    5  501    0 -0.47361610460E+02 -0.15412497296E+02 -0.91597418299E+01  0.50859198663E+02  0.47000000000E+01 0. -1.
        -11    1    6    6    0    0 -0.15811319832E+02  0.11092413433E+02 -0.42550836970E+02  0.46729147193E+02  0.00000000000E+00 0.  1.
         12    1    6    6    0    0  0.28453864050E+02 -0.25026554293E+02 -0.23159422235E+03  0.23467388995E+03  0.00000000000E+00 0. -1.
         -5    1    3    3    0  503  0.27266706203E+02  0.13048559575E+01 -0.25824218629E+03  0.25972349277E+03  0.47000000000E+01 0.  1.
         11    1    4    4    0    0 -0.81893458989E+01  0.34517034798E+02 -0.70886522224E+02  0.79267837807E+02  0.00000000000E+00 0. -1.
        -12    1    4    4    0    0  0.15641705937E+02 -0.64752525986E+01  0.14806321179E+02  0.22490420354E+02  0.00000000000E+00 0.  1.
</event>
<event>
12    1  0.8196217E-002  0.2040024E+03  0.7818608E-02  0.1147057E+00
         21   -1    0    0  501  502  0.00000000000E+00  0.00000000000E+00  0.21779801350E+03  0.21779801350E+03  0.00000000000E+00 0.  1.
         21   -1    0    0  502  503 -0.00000000000E+00 -0.00000000000E+00 -0.20186475932E+03  0.20186475932E+03  0.00000000000E+00 0.  1.
         -6    2    1    2    0  503  0.39427025716E+02  0.10386103686E+03 -0.46791264602E+02  0.20623512349E+03  0.16733767771E+03 0.  0.
        -24    2    3    3    0    0 -0.33646930137E+02  0.79563408558E+02 -0.54135824533E+02  0.12873537945E+03  0.78610804189E+02 0.  0.
          6    2    1    2  501    0 -0.39427025716E+02 -0.10386103686E+03  0.62724518780E+02  0.21342764934E+03  0.17110052867E+03 0.  0.
         24    2    5    5    0    0 -0.12160190373E+02 -0.10438911879E+03 -0.15762911725E+02  0.13020429968E+03  0.75231189796E+02 0.  0.
          5    1    5    5  501    0 -0.27266835343E+02  0.52808192967E+00  0.78487430506E+02  0.83223349653E+02  0.47000000000E+01 0. -1.
        -13    1    6    6    0    0  0.15996994013E+02 -0.56976580073E+02  0.22254700954E+02  0.63225834979E+02  0.00000000000E+00 0.  1.
         14    1    6    6    0    0 -0.28157184387E+02 -0.47412538717E+02 -0.38017612680E+02  0.66978464704E+02  0.00000000000E+00 0. -1.
         -5    1    3    3    0  503  0.73073955853E+02  0.24297628302E+02  0.73445599315E+01  0.77499744036E+02  0.47000000000E+01 0.  1.
         13    1    4    4    0    0  0.86190268099E+01  0.20761229657E+01  0.14451890359E+02  0.16954499246E+02  0.00000000000E+00 0. -1.
        -14    1    4    4    0    0 -0.42265956947E+02  0.77487285593E+02 -0.68587714893E+02  0.11178088020E+03  0.00000000000E+00 0.  1.
</event>
<event>
12    1  0.8196217E-002  0.3611482E+03  0.7818608E-02  0.1058132E+00
         21   -1    0    0  503  502  0.00000000000E+00  0.00000000000E+00  0.11465840399E+03  0.11465840399E+03  0.00000000000E+00 0.  1.
         21   -1    0    0  501  503 -0.00000000000E+00 -0.00000000000E+00 -0.12186847208E+04  0.12186847208E+04  0.00000000000E+00 0. -1.
          6    2    1    2  501    0  0.34393755055E+01 -0.31737568324E+03 -0.72409492816E+03  0.80915243379E+03  0.17226445515E+03 0.  0.
         24    2    3    3    0    0  0.53380387108E+02 -0.18407484254E+03 -0.29422840638E+03  0.35630529036E+03  0.60415986555E+02 0.  0.
         -6    2    1    2    0  502 -0.34393755055E+01  0.31737568324E+03 -0.37993138869E+03  0.52419069103E+03  0.17230457578E+03 0.  0.
        -24    2    5    5    0    0 -0.15688276112E+02  0.74590945464E+02 -0.13111362917E+03  0.17630158238E+03  0.89897347260E+02 0.  0.
          5    1    3    3  501    0 -0.49941011602E+02 -0.13330084070E+03 -0.42986652177E+03  0.45284714343E+03  0.47000000000E+01 0. -1.
        -11    1    4    4    0    0  0.43341871381E+02 -0.66754301876E+02 -0.15271252166E+03  0.17220850416E+03  0.00000000000E+00 0.  1.
         12    1    4    4    0    0  0.10038515727E+02 -0.11732054066E+03 -0.14151588473E+03  0.18409678620E+03  0.00000000000E+00 0. -1.
         -5    1    5    5    0  502  0.12248900606E+02  0.24278473778E+03 -0.24881775952E+03  0.34788910865E+03  0.47000000000E+01 0.  1.
         11    1    6    6    0    0  0.16737864369E+02  0.71990728692E+01 -0.88230215432E+02  0.90091917890E+02  0.00000000000E+00 0. -1.
        -12    1    6    6    0    0 -0.32426140481E+02  0.67391872595E+02 -0.42883413736E+02  0.86209664493E+02  0.00000000000E+00 0.  1.
</event>
<event>
12    1  0.8196217E-002  0.2707093E+03  0.7818608E-02  0.1101102E+00
         21   -1    0    0  501  502  0.00000000000E+00  0.00000000000E+00  0.19416519470E+03  0.19416519470E+03  0.00000000000E+00 0.  1.
         21   -1    0    0  502  503 -0.00000000000E+00 -0.00000000000E+00 -0.41216219358E+03  0.41216219358E+03  0.00000000000E+00 0. -1.
         -6    2    1    2    0  503  0.70280401552E+01 -0.20878156817E+03 -0.18515852920E+02  0.27134182672E+03  0.17217553125E+03 0.  0.
        -24    2    3    3    0    0  0.35527981477E+02 -0.98979831457E+02  0.46046949048E+02  0.14073128565E+03  0.81398579477E+02 0.  0.
          6    2    1    2  501    0 -0.70280401552E+01  0.20878156817E+03 -0.19948114596E+03  0.33498556156E+03  0.16965689583E+03 0.  0.
         24    2    5    5    0    0 -0.47080609163E+02  0.89137535322E+02 -0.46246909215E+02  0.13643651424E+03  0.79461071245E+02 0.  0.
          5    1    5    5  501    0  0.40052569008E+02  0.11964403284E+03 -0.15323423675E+03  0.19854904732E+03  0.47000000000E+01 0. -1.
        -11    1    6    6    0    0 -0.42217592200E+02  0.10016093368E+03 -0.54735173348E+02  0.12169830290E+03  0.00000000000E+00 0.  1.
         12    1    6    6    0    0 -0.48630169628E+01 -0.11023398363E+02  0.84882641330E+01  0.14738211338E+02  0.00000000000E+00 0. -1.
         -5    1    3    3    0  503 -0.28499941322E+02 -0.10980173671E+03 -0.64562801968E+02  0.13061054107E+03  0.47000000000E+01 0.  1.
         11    1    4    4    0    0 -0.26189903689E+02 -0.22261063177E+02  0.90137174252E+01  0.35534674486E+02  0.00000000000E+00 0. -1.
        -12    1    4    4    0    0  0.61717885166E+02 -0.76718768280E+02  0.37033231623E+02  0.10519661116E+03  0.00000000000E+00 0.  1.
</event>
<event>
12    1  0.8196217E-002  0.1932759E+03  0.7818608E-02  0.1158174E+00
         21   -1    0    0  503  502  0.00000000000E+00  0.00000000000E+00  0.23667964829E+03  0.23667964829E+03  0.00000000000E+00 0. -1.
         21   -1    0    0  501  503 -0.00000000000E+00 -0.00000000000E+00 -0.26520110460E+03  0.26520110460E+03  0.00000000000E+00 0. -1.
          6    2    1    2  501    0 -0.39806139495E+02  0.36967649498E+02 -0.18090210809E+03  0.26472846639E+03  0.18548437227E+03 0.  0.
         24    2    3    3    0    0 -0.53201441165E+02  0.68258573450E+02 -0.19430774104E+03  0.22784544830E+03  0.81660418137E+02 0.  0.
         -6    2    1    2    0  502  0.39806139495E+02 -0.36967649498E+02  0.15238065177E+03  0.23715228650E+03  0.17340763566E+03 0.  0.
        -24    2    5    5    0    0 -0.41982838732E+02 -0.12599216460E+02  0.10860043659E+03  0.14112075663E+03  0.78738263381E+02 0.  0.
          5    1    3    3  501    0  0.13395301670E+02 -0.31290923952E+02  0.13405632954E+02  0.36883018091E+02  0.47000000000E+01 0. -1.
        -11    1    4    4    0    0 -0.48450056756E+02  0.37760912223E+02 -0.47017524827E+02  0.77355944390E+02  0.00000000000E+00 0.  1.
         12    1    4    4    0    0 -0.47513844086E+01  0.30497661227E+02 -0.14729021622E+03  0.15048950391E+03  0.00000000000E+00 0. -1.
         -5    1    5    5    0  502  0.81788978226E+02 -0.24368433038E+02  0.43780215178E+02  0.96031529870E+02  0.47000000000E+01 0.  1.
         11    1    6    6    0    0 -0.20150455983E+02  0.83476095946E+01  0.10869796330E+03  0.11086465031E+03  0.00000000000E+00 0. -1.
        -12    1    6    6    0    0 -0.21832382749E+02 -0.20946826055E+02 -0.97526708024E-01  0.30256106321E+02  0.00000000000E+00 0.  1.
</event>
<event>
12    1  0.8196217E-002  0.2312620E+03  0.7818608E-02  0.1125920E+00
         21   -1    0    0  503  502  0.00000000000E+00  0.00000000000E+00  0.47860740275E+03  0.47860740275E+03  0.00000000000E+00 0. -1.
         21   -1    0    0  501  503 -0.00000000000E+00 -0.00000000000E+00 -0.36042632068E+03  0.36042632068E+03  0.00000000000E+00 0.  1.
          6    2    1    2  501    0  0.66087700517E+01 -0.15184077909E+03 -0.28973352532E+03  0.37012388710E+03  0.17305166303E+03 0.  0.
         24    2    3    3    0    0  0.69612470888E+02 -0.97543061861E+02 -0.15545612918E+03  0.21210421261E+03  0.80380618838E+02 0.  0.
         -6    2    1    2    0  502 -0.66087700517E+01  0.15184077909E+03  0.40791460739E+03  0.46890983633E+03  0.17430665407E+03 0.  0.
        -24    2    5    5    0    0  0.47008468448E+02  0.14910854785E+03  0.28547476440E+03  0.33513435838E+03  0.79850121524E+02 0.  0.
          5    1    3    3  501    0 -0.63003700836E+02 -0.54297717226E+02 -0.13427739613E+03  0.15801967450E+03  0.47000000000E+01 0. -1.
        -11    1    4    4    0    0  0.32788258435E+02 -0.90542614742E+02 -0.14339357060E+03  0.17272738945E+03  0.00000000000E+00 0.  1.
         12    1    4    4    0    0  0.36824212453E+02 -0.70004471189E+01 -0.12062558583E+02  0.39376823160E+02  0.00000000000E+00 0. -1.
         -5    1    5    5    0  502 -0.53617238500E+02  0.27322312388E+01  0.12243984299E+03  0.13377547796E+03  0.47000000000E+01 0.  1.
         13    1    6    6    0    0 -0.62652318185E+01  0.72336160278E+02  0.18070605159E+03  0.19474714451E+03  0.00000000000E+00 0. -1.
        -14    1    6    6    0    0  0.53273700267E+02  0.76772387570E+02  0.10476871281E+03  0.14038721387E+03  0.00000000000E+00 0.  1.
</event>
<event>
12    1  0.8196217E-002  0.2069110E+03  0.7818608E-02  0.1144364E+00
         21   -1    0    0  501  502  0.00000000000E+00  0.00000000000E+00  0.32395256927E+02  0.32395256927E+02  0.00000000000E+00 0. -1.
         21   -1    0    0  502  503 -0.00000000000E+00 -0.00000000000E+00 -0.13539919471E+04  0.13539919471E+04  0.00000000000E+00 0.  1.
         -6    2    1    2    0  503  0.87852033963E+02 -0.70619631877E+02 -0.78647942237E+03  0.81324167951E+03  0.17351378969E+03 0.  0.
        -24    2    3    3    0    0  0.11880918604E+03 -0.15968230226E+02 -0.53720931114E+03  0.55613703288E+03  0.79523256391E+02 0.  0.
          6    2    1    2  501    0 -0.87852033963E+02  0.70619631877E+02 -0.53511726782E+03  0.57314552453E+03  0.17158143748E+03 0.  0.
         24    2    5    5    0    0 -0.12064475948E+03  0.75999762421E+02 -0.49301731445E+03  0.51930497544E+03  0.79249374115E+02 0.  0.
          5    1    5    5  501    0  0.32792725518E+02 -0.53801305444E+01 -0.42099953372E+02  0.53840549082E+02  0.47000000000E+01 0. -1.
        -11    1    6    6    0    0 -0.90812745184E+02  0.47655824312E+02 -0.21441501252E+03  0.23768009987E+03  0.00000000000E+00 0.  1.
         12    1    6    6    0    0 -0.29832014297E+02  0.28343938110E+02 -0.27860230193E+03  0.28162487558E+03  0.00000000000E+00 0. -1.
         -5    1    3    3    0  503 -0.30957152075E+02 -0.54651401651E+02 -0.24927011123E+03  0.25710464663E+03  0.47000000000E+01 0.  1.
         11    1    4    4    0    0  0.14512140887E+02  0.25379231247E+02 -0.74768750033E+02  0.80281215694E+02  0.00000000000E+00 0. -1.
        -12    1    4    4    0    0  0.10429704515E+03 -0.41347461473E+02 -0.46244056110E+03  0.47585581719E+03  0.00000000000E+00 0.  1.
</event>
<event>
12    1  0.8196217E-002  0.1812318E+03  0.7818608E-02  0.1166666E+00
         21   -1    0    0  501  502  0.00000000000E+00  0.00000000000E+00  0.27984880328E+03  0.27984880328E+03  0.00000000000E+00 0. -1.
         21   -1    0    0  502  503 -0.00000000000E+00 -0.00000000000E+00 -0.24770489191E+03  0.24770489191E+03  0.00000000000E+00 0.  1.
         -6    2    1    2    0  503 -0.48517781924E+02  0.35715592134E+02 -0.17536271451E+03  0.25218454142E+03  0.17092507894E+03 0.  0.
        -24    2    3    3    0    0 -0.39323839216E+02  0.89239486592E+02 -0.96950231531E+02  0.15668614695E+03  0.75107595849E+02 0.  0.
          6    2    1    2  501    0  0.48517781924E+02 -0.35715592134E+02  0.20750662588E+03  0.27536915377E+03  0.17070322897E+03 0.  0.
         24    2    5    5    0    0  0.12588655092E+02 -0.61726765010E+02  0.20589913946E+03  0.23073556460E+03  0.82920307444E+02 0.  0.
          5    1    5    5  501    0  0.35929126833E+02  0.26011172876E+02  0.16074864192E+01  0.44633589167E+02  0.47000000000E+01 0. -1.
        -13    1    6    6    0    0 -0.13140969435E+01 -0.11615168732E+02 -0.55823604320E+01  0.12953831227E+02  0.00000000000E+00 0.  1.
         14    1    6    6    0    0  0.13902752035E+02 -0.50111596277E+02  0.21148149989E+03  0.21778173337E+03  0.00000000000E+00 0. -1.
         -5    1    3    3    0  503 -0.91939427085E+01 -0.53523894458E+02 -0.78412482978E+02  0.95498394475E+02  0.47000000000E+01 0.  1.
         11    1    4    4    0    0 -0.25924807219E+02  0.73348658968E+02 -0.24877986689E+02  0.81676407998E+02  0.00000000000E+00 0. -1.
        -12    1    4    4    0    0 -0.13399031997E+02  0.15890827624E+02 -0.72072244842E+02  0.75009738952E+02  0.00000000000E+00 0.  1.
</event>
<event>
12    1  0.8196217E-002  0.2378589E+03  0.7818608E-02  0.1121681E+00
         21   -1    0    0  501  502  0.00000000000E+00  0.00000000000E+00  0.28226279569E+03  0.28226279569E+03  0.00000000000E+00 0.  1.
         21   -1    0    0  502  503 -0.00000000000E+00 -0.00000000000E+00 -0.20392831507E+03  0.20392831507E+03  0.00000000000E+00 0.  1.
         -6    2    1    2    0  503 -0.15352112171E+03 -0.55745446181E+02 -0.18113242980E+01  0.23519266943E+03  0.16922181087E+03 0.  0.
        -24    2    3    3    0    0 -0.13119326916E+03  0.15292479252E+02 -0.22746876811E+02  0.15769875219E+03  0.83101999029E+02 0.  0.
          6    2    1    2  501    0  0.15352112171E+03  0.55745446181E+02  0.80145804912E+02  0.25099844134E+03  0.17291783577E+03 0.  0.
         24    2    5    5    0    0  0.16205074769E+03  0.29258637300E+02  0.10544409460E+03  0.21309858612E+03  0.84711496494E+02 0.  0.
          5    1    5    5  501    0 -0.85296259743E+01  0.26486808881E+02 -0.25298289691E+02  0.37899855214E+02  0.47000000000E+01 0. -1.
        -11    1    6    6    0    0  0.79631438103E+02  0.55667107257E+02  0.42315479310E+02  0.10597449011E+03  0.00000000000E+00 0.  1.
         12    1    6    6    0    0  0.82419309582E+02 -0.26408469957E+02  0.63128615293E+02  0.10712409601E+03  0.00000000000E+00 0. -1.
         -5    1    3    3    0  503 -0.22327852546E+02 -0.71037925434E+02  0.20935552513E+02  0.77493917234E+02  0.47000000000E+01 0.  1.
         11    1    4    4    0    0 -0.78199994223E+02  0.36667091315E+02  0.17086414238E+02  0.88043513297E+02  0.00000000000E+00 0. -1.
        -12    1    4    4    0    0 -0.52993274941E+02 -0.21374612063E+02 -0.39833291050E+02  0.69655238896E+02  0.00000000000E+00 0.  1.
</event>
<event>
12    1  0.8196217E-002  0.2725015E+03  0.7818608E-02  0.1100046E+00
         21   -1    0    0  501  502  0.00000000000E+00  0.00000000000E+00  0.79009569662E+03  0.79009569662E+03  0.00000000000E+00 0.  1.
         21   -1    0    0  502  503 -0.00000000000E+00 -0.00000000000E+00 -0.17510401727E+03  0.17510401727E+03  0.00000000000E+00 0.  1.
         -6    2    1    2    0  503  0.19157209434E+03 -0.89841289355E+02 -0.21504000567E+02  0.27334870636E+03  0.17171420624E+03 0.  0.
        -24    2    3    3    0    0  0.77450654251E+02 -0.46065808388E+02  0.50788880274E+02  0.13126300531E+03  0.80807200532E+02 0.  0.
          6    2    1    2  501    0 -0.19157209434E+03  0.89841289355E+02  0.63649567992E+03  0.69185100754E+03  0.16958697318E+03 0.  0.
         24    2    5    5    0    0 -0.19754660082E+03  0.77021887054E+02  0.44263527054E+03  0.49741855108E+03  0.80883877534E+02 0.  0.
          5    1    5    5  501    0  0.59745064776E+01  0.12819402301E+02  0.19386040937E+03  0.19443245646E+03  0.47000000000E+01 0. -1.
        -11    1    6    6    0    0 -0.89934182405E+02  0.65649036225E+02  0.28716567606E+03  0.30799688087E+03  0.00000000000E+00 0.  1.
         12    1    6    6    0    0 -0.10761241841E+03  0.11372850829E+02  0.15546959449E+03  0.18942167020E+03  0.00000000000E+00 0. -1.
         -5    1    3    3    0  503  0.11412144009E+03 -0.43775480967E+02 -0.72292880842E+02  0.14208570105E+03  0.47000000000E+01 0.  1.
         11    1    4    4    0    0 -0.44494789556E+01 -0.20618953393E+02 -0.12642354178E+02  0.24592035726E+02  0.00000000000E+00 0. -1.
        -12    1    4    4    0    0  0.81900133207E+02 -0.25446854994E+02  0.63431234452E+02  0.10667096959E+03  0.00000000000E+00 0.  1.
</event>
<event>
12    1  0.8196217E-002  0.1753427E+03  0.7818608E-02  0.1172628E+00
         21   -1    0    0  501  502  0.00000000000E+00  0.00000000000E+00  0.74640348692E+02  0.74640348692E+02  0.00000000000E+00 0. -1.
         21   -1    0    0  502  503 -0.00000000000E+00 -0.00000000000E+00 -0.52698126905E+03  0.52698126905E+03  0.00000000000E+00 0. -1.
         -6    2    1    2    0  503 -0.33024284292E+02  0.60237051217E+01 -0.36858199059E+03  0.40816388161E+03  0.17209933783E+03 0.  0.
        -24    2    3    3    0    0  0.25873399991E+02 -0.48707714881E+02 -0.23390021877E+03  0.25123799079E+03  0.73275789701E+02 0.  0.
          6    2    1    2  501    0  0.33024284292E+02 -0.60237051217E+01 -0.83758929765E+02  0.19345773614E+03  0.17112407481E+03 0.  0.
         24    2    5    5    0    0  0.85783038313E+02  0.53946494678E+01 -0.39733160643E+02  0.12364209824E+03  0.79503537649E+02 0.  0.
          5    1    5    5  501    0 -0.52758754021E+02 -0.11418354589E+02 -0.44025769122E+02  0.69815637891E+02  0.47000000000E+01 0. -1.
        -11    1    6    6    0    0  0.50140843450E+02  0.38333013930E+02 -0.37506442449E+01  0.63226509243E+02  0.00000000000E+00 0.  1.
         12    1    6    6    0    0  0.35642194863E+02 -0.32938364462E+02 -0.35982516398E+02  0.60415589002E+02  0.00000000000E+00 0. -1.
         -5    1    3    3    0  503 -0.58897684283E+02  0.54731420002E+02 -0.13468177182E+03  0.15692589082E+03  0.47000000000E+01 0.  1.
         13    1    4    4    0    0 -0.41620809764E+00  0.17830610292E+02 -0.27381403488E+02  0.32677900017E+02  0.00000000000E+00 0. -1.
        -14    1    4    4    0    0  0.26289608089E+02 -0.66538325173E+02 -0.20651881529E+03  0.21856009077E+03  0.00000000000E+00 0.  1.
</event>
<event>
12    1  0.8196217E-002  0.2244341E+03  0.7818608E-02  0.1130703E+00
         21   -1    0    0  503  502  0.00000000000E+00  0.00000000000E+00  0.24431226515E+03  0.24431226515E+03  0.00000000000E+00 0. -1.
         21   -1    0    0  501  503 -0.00000000000E+00 -0.00000000000E+00 -0.29125740952E+03  0.29125740952E+03  0.00000000000E+00 0.  1.
          6    2    1    2  501    0  0.10245090165E+03 -0.10153661977E+03 -0.16858207356E+03  0.28069662253E+03  0.17194419434E+03 0.  0.
         24    2    3    3    0    0  0.13216444888E+03 -0.82362304922E+02 -0.94938177889E+02  0.19886714979E+03  0.79271021347E+02 0.  0.
         -6    2    1    2    0  502 -0.10245090165E+03  0.10153661977E+03  0.12163692919E+03  0.25487305214E+03  0.17134426678E+03 0.  0.
        -24    2    5    5    0    0 -0.13896612759E+03  0.95082711898E+02  0.10070730884E+03  0.21203435864E+03  0.80400873568E+02 0.  0.
          5    1    3    3  501    0 -0.29713547226E+02 -0.19174314852E+02 -0.73643895674E+02  0.81829472740E+02  0.47000000000E+01 0. -1.
        -11    1    4    4    0    0 -0.19591910410E+01  0.10521467178E+02 -0.11180339589E+02  0.15477069957E+02  0.00000000000E+00 0.  1.
         12    1    4    4    0    0  0.13412363992E+03 -0.92883772100E+02 -0.83757838300E+02  0.18339007983E+03  0.00000000000E+00 0. -1.
         -5    1    5    5    0  502  0.36515225942E+02  0.64539078765E+01  0.20929620344E+02  0.42838693494E+02  0.47000000000E+01 0.  1.
         11    1    6    6    0    0 -0.12485530028E+02  0.12378758125E+02  0.49410442876E+02  0.52445342767E+02  0.00000000000E+00 0. -1.
        -12    1    6    6    0    0 -0.12648059757E+03  0.82703953773E+02  0.51296865969E+02  0.15958901588E+03  0.00000000000E+00 0.  1.
</event>
<event>
12    1  0.8196217E-002  0.2059291E+03  0.7818608E-02  0.1144863E+00
         21   -1    0    0  501  502  0.00000000000E+00  0.00000000000E+00  0.15249901294E+02  0.15249901294E+02  0.00000000000E+00 0. -1.
         21   -1    0    0  502  503 -0.00000000000E+00 -0.00000000000E+00 -0.34674896957E+04  0.34674896957E+04  0.00000000000E+00 0. -1.
         -6    2    1    2    0  503  0.80549973987E+02  0.79352417396E+02 -0.25017324595E+04  0.25101806150E+04  0.17191950629E+03 0.  0.
        -24    2    3    3    0    0  0.86389037903E+02  0.68515935960E+02 -0.24851730390E+04  0.24890186585E+04  0.83494605720E+02 0.  0.
          6    2    1    2  501    0 -0.80549973987E+02 -0.79352417396E+02 -0.95050733486E+03  0.97255898193E+03  0.17210948624E+03 0.  0.
         24    2    5    5    0    0 -0.74809736350E+02 -0.12157614953E+02 -0.32753230903E+03  0.34592666182E+03  0.81507899263E+02 0.  0.
          5    1    5    5  501    0 -0.57402376372E+01 -0.67194802443E+02 -0.62297502582E+03  0.62663232011E+03  0.47000000000E+01 0. -1.
        -11    1    6    6    0    0  0.14498594930E+02 -0.11972876266E+01 -0.10322819208E+03  0.10424827285E+03  0.00000000000E+00 0.  1.
         12    1    6    6    0    0 -0.89308331281E+02 -0.10960327326E+02 -0.22430411696E+03  0.24167838897E+03  0.00000000000E+00 0. -1.
         -5    1    3    3    0  503 -0.58390639159E+01  0.10836481436E+02 -0.16559420554E+02  0.21161956583E+02  0.47000000000E+01 0.  1.
         11    1    4    4    0    0  0.44244695370E+02 -0.28185660253E+01 -0.13938874211E+04  0.13945922989E+04  0.00000000000E+00 0. -1.
        -12    1    4    4    0    0  0.42144342533E+02  0.71334501985E+02 -0.10912856179E+04  0.10944263596E+04  0.00000000000E+00 0.  1.
</event>
<event>
12    1  0.8196217E-002  0.1863666E+03  0.7818608E-02  0.1161805E+00
         21   -1    0    0  503  502  0.00000000000E+00  0.00000000000E+00  0.19044516299E+04  0.19044516299E+04  0.00000000000E+00 0.  1.
         21   -1    0    0  501  503 -0.00000000000E+00 -0.00000000000E+00 -0.22565603600E+02  0.22565603600E+02  0.00000000000E+00 0. -1.
          6    2    1    2  501    0  0.12712879588E+02  0.70249196651E+02  0.51867865390E+03  0.55114430860E+03  0.17215091040E+03 0.  0.
         24    2    3    3    0    0  0.11792526717E+02 -0.29291400048E+02  0.26589667253E+03  0.27942754882E+03  0.79885322633E+02 0.  0.
         -6    2    1    2    0  502 -0.12712879588E+02 -0.70249196651E+02  0.13632073724E+04  0.13758729249E+04  0.17203313162E+03 0.  0.
        -24    2    5    5    0    0 -0.57521617959E+01  0.24284488615E+02  0.44593276709E+03  0.45370164971E+03  0.79789287705E+02 0.  0.
          5    1    3    3  501    0  0.92035287047E+00  0.99540596699E+02  0.25278198137E+03  0.27171675978E+03  0.47000000000E+01 0. -1.
        -11    1    4    4    0    0  0.16327920495E+02  0.10666892393E+02  0.20812708079E+03  0.20903890867E+03  0.00000000000E+00 0.  1.
         12    1    4    4    0    0 -0.45353937776E+01 -0.39958292441E+02  0.57769591740E+02  0.70388640144E+02  0.00000000000E+00 0. -1.
         -5    1    5    5    0  502 -0.69607177917E+01 -0.94533685267E+02  0.91727460535E+03  0.92217127524E+03  0.47000000000E+01 0.  1.
         13    1    6    6    0    0 -0.64569127555E+01  0.45772259785E+02  0.40344055073E+03  0.40608012690E+03  0.00000000000E+00 0. -1.
        -14    1    6    6    0    0  0.70475095965E+00 -0.21487771170E+02  0.42492216359E+02  0.47621522811E+02  0.00000000000E+00 0.  1.
</event>
<event>
12    1  0.8196217E-002  0.1906979E+03  0.7818608E-02  0.1157892E+00
         21   -1    0    0  503  502  0.00000000000E+00  0.00000000000E+00  0.30304778003E+03  0.30304778003E+03  0.00000000000E+00 0.  1.
         21   -1    0    0  501  503 -0.00000000000E+00 -0.00000000000E+00 -0.19773259375E+03  0.19773259375E+03  0.00000000000E+00 0.  1.
          6    2    1    2  501    0 -0.36685680383E+02  0.73242018434E+02 -0.10448018733E+03  0.21744375808E+03  0.17220756654E+03 0.  0.
         24    2    3    3    0    0  0.15287116601E+02  0.54527870878E+02 -0.12561798305E+03  0.15811174857E+03  0.77540071797E+02 0.  0.
         -6    2    1    2    0  502  0.36685680383E+02 -0.73242018434E+02  0.20979537361E+03  0.28333661569E+03  0.17191656870E+03 0.  0.
        -24    2    5    5    0    0 -0.24033747952E+02 -0.32192710560E+02  0.38876111928E+02  0.97306030387E+02  0.79643705446E+02 0.  0.
          5    1    3    3  501    0 -0.51972796983E+02  0.18714147556E+02  0.21137795717E+02  0.59332009513E+02  0.47000000000E+01 0. -1.
        -11    1    4    4    0    0  0.24097559415E+02  0.61874205834E+02 -0.54016785760E+02  0.85597446581E+02  0.00000000000E+00 0.  1.
         12    1    4    4    0    0 -0.88104428144E+01 -0.73463349559E+01 -0.71601197288E+02  0.72514301989E+02  0.00000000000E+00 0. -1.
         -5    1    5    5    0  502  0.60719428334E+02 -0.41049307874E+02  0.17091926169E+03  0.18603058531E+03  0.47000000000E+01 0.  1.
         13    1    6    6    0    0 -0.19470536756E+02 -0.55993225627E+01 -0.22490178345E+02  0.30269825515E+02  0.00000000000E+00 0. -1.
        -14    1    6    6    0    0 -0.45632111958E+01 -0.26593387998E+02  0.61366290274E+02  0.67036204871E+02  0.00000000000E+00 0.  1.
</event>
<event>
12    1  0.8196217E-002  0.1790803E+03  0.7818608E-02  0.1168777E+00
         21   -1    0    0  501  502  0.00000000000E+00  0.00000000000E+00  0.20214747974E+02  0.20214747974E+02  0.00000000000E+00 0. -1.
         21   -1    0    0  502  503 -0.00000000000E+00 -0.00000000000E+00 -0.16020488435E+04  0.16020488435E+04  0.00000000000E+00 0. -1.
         -6    2    1    2    0  503 -0.35571217946E+02  0.35865595796E+02 -0.70299362721E+03  0.72536318590E+03  0.17146445420E+03 0.  0.
        -24    2    3    3    0    0 -0.54726391198E+02  0.40320747032E+02 -0.69611172915E+03  0.70400388919E+03  0.80182267371E+02 0.  0.
          6    2    1    2  501    0  0.35571217946E+02 -0.35865595796E+02 -0.87884046829E+03  0.89690040555E+03  0.17180837074E+03 0.  0.
         24    2    5    5    0    0  0.22948924762E+02  0.39019079290E+02 -0.62084223690E+03  0.62791673643E+03  0.82372344151E+02 0.  0.
          5    1    5    5  501    0  0.12622293183E+02 -0.74884675086E+02 -0.25799823140E+03  0.26898366912E+03  0.47000000000E+01 0. -1.
        -13    1    6    6    0    0  0.48996546859E+02  0.45492452347E+02 -0.46453885697E+03  0.46932565928E+03  0.00000000000E+00 0.  1.
         14    1    6    6    0    0 -0.26047622096E+02 -0.64733730569E+01 -0.15630337993E+03  0.15859107715E+03  0.00000000000E+00 0. -1.
         -5    1    3    3    0  503  0.19155173252E+02 -0.44551512366E+01 -0.68818980530E+01  0.21359296704E+02  0.47000000000E+01 0.  1.
         11    1    4    4    0    0  0.21134585595E+02  0.86761200179E+01 -0.16273086194E+03  0.16432674522E+03  0.00000000000E+00 0. -1.
        -12    1    4    4    0    0 -0.75860976793E+02  0.31644627015E+02 -0.53338086722E+03  0.53967714398E+03  0.00000000000E+00 0.  1.
</event>
<event>
12    1  0.8196217E-002  0.2173932E+03  0.7818608E-02  0.1135858E+00
         21   -1    0    0  503  502  0.00000000000E+00  0.00000000000E+00  0.17211168997E+03  0.17211168997E+03  0.00000000000E+00 0.  1.
         21   -1    0    0  501  503 -0.00000000000E+00 -0.00000000000E+00 -0.30792666331E+03  0.30792666331E+03  0.00000000000E+00 0. -1.
          6    2    1    2  501    0 -0.12056785755E+03  0.54558061154E+02 -0.14700054173E+03  0.26235757721E+03  0.17236342055E+03 0.  0.
         24    2    3    3    0    0 -0.10515102997E+03  0.49782512025E+02 -0.17830183806E+03  0.22682807407E+03  0.78258495527E+02 0.  0.
         -6    2    1    2    0  502  0.12056785755E+03 -0.54558061154E+02  0.11185568385E+02  0.21768077606E+03  0.17247206445E+03 0.  0.
        -24    2    5    5    0    0  0.10144465330E+03 -0.90023611243E+02 -0.29498221965E+02  0.16022850909E+03  0.80048496298E+02 0.  0.
          5    1    3    3  501    0 -0.15416827580E+02  0.47755491292E+01  0.31301296329E+02  0.35529503149E+02  0.47000000000E+01 0. -1.
        -13    1    4    4    0    0 -0.53587744929E+01 -0.14762819319E+02 -0.46099118901E+01  0.16367913305E+02  0.00000000000E+00 0.  1.
         14    1    4    4    0    0 -0.99792255474E+02  0.64545331344E+02 -0.17369192617E+03  0.21046016076E+03  0.00000000000E+00 0. -1.
         -5    1    5    5    0  502  0.19123204245E+02  0.35465550089E+02  0.40683790350E+02  0.57452266978E+02  0.47000000000E+01 0.  1.
         11    1    6    6    0    0  0.83566128388E+02 -0.21748571343E+02 -0.94878407794E+01  0.86869541797E+02  0.00000000000E+00 0. -1.
        -12    1    6    6    0    0  0.17878524915E+02 -0.68275039900E+02 -0.20010381186E+02  0.73358967289E+02  0.00000000000E+00 0.  1.
</event>
<event>
12    1  0.8196217E-002  0.1818232E+03  0.7818608E-02  0.1166256E+00
         21   -1    0    0  501  502  0.00000000000E+00  0.00000000000E+00  0.43808958219E+02  0.43808958219E+02  0.00000000000E+00 0. -1.
         21   -1    0    0  502  503 -0.00000000000E+00 -0.00000000000E+00 -0.90702707894E+03  0.90702707894E+03  0.00000000000E+00 0.  1.
         -6    2    1    2    0  503 -0.59155833595E+02 -0.14289774598E+02 -0.62959578067E+03  0.65532475410E+03  0.17133614912E+03 0.  0.
        -24    2    3    3    0    0 -0.93059354171E+01  0.54135497710E+02 -0.35269624884E+03  0.36573457650E+03  0.79686159104E+02 0.  0.
          6    2    1    2  501    0  0.59155833595E+02  0.14289774598E+02 -0.23362234005E+03  0.29551128305E+03  0.17042274008E+03 0.  0.
         24    2    5    5    0    0 -0.25765477508E+01  0.60650569339E+02 -0.12726558743E+03  0.16400440482E+03  0.83760282333E+02 0.  0.
          5    1    5    5  501    0  0.61732381346E+02 -0.46360794740E+02 -0.10635675261E+03  0.13150687823E+03  0.47000000000E+01 0. -1.
        -11    1    6    6    0    0 -0.41253187839E+02  0.37654183341E+02 -0.51994517026E+02  0.76309192308E+02  0.00000000000E+00 0.  1.
         12    1    6    6    0    0  0.38676640088E+02  0.22996385998E+02 -0.75271070409E+02  0.87695212514E+02  0.00000000000E+00 0. -1.
         -5    1    3    3    0  503 -0.49849898178E+02 -0.68425272308E+02 -0.27689953182E+03  0.28959017760E+03  0.47000000000E+01 0.  1.
         11    1    4    4    0    0 -0.44567371109E+02  0.25494757699E+02 -0.18423278111E+03  0.19125362970E+03  0.00000000000E+00 0. -1.
        -12    1    4    4    0    0  0.35261435692E+02  0.28640740011E+02 -0.16846346774E+03  0.17448094680E+03  0.00000000000E+00 0.  1.
</event>
<event>
12    1  0.8196217E-002  0.1885499E+03  0.7818608E-02  0.1160307E+00
         21   -1    0    0  503  502  0.00000000000E+00  0.00000000000E+00  0.12806183246E+03  0.12806183246E+03  0.00000000000E+00 0. -1.
         21   -1    0    0  501  503 -0.00000000000E+00 -0.00000000000E+00 -0.52568764435E+03  0.52568764435E+03  0.00000000000E+00 0. -1.
          6    2    1    2  501    0 -0.60572268477E+02 -0.41023661908E+02 -0.42425269928E+03  0.46332872598E+03  0.17126358318E+03 0.  0.
         24    2    3    3    0    0  0.20063051169E+02 -0.60028762458E+02 -0.20107842448E+03  0.22522770633E+03  0.79303269578E+02 0.  0.
         -6    2    1    2    0  502  0.60572268477E+02  0.41023661908E+02  0.26626887391E+02  0.19042075082E+03  0.17377897073E+03 0.  0.
        -24    2    5    5    0    0  0.63583890863E+02 -0.36808126802E+02  0.31335818813E+02  0.11224709005E+03  0.78865241447E+02 0.  0.
          5    1    3    3  501    0 -0.80635319646E+02  0.19005100550E+02 -0.22317427481E+03  0.23810101965E+03  0.47000000000E+01 0. -1.
        -11    1    4    4    0    0 -0.11362034053E+02 -0.64789815076E+02 -0.16207084507E+03  0.17491076233E+03  0.00000000000E+00 0.  1.
         12    1    4    4    0    0  0.31425085221E+02  0.47610526174E+01 -0.39007579406E+02  0.50316944008E+02  0.00000000000E+00 0. -1.
         -5    1    5    5    0  502 -0.30116223861E+01  0.77831788710E+02 -0.47089314223E+01  0.78173660771E+02  0.47000000000E+01 0.  1.
         11    1    6    6    0    0  0.53566780451E+02  0.65142239341E+01  0.39712746489E+02  0.66999532200E+02  0.00000000000E+00 0. -1.
        -12    1    6    6    0    0  0.10017110412E+02 -0.43322350736E+02 -0.83769276756E+01  0.45247557852E+02  0.00000000000E+00 0.  1.
</event>
<event>
12    1  0.8196217E-002  0.2582381E+03  0.7818608E-02  0.1108848E+00
         21   -1    0    0  503  502  0.00000000000E+00  0.00000000000E+00  0.77889319121E+03  0.77889319121E+03  0.00000000000E+00 0.  1.
         21   -1    0    0  501  503 -0.00000000000E+00 -0.00000000000E+00 -0.84261394834E+02  0.84261394834E+02  0.00000000000E+00 0. -1.
          6    2    1    2  501    0  0.15308130918E+03 -0.11503224001E+03  0.35823576127E+03  0.44161041043E+03  0.17326451017E+03 0.  0.
         24    2    3    3    0    0  0.16370656458E+03 -0.13825349310E+03  0.34044833639E+03  0.41013653029E+03  0.79956463704E+02 0.  0.
         -6    2    1    2    0  502 -0.15308130918E+03  0.11503224001E+03  0.33639603511E+03  0.42154417562E+03  0.16694578790E+03 0.  0.
        -24    2    5    5    0    0 -0.23682810012E+02  0.33794061956E+02  0.19068602793E+03  0.21036389871E+03  0.78669527275E+02 0.  0.
          5    1    3    3  501    0 -0.10625255400E+02  0.23221253084E+02  0.17787424877E+02  0.31473880137E+02  0.47000000000E+01 0. -1.
        -13    1    4    4    0    0 -0.91441402654E+01 -0.89244479347E+01  0.21093805418E+02  0.24661907857E+02  0.00000000000E+00 0.  1.
         14    1    4    4    0    0  0.17285070484E+03 -0.12932904516E+03  0.31935453097E+03  0.38547462244E+03  0.00000000000E+00 0. -1.
         -5    1    5    5    0  502 -0.12939849917E+03  0.81238178057E+02  0.14571000719E+03  0.21118027691E+03  0.47000000000E+01 0.  1.
         11    1    6    6    0    0 -0.13615470681E+02  0.20121123941E+02  0.61670932098E+01  0.25065388670E+02  0.00000000000E+00 0. -1.
        -12    1    6    6    0    0 -0.10067339331E+02  0.13672938016E+02  0.18451893472E+03  0.18529851004E+03  0.00000000000E+00 0.  1.
</event>
<event>
12    1  0.8196217E-002  0.1782636E+03  0.7818608E-02  0.1170139E+00
         21   -1    0    0  503  502  0.00000000000E+00  0.00000000000E+00  0.40509094382E+03  0.40509094382E+03  0.00000000000E+00 0. -1.
         21   -1    0    0  501  503 -0.00000000000E+00 -0.00000000000E+00 -0.28907790689E+03  0.28907790689E+03  0.00000000000E+00 0. -1.
          6    2    1    2  501    0  0.47181012802E+02  0.68456120213E+01 -0.23895238722E+03  0.29812105988E+03  0.17177023204E+03 0.  0.
         24    2    3    3    0    0 -0.98387205340E+01 -0.51107276392E+02 -0.11258053967E+03  0.14778237185E+03  0.80352332858E+02 0.  0.
         -6    2    1    2    0  502 -0.47181012802E+02 -0.68456120213E+01  0.35496542416E+03  0.39604779083E+03  0.16905765259E+03 0.  0.
        -24    2    5    5    0    0 -0.28563142002E+02  0.60558173237E+02  0.18960535575E+03  0.21644840997E+03  0.80103544387E+02 0.  0.
          5    1    3    3  501    0  0.57019733336E+02  0.57952888413E+02 -0.12637184756E+03  0.15033868803E+03  0.47000000000E+01 0. -1.
        -11    1    4    4    0    0  0.18450971023E+02 -0.27341596189E+02 -0.41684119131E+01  0.33247208481E+02  0.00000000000E+00 0.  1.
         12    1    4    4    0    0 -0.28289691557E+02 -0.23765680202E+02 -0.10841212775E+03  0.11453516337E+03  0.00000000000E+00 0. -1.
         -5    1    5    5    0  502 -0.18617870800E+02 -0.67403785258E+02  0.16536006841E+03  0.17959938085E+03  0.47000000000E+01 0.  1.
         11    1    6    6    0    0 -0.30983236974E+01  0.52989791992E+02  0.45493219566E+02  0.69908158977E+02  0.00000000000E+00 0. -1.
        -12    1    6    6    0    0 -0.25464818304E+02  0.75683812447E+01  0.14411213619E+03  0.14654025100E+03  0.00000000000E+00 0.  1.
</event>
<event>
12    1  0.8196217E-002  0.2308294E+03  0.7818608E-02  0.1126166E+00
         21   -1    0    0  503  502  0.00000000000E+00  0.00000000000E+00  0.94636233409E+03  0.94636233409E+03  0.00000000000E+00 0. -1.
         21   -1    0    0  501  503 -0.00000000000E+00 -0.00000000000E+00 -0.63349961752E+02  0.63349961752E+02  0.00000000000E+00 0.  1.
          6    2    1    2  501    0  0.11487257598E+03  0.10176680334E+03  0.27080415653E+03  0.35543321232E+03  0.17159745409E+03 0.  0.
         24    2    3    3    0    0  0.10988763581E+03  0.19178439271E+02  0.21858297401E+03  0.25748001221E+03  0.77938021033E+02 0.  0.
         -6    2    1    2    0  502 -0.11487257598E+03 -0.10176680334E+03  0.61220821581E+03  0.65427908353E+03  0.17242397936E+03 0.  0.
        -24    2    5    5    0    0  0.97173116605E+01 -0.60495682728E+02  0.23780534164E+03  0.25751019905E+03  0.77498182740E+02 0.  0.
          5    1    3    3  501    0  0.49849401693E+01  0.82588364066E+02  0.52221182515E+02  0.97953200105E+02  0.47000000000E+01 0. -1.
        -11    1    4    4    0    0  0.31964699837E+02 -0.10104016006E+02  0.13487629659E+02  0.36135153645E+02  0.00000000000E+00 0.  1.
         12    1    4    4    0    0  0.77922935978E+02  0.29282455277E+02  0.20509534435E+03  0.22134485857E+03  0.00000000000E+00 0. -1.
         -5    1    5    5    0  502 -0.12458988764E+03 -0.41271120609E+02  0.37440287417E+03  0.39676888448E+03  0.47000000000E+01 0.  1.
         11    1    6    6    0    0 -0.34022684766E+01 -0.18347994341E+02  0.19543417708E+03  0.19632305493E+03  0.00000000000E+00 0. -1.
        -12    1    6    6    0    0  0.13119580137E+02 -0.42147688387E+02  0.42371164565E+02  0.61187144124E+02  0.00000000000E+00 0.  1.
</event>
<event>
12    1  0.8196217E-002  0.1742212E+03  0.7818608E-02  0.1174140E+00
         21   -1    0    0  501  502  0.00000000000E+00  0.00000000000E+00  0.69451566104E+02  0.69451566104E+02  0.00000000000E+00 0.  1.
         21   -1    0    0  502  503 -0.00000000000E+00 -0.00000000000E+00 -0.92800608848E+03  0.92800608848E+03  0.00000000000E+00 0.  1.
         -6    2    1    2    0  503  0.21288276511E+02 -0.72586576360E+01 -0.79570053741E+03  0.81455041426E+03  0.17276328693E+03 0.  0.
        -24    2    3    3    0    0 -0.42343371455E+02 -0.15735791714E+02 -0.62455465235E+03  0.63170115285E+03  0.83290194466E+02 0.  0.
          6    2    1    2  501    0 -0.21288276511E+02  0.72586576360E+01 -0.62853984960E+02  0.18290724032E+03  0.17028962478E+03 0.  0.
         24    2    5    5    0    0 -0.75585545060E+01  0.64522823537E+02 -0.68261243812E+02  0.12358592534E+03  0.79959721307E+02 0.  0.
          5    1    5    5  501    0 -0.13729722005E+02 -0.57264165901E+02  0.54072588520E+01  0.59321314980E+02  0.47000000000E+01 0. -1.
        -11    1    6    6    0    0  0.30402783289E+02  0.15292335050E+02 -0.41514997828E+01  0.34284394313E+02  0.00000000000E+00 0.  1.
         12    1    6    6    0    0 -0.37961337795E+02  0.49230488487E+02 -0.64109744029E+02  0.89301531024E+02  0.00000000000E+00 0. -1.
         -5    1    3    3    0  503  0.63631647966E+02  0.84771340780E+01 -0.17114588506E+03  0.18284926141E+03  0.47000000000E+01 0.  1.
         13    1    4    4    0    0 -0.19218827228E+02  0.25399742994E+01 -0.26053143394E+02  0.32474314006E+02  0.00000000000E+00 0. -1.
        -14    1    4    4    0    0 -0.23124544226E+02 -0.18275766013E+02 -0.59850150896E+03  0.59922683885E+03  0.00000000000E+00 0.  1.
</event>
<event>
12    1  0.8196217E-002  0.1751930E+03  0.7818608E-02  0.1173027E+00
         21   -1    0    0  501  502  0.00000000000E+00  0.00000000000E+00  0.26271780960E+03  0.26271780960E+03  0.00000000000E+00 0.  1.
         21   -1    0    0  502  503 -0.00000000000E+00 -0.00000000000E+00 -0.14230163267E+03  0.14230163267E+03  0.00000000000E+00 0.  1.
         -6    2    1    2    0  503 -0.22446218354E+02  0.22543110727E+02 -0.27887421030E+02  0.17548391837E+03  0.17030817008E+03 0.  0.
        -24    2    3    3    0    0 -0.33529608134E+02 -0.38072237579E+02  0.19329840698E+02  0.97711032447E+02  0.81240834711E+02 0.  0.
          6    2    1    2  501    0  0.22446218354E+02 -0.22543110727E+02  0.14830359797E+03  0.22953552390E+03  0.17228051255E+03 0.  0.
         24    2    5    5    0    0  0.16362184919E+02  0.19299337107E+02  0.16317148781E+03  0.18446946071E+03  0.82242701763E+02 0.  0.
          5    1    5    5  501    0  0.60840334348E+01 -0.41842447833E+02 -0.14867889838E+02  0.45066063194E+02  0.47000000000E+01 0. -1.
        -11    1    6    6    0    0 -0.30725602900E+02 -0.73078385217E+01  0.51998149577E+02  0.60838102673E+02  0.00000000000E+00 0.  1.
         12    1    6    6    0    0  0.47087787820E+02  0.26607175629E+02  0.11117333823E+03  0.12363135804E+03  0.00000000000E+00 0. -1.
         -5    1    3    3    0  503  0.11083389780E+02  0.60615348306E+02 -0.47217261728E+02  0.77772885920E+02  0.47000000000E+01 0.  1.
         13    1    4    4    0    0  0.46117511389E+01 -0.36032657148E+02 -0.21166621387E+02  0.42043388192E+02  0.00000000000E+00 0. -1.
        -14    1    4    4    0    0 -0.38141359273E+02 -0.20395804310E+01  0.40496462085E+02  0.55667644255E+02  0.00000000000E+00 0.  1.
</event>
<event>
12    1  0.8196217E-002  0.1941825E+03  0.7818608E-02  0.1155003E+00
         21   -1    0    0  503  502  0.00000000000E+00  0.00000000000E+00  0.82532284035E+02  0.82532284035E+02  0.00000000000E+00 0. -1.
         21   -1    0    0  501  503 -0.00000000000E+00 -0.00000000000E+00 -0.47433093525E+03  0.47433093525E+03  0.00000000000E+00 0.  1.
          6    2    1    2  501    0 -0.83148919089E+02  0.27033510730E+02 -0.25284691313E+03  0.31808631448E+03  0.17205460915E+03 0.  0.
         24    2    3    3    0    0 -0.45900685438E+02  0.76512332421E+02 -0.21128768454E+03  0.24335449939E+03  0.81350579576E+02 0.  0.
         -6    2    1    2    0  502  0.83148919089E+02 -0.27033510730E+02 -0.13895173808E+03  0.23877690480E+03  0.17338474934E+03 0.  0.
        -24    2    5    5    0    0  0.97836835005E+02  0.19545901388E+02 -0.49233715184E+02  0.13651845704E+03  0.79115370541E+02 0.  0.
          5    1    3    3  501    0 -0.37248233650E+02 -0.49478821690E+02 -0.41559228594E+02  0.74731815094E+02  0.47000000000E+01 0. -1.
        -11    1    4    4    0    0  0.17506173796E+02  0.42025048775E+02 -0.10936761853E+03  0.11846453828E+03  0.00000000000E+00 0.  1.
         12    1    4    4    0    0 -0.63406859234E+02  0.34487283646E+02 -0.10192006601E+03  0.12488996111E+03  0.00000000000E+00 0. -1.
         -5    1    5    5    0  502 -0.14687915917E+02 -0.46579412119E+02 -0.89718022896E+02  0.10225844777E+03  0.47000000000E+01 0.  1.
         11    1    6    6    0    0  0.90596233400E+02  0.24908645218E+02 -0.79846000416E+01  0.94296722905E+02  0.00000000000E+00 0. -1.
        -12    1    6    6    0    0  0.72406016051E+01 -0.53627438299E+01 -0.41249115142E+02  0.42221734131E+02  0.00000000000E+00 0.  1.
</event>
<event>
12    1  0.8196217E-002  0.2360809E+03  0.7818608E-02  0.1122679E+00
         21   -1    0    0  501  502  0.00000000000E+00  0.00000000000E+00  0.63129563122E+03  0.63129563122E+03  0.00000000000E+00 0.  1.
         21   -1    0    0  502  503 -0.00000000000E+00 -0.00000000000E+00 -0.19213980974E+03  0.19213980974E+03  0.00000000000E+00 0.  1.
         -6    2    1    2    0  503 -0.86136814934E+02 -0.13460419734E+03 -0.83593620938E+02  0.25044380614E+03  0.17377101526E+03 0.  0.
        -24    2    3    3    0    0 -0.36673417958E+01 -0.92316176691E+02  0.78517185374E+01  0.12016015098E+03  0.76427001283E+02 0.  0.
          6    2    1    2  501    0  0.86136814934E+02  0.13460419734E+03  0.52274944242E+03  0.57299163482E+03  0.17179811754E+03 0.  0.
         24    2    5    5    0    0  0.51522226725E+01  0.11094384642E+03  0.40959365749E+03  0.43176614826E+03  0.79498176539E+02 0.  0.
          5    1    5    5  501    0  0.80984592261E+02  0.23660350917E+02  0.11315578494E+03  0.14122548656E+03  0.47000000000E+01 0. -1.
        -11    1    6    6    0    0 -0.66905275973E+01  0.81264637402E+02  0.15466615381E+03  0.17484371189E+03  0.00000000000E+00 0.  1.
         12    1    6    6    0    0  0.11842750270E+02  0.29679209020E+02  0.25492750368E+03  0.25692243637E+03  0.00000000000E+00 0. -1.
         -5    1    3    3    0  503 -0.82469473138E+02 -0.42288020648E+02 -0.91445339476E+02  0.13028365516E+03  0.47000000000E+01 0.  1.
         13    1    4    4    0    0  0.23639615860E+02 -0.11502225937E+00 -0.43473414334E+00  0.23643892698E+02  0.00000000000E+00 0. -1.
        -14    1    4    4    0    0 -0.27306957656E+02 -0.92201154432E+02  0.82864526807E+01  0.96516258283E+02  0.00000000000E+00 0.  1.
</event>
<event>
12    1  0.8196217E-002  0.1982135E+03  0.7818608E-02  0.1151537E+00
         21   -1    0    0  501  502  0.00000000000E+00  0.00000000000E+00  0.27408713760E+02  0.27408713760E+02  0.00000000000E+00 0.  1.
         21   -1    0    0  502  503 -0.00000000000E+00 -0.00000000000E+00 -0.14240870715E+04  0.14240870715E+04  0.00000000000E+00 0.  1.
         -6    2    1    2    0  503 -0.84755719065E+02  0.47342747617E+02 -0.70370175076E+03  0.73072871737E+03  0.17129926067E+03 0.  0.
        -24    2    3    3    0    0 -0.86112287296E+02  0.27715611503E+01 -0.26749993161E+03  0.29222837761E+03  0.80113692315E+02 0.  0.
          6    2    1    2  501    0  0.84755719065E+02 -0.47342747617E+02 -0.69297660694E+03  0.72076706784E+03  0.17281122839E+03 0.  0.
         24    2    5    5    0    0 -0.84432368532E+00  0.57277990547E+01 -0.14535369390E+03  0.16393963036E+03  0.75597523173E+02 0.  0.
          5    1    5    5  501    0  0.85600042750E+02 -0.53070546672E+02 -0.54762291304E+03  0.55682743748E+03  0.47000000000E+01 0. -1.
        -11    1    6    6    0    0  0.24116601104E+02  0.55916207564E+01 -0.13443377817E+03  0.13669424782E+03  0.00000000000E+00 0.  1.
         12    1    6    6    0    0 -0.24960924789E+02  0.13617829823E+00 -0.10919915723E+02  0.27245382549E+02  0.00000000000E+00 0. -1.
         -5    1    3    3    0  503  0.13565682314E+01  0.44571186467E+02 -0.43620181915E+03  0.43850033977E+03  0.47000000000E+01 0.  1.
         13    1    4    4    0    0 -0.31320522106E+02 -0.27670204022E+02 -0.46542823393E+02  0.62552775358E+02  0.00000000000E+00 0. -1.
        -14    1    4    4    0    0 -0.54791765190E+02  0.30441765173E+02 -0.22095710821E+03  0.22967560225E+03  0.00000000000E+00 0.  1.
</event>
<event>
12    1  0.8196217E-002  0.1895753E+03  0.7818608E-02  0.1158993E+00
         21   -1    0    0  501  502  0.00000000000E+00  0.00000000000E+00  0.49368796748E+03  0.49368796748E+03  0.00000000000E+00 0.  1.
         21   -1    0    0  502  503 -0.00000000000E+00 -0.00000000000E+00 -0.17151820821E+03  0.17151820821E+03  0.00000000000E+00 0. -1.
         -6    2    1    2    0  503 -0.78561294255E+02 -0.16435566836E+02 -0.91452454823E+02  0.21048118193E+03  0.17174624200E+03 0.  0.
        -24    2    3    3    0    0 -0.79692364659E+02  0.47667583906E+02 -0.41230432324E+02  0.12890401110E+03  0.79329842989E+02 0.  0.
          6    2    1    2  501    0  0.78561294255E+02  0.16435566836E+02  0.41362221410E+03  0.45472499376E+03  0.17102479101E+03 0.  0.
         24    2    5    5    0    0  0.10634849837E+03  0.47505343353E+02  0.26748101357E+03  0.30268289361E+03  0.80647881010E+02 0.  0.
          5    1    5    5  501    0 -0.27787204118E+02 -0.31069776516E+02  0.14614120053E+03  0.15204210015E+03  0.47000000000E+01 0. -1.
        -11    1    6    6    0    0  0.46070081545E+02 -0.20820857124E+02  0.95513356362E+02  0.10806831982E+03  0.00000000000E+00 0.  1.
         12    1    6    6    0    0  0.60278416828E+02  0.68326200477E+02  0.17196765721E+03  0.19461457379E+03  0.00000000000E+00 0. -1.
         -5    1    3    3    0  503  0.11310704044E+01 -0.64103150743E+02 -0.50222022500E+02  0.81577170822E+02  0.47000000000E+01 0.  1.
         13    1    4    4    0    0 -0.12560154479E+02  0.43173813642E+02 -0.42127713518E+02  0.61615581724E+02  0.00000000000E+00 0. -1.
        -14    1    4    4    0    0 -0.67132210180E+02  0.44937702643E+01  0.89728119475E+00  0.67288429380E+02  0.00000000000E+00 0.  1.
</event>
<event>
12    1  0.8196217E-002  0.4419139E+03  0.7818608E-02  0.1030166E+00
         21   -1    0    0  503  502  0.00000000000E+00  0.00000000000E+00  0.10942833142E+04  0.10942833142E+04  0.00000000000E+00 0. -1.
         21   -1    0    0  501  503 -0.00000000000E+00 -0.00000000000E+00 -0.24418722851E+03  0.24418722851E+03  0.00000000000E+00 0.  1.
          6    2    1    2  501    0  0.37132522380E+03 -0.16657770040E+03  0.77755972179E+02  0.44864072478E+03  0.17205219154E+03 0.  0.
         24    2    3    3    0    0  0.21324641228E+03 -0.25275810481E+02  0.33949820270E+02  0.23208541154E+03  0.81228991156E+02 0.  0.
         -6    2    1    2    0  502 -0.37132522380E+03  0.16657770040E+03  0.77234011355E+03  0.88982981798E+03  0.17221295496E+03 0.  0.
        -24    2    5    5    0    0 -0.31811080477E+03  0.99389730828E+02  0.67840535067E+03  0.76258270670E+03  0.10112251009E+03 0.  0.
          5    1    3    3  501    0  0.15807881152E+03 -0.14130188992E+03  0.43806151909E+02  0.21655531324E+03  0.47000000000E+01 0. -1.
        -11    1    4    4    0    0  0.13690647594E+02 -0.16847735608E+02 -0.15066736674E+02  0.26425112689E+02  0.00000000000E+00 0.  1.
         12    1    4    4    0    0  0.19955576469E+03 -0.84280748730E+01  0.49016556944E+02  0.20566029885E+03  0.00000000000E+00 0. -1.
         -5    1    5    5    0  502 -0.53214419037E+02  0.67187969576E+02  0.93934762881E+02  0.12724711127E+03  0.47000000000E+01 0.  1.
         11    1    6    6    0    0  0.33109029096E+01  0.56164049190E+01  0.51106548372E+02  0.51520727564E+02  0.00000000000E+00 0. -1.
        -12    1    6    6    0    0 -0.32142170767E+03  0.93773325909E+02  0.62729880230E+03  0.71106197914E+03  0.00000000000E+00 0.  1.
</event>
<event>
12    1  0.8196217E-002  0.1835942E+03  0.7818608E-02  0.1164529E+00
         21   -1    0    0  501  502  0.00000000000E+00  0.00000000000E+00  0.36152185689E+03  0.36152185689E+03  0.00000000000E+00 0.  1.
         21   -1    0    0  502  503 -0.00000000000E+00 -0.00000000000E+00 -0.97007559720E+02  0.97007559720E+02  0.00000000000E+00 0.  1.
         -6    2    1    2    0  503 -0.36331388835E+02 -0.53309899319E+02  0.84809569582E+02  0.20162355362E+03  0.17116506390E+03 0.  0.
        -24    2    3    3    0    0 -0.32820043344E+02 -0.61843527745E+02  0.12403689923E+03  0.16105231069E+03  0.75172583032E+02 0.  0.
          6    2    1    2  501    0  0.36331388835E+02  0.53309899319E+02  0.17970472759E+03  0.25690586299E+03  0.17188635240E+03 0.  0.
         24    2    5    5    0    0  0.76683036999E+02  0.57600023783E+02  0.73799140063E+02  0.14339487609E+03  0.76926760706E+02 0.  0.
          5    1    5    5  501    0 -0.40351648164E+02 -0.42901244634E+01  0.10590558753E+03  0.11351098690E+03  0.47000000000E+01 0. -1.
        -13    1    6    6    0    0  0.38688237484E+02  0.15746610989E+02  0.76112149108E+02  0.86820474077E+02  0.00000000000E+00 0.  1.
         14    1    6    6    0    0  0.37994799515E+02  0.41853412794E+02 -0.23130090444E+01  0.56574402016E+02  0.00000000000E+00 0. -1.
         -5    1    3    3    0  503 -0.35113454907E+01  0.85336284255E+01 -0.39227329648E+02  0.40571242926E+02  0.47000000000E+01 0.  1.
         13    1    4    4    0    0 -0.54360159111E+02 -0.29348231766E+02  0.90793379552E+02  0.10981704502E+03  0.00000000000E+00 0. -1.
        -14    1    4    4    0    0  0.21540115767E+02 -0.32495295979E+02  0.33243519678E+02  0.51235265673E+02  0.00000000000E+00 0.  1.
</event>
<event>
12    1  0.8196217E-002  0.2964849E+03  0.7818608E-02  0.1087154E+00
         21   -1    0    0  503  502  0.00000000000E+00  0.00000000000E+00  0.77743844728E+03  0.77743844728E+03  0.00000000000E+00 0.  1.
         21   -1    0    0  501  503 -0.00000000000E+00 -0.00000000000E+00 -0.16818770627E+03  0.16818770627E+03  0.00000000000E+00 0. -1.
          6    2    1    2  501    0  0.23803479995E+03 -0.30793789078E+02  0.32517880739E+02  0.29714788967E+03  0.17213550575E+03 0.  0.
         24    2    3    3    0    0  0.24424097485E+03 -0.36821277035E+02  0.61325016918E+02  0.26670469154E+03  0.79756971790E+02 0.  0.
         -6    2    1    2    0  502 -0.23803479995E+03  0.30793789078E+02  0.57673286028E+03  0.64847826387E+03  0.17405298952E+03 0.  0.
        -24    2    5    5    0    0 -0.15283094071E+03  0.20258333975E+02  0.21140014685E+03  0.27316402894E+03  0.78491197496E+02 0.  0.
          5    1    3    3  501    0 -0.62061749038E+01  0.60274879570E+01 -0.28807136179E+02  0.30443198138E+02  0.47000000000E+01 0. -1.
        -11    1    4    4    0    0  0.34241218969E+02 -0.35653743430E+02  0.14918014157E+02  0.51635236451E+02  0.00000000000E+00 0.  1.
         12    1    4    4    0    0  0.20999975588E+03 -0.11675336048E+01  0.46407002761E+02  0.21506945508E+03  0.00000000000E+00 0. -1.
         -5    1    5    5    0  502 -0.85203859236E+02  0.10535455103E+02  0.36533271343E+03  0.37531423494E+03  0.47000000000E+01 0.  1.
         11    1    6    6    0    0 -0.73046296322E+02 -0.23224676682E+02  0.63286774180E+02  0.99400014082E+02  0.00000000000E+00 0. -1.
        -12    1    6    6    0    0 -0.79784644389E+02  0.43483010657E+02  0.14811337267E+03  0.17376401485E+03  0.00000000000E+00 0.  1.
</event>
<event>
12    1  0.8196217E-002  0.2350842E+03  0.7818608E-02  0.1123214E+00
         21   -1    0    0  503  502  0.00000000000E+00  0.00000000000E+00  0.36052812142E+03  0.36052812142E+03  0.00000000000E+00 0. -1.
         21   -1    0    0  501  503 -0.00000000000E+00 -0.00000000000E+00 -0.53808177329E+03  0.53808177329E+03  0.00000000000E+00 0.  1.
          6    2    1    2  501    0  0.77598961748E+02  0.11857012304E+03 -0.46895607757E+03  0.52458020304E+03  0.18757428871E+03 0.  0.
         24    2    3    3    0    0 -0.21911991925E+02  0.21952352604E+02 -0.24063187452E+03  0.25738840832E+03  0.85924691025E+02 0.  0.
         -6    2    1    2    0  502 -0.77598961748E+02 -0.11857012304E+03  0.29140242571E+03  0.37402969167E+03  0.18682174284E+03 0.  0.
        -24    2    5    5    0    0  0.28098686761E+01 -0.10211825002E+03  0.25092680726E+03  0.28239667456E+03  0.79671744370E+02 0.  0.
          5    1    3    3  501    0  0.99510953674E+02  0.96617770437E+02 -0.22832420306E+03  0.26719179472E+03  0.47000000000E+01 0. -1.
        -13    1    4    4    0    0  0.31373503134E+02  0.13204212124E+02 -0.12849901271E+03  0.13293097527E+03  0.00000000000E+00 0.  1.
         14    1    4    4    0    0 -0.53285495060E+02  0.87481404798E+01 -0.11213286180E+03  0.12445743305E+03  0.00000000000E+00 0. -1.
         -5    1    5    5    0  502 -0.80408830424E+02 -0.16451873020E+02  0.40475618456E+02  0.91633017114E+02  0.47000000000E+01 0.  1.
         11    1    6    6    0    0  0.23749456992E+02 -0.37672284279E+02  0.36696777387E+02  0.57705209304E+02  0.00000000000E+00 0. -1.
        -12    1    6    6    0    0 -0.20939588316E+02 -0.64445965743E+02  0.21423002987E+03  0.22469146525E+03  0.00000000000E+00 0.  1.
</event>
<event>
12    1  0.8196217E-002  0.2482293E+03  0.7818608E-02  0.1114692E+00
         21   -1    0    0  501  502  0.00000000000E+00  0.00000000000E+00  0.26630818110E+02  0.26630818110E+02  0.00000000000E+00 0.  1.
         21   -1    0    0  502  503 -0.00000000000E+00 -0.00000000000E+00 -0.26956910034E+04  0.26956910034E+04  0.00000000000E+00 0. -1.
         -6    2    1    2    0  503 -0.42122567982E+02 -0.17372053566E+03 -0.18532423918E+04  0.18695753926E+04  0.16985773581E+03 0.  0.
        -24    2    3    3    0    0 -0.50260718218E+02 -0.11863561886E+03 -0.16952863342E+04  0.17020260456E+04  0.79349574252E+02 0.  0.
          6    2    1    2  501    0  0.42122567982E+02  0.17372053566E+03 -0.81581779347E+03  0.85274642894E+03  0.17223433074E+03 0.  0.
         24    2    5    5    0    0  0.29034424371E+01  0.11242974207E+02 -0.21481365792E+03  0.22891539515E+03  0.78246508272E+02 0.  0.
          5    1    5    5  501    0  0.39219125545E+02  0.16247756145E+03 -0.60100413555E+03  0.62383103380E+03  0.47000000000E+01 0. -1.
        -11    1    6    6    0    0  0.60139949017E+01  0.35453743643E+02 -0.46207358900E+02  0.58551311595E+02  0.00000000000E+00 0.  1.
         12    1    6    6    0    0 -0.31105524646E+01 -0.24210769435E+02 -0.16860629903E+03  0.17036408355E+03  0.00000000000E+00 0. -1.
         -5    1    3    3    0  503  0.81381502356E+01 -0.55084916803E+02 -0.15795605761E+03  0.16754934701E+03  0.47000000000E+01 0.  1.
         11    1    4    4    0    0  0.11054302284E+01 -0.66897719616E+02 -0.11418145967E+04  0.11437731856E+04  0.00000000000E+00 0. -1.
        -12    1    4    4    0    0 -0.51366148446E+02 -0.51737899241E+02 -0.55347173753E+03  0.55825285998E+03  0.00000000000E+00 0.  1.
</event>
<event>
12    1  0.8196217E-002  0.2421448E+03  0.7818608E-02  0.1118572E+00
         21   -1    0    0  501  502  0.00000000000E+00  0.00000000000E+00  0.22527909622E+04  0.22527909622E+04  0.00000000000E+00 0.  1.
         21   -1    0    0  502  503 -0.00000000000E+00 -0.00000000000E+00 -0.50789431366E+02  0.50789431366E+02  0.00000000000E+00 0.  1.
         -6    2    1    2    0  503 -0.55307231918E+02 -0.16005381764E+03  0.29607227842E+03  0.38248253502E+03  0.17308374014E+03 0.  0.
        -24    2    3    3    0    0 -0.48591693850E+02 -0.16230226975E+02  0.81521752529E+02  0.12405586874E+03  0.78227165709E+02 0.  0.
          6    2    1    2  501    0  0.55307231918E+02  0.16005381764E+03  0.19059292524E+04  0.19210978585E+04  0.17139005942E+03 0.  0.
         24    2    5    5    0    0  0.81956448202E+02  0.58350477181E+02  0.11784173199E+04  0.11860132021E+04  0.88534163670E+02 0.  0.
          5    1    5    5  501    0 -0.26649216283E+02  0.10170334046E+03  0.72751193251E+03  0.73508465644E+03  0.47000000000E+01 0. -1.
        -11    1    6    6    0    0  0.10072315265E+03  0.53708601408E+02  0.10418023535E+04  0.10480371706E+04  0.00000000000E+00 0.  1.
         12    1    6    6    0    0 -0.18766704445E+02  0.46418757721E+01  0.13661496639E+03  0.13797603143E+03  0.00000000000E+00 0. -1.
         -5    1    3    3    0  503 -0.67155380685E+01 -0.14382359066E+03  0.21455052589E+03  0.25842666627E+03  0.47000000000E+01 0.  1.
         13    1    4    4    0    0 -0.61216733022E+02 -0.45641009193E+01  0.86583026401E+02  0.10613642108E+03  0.00000000000E+00 0. -1.
        -14    1    4    4    0    0  0.12625039172E+02 -0.11666126055E+02 -0.50612738724E+01  0.17919447660E+02  0.00000000000E+00 0.  1.
</event>
<event>
12    1  0.8196217E-002  0.1970245E+03  0.7818608E-02  0.1152698E+00
         21   -1    0    0  501  502  0.00000000000E+00  0.00000000000E+00  0.55218590398E+03  0.55218590398E+03  0.00000000000E+00 0.  1.
         21   -1    0    0  502  503 -0.00000000000E+00 -0.00000000000E+00 -0.97767258797E+02  0.97767258797E+02  0.00000000000E+00 0.  1.
         -6    2    1    2    0  503  0.62115517748E+02  0.77998654673E+02  0.53593456085E+02  0.20418350580E+03  0.16993092075E+03 0.  0.
        -24    2    3    3    0    0  0.62075222698E+02  0.23600976986E+02 -0.27392099655E+02  0.10651130300E+03  0.78638356765E+02 0.  0.
          6    2    1    2  501    0 -0.62115517748E+02 -0.77998654673E+02  0.40082518909E+03  0.44576965698E+03  0.16765329461E+03 0.  0.
         24    2    5    5    0    0 -0.48899330793E+02  0.76673507522E+01  0.29245036232E+03  0.30691532625E+03  0.78866153997E+02 0.  0.
          5    1    5    5  501    0 -0.13216186955E+02 -0.85666005425E+02  0.10837482677E+03  0.13885433073E+03  0.47000000000E+01 0. -1.
        -13    1    6    6    0    0 -0.26391728683E+02 -0.12806963863E+02  0.27454048838E+02  0.40177935038E+02  0.00000000000E+00 0.  1.
         14    1    6    6    0    0 -0.22507602110E+02  0.20474314616E+02  0.26499631348E+03  0.26673739121E+03  0.00000000000E+00 0. -1.
         -5    1    3    3    0  503  0.40295049761E-01  0.54397677687E+02  0.80985555741E+02  0.97672202801E+02  0.47000000000E+01 0.  1.
         13    1    4    4    0    0 -0.10452400878E+02  0.28361172583E+02 -0.71121458121E+01  0.31051431729E+02  0.00000000000E+00 0. -1.
        -14    1    4    4    0    0  0.72527623576E+02 -0.47601955967E+01 -0.20279953843E+02  0.75459871267E+02  0.00000000000E+00 0.  1.
</event>
<event>
12    1  0.8196217E-002  0.1915641E+03  0.7818608E-02  0.1157251E+00
         21   -1    0    0  501  502  0.00000000000E+00  0.00000000000E+00  0.66946811014E+02  0.66946811014E+02  0.00000000000E+00 0. -1.
         21   -1    0    0  502  503 -0.00000000000E+00 -0.00000000000E+00 -0.90877183658E+03  0.90877183658E+03  0.00000000000E+00 0. -1.
         -6    2    1    2    0  503  0.82556389147E+02 -0.79238972244E+01 -0.72871379609E+03  0.75325303903E+03  0.17172069955E+03 0.  0.
        -24    2    3    3    0    0  0.72926528371E+02 -0.28135212359E+02 -0.25159289480E+03  0.27558403655E+03  0.80856092989E+02 0.  0.
          6    2    1    2  501    0 -0.82556389147E+02  0.79238972244E+01 -0.11311122948E+03  0.22246560857E+03  0.17268019929E+03 0.  0.
         24    2    5    5    0    0 -0.38109555756E+02 -0.33378201080E+02 -0.10450126166E+01  0.94941841042E+02  0.80289591990E+02 0.  0.
          5    1    5    5  501    0 -0.44446833391E+02  0.41302098305E+02 -0.11206621686E+03  0.12752376753E+03  0.47000000000E+01 0. -1.
        -11    1    6    6    0    0 -0.20713461910E+02 -0.36285527238E+02 -0.36411776373E+02  0.55421155256E+02  0.00000000000E+00 0.  1.
         12    1    6    6    0    0 -0.17396093846E+02  0.29073261581E+01  0.35366763756E+02  0.39520685787E+02  0.00000000000E+00 0. -1.
         -5    1    3    3    0  503  0.96298607758E+01  0.20211315134E+02 -0.47712090129E+03  0.47766900247E+03  0.47000000000E+01 0.  1.
         11    1    4    4    0    0  0.57339458545E+02 -0.71415175665E+00 -0.23077248293E+03  0.23779037491E+03  0.00000000000E+00 0. -1.
        -12    1    4    4    0    0  0.15587069827E+02 -0.27421060602E+02 -0.20820411870E+02  0.37793661648E+02  0.00000000000E+00 0.  1.
</event>
<event>
12    1  0.8196217E-002  0.2047414E+03  0.7818608E-02  0.1146102E+00
         21   -1    0    0  503  502  0.00000000000E+00  0.00000000000E+00  0.30030149347E+03  0.30030149347E+03  0.00000000000E+00 0. -1.
         21   -1    0    0  501  503 -0.00000000000E+00 -0.00000000000E+00 -0.17677683171E+03  0.17677683171E+03  0.00000000000E+00 0. -1.
          6    2    1    2  501    0 -0.90305315654E+02 -0.65382524749E+02 -0.48935151840E+02  0.21050820255E+03  0.17172399273E+03 0.  0.
         24    2    3    3    0    0 -0.11998912396E+03 -0.85319521089E+02 -0.45797326616E+02  0.17430670747E+03  0.81293435139E+02 0.  0.
         -6    2    1    2    0  502  0.90305315654E+02  0.65382524749E+02  0.17245981360E+03  0.26657012262E+03  0.16996269706E+03 0.  0.
        -24    2    5    5    0    0  0.69433221686E+02  0.96286352465E+02  0.17905246322E+03  0.22840935870E+03  0.77582321528E+02 0.  0.
          5    1    3    3  501    0  0.29683808310E+02  0.19936996340E+02 -0.31378252236E+01  0.36201495079E+02  0.47000000000E+01 0. -1.
        -11    1    4    4    0    0 -0.53405194780E+02  0.75228582019E+01 -0.14719018344E+02  0.55904898945E+02  0.00000000000E+00 0.  1.
         12    1    4    4    0    0 -0.66583929184E+02 -0.92842379291E+02 -0.31078308273E+02  0.11840180853E+03  0.00000000000E+00 0. -1.
         -5    1    5    5    0  502  0.20872093968E+02 -0.30903827716E+02 -0.65926496163E+01  0.38160763922E+02  0.47000000000E+01 0.  1.
         13    1    6    6    0    0 -0.27952630424E+01  0.57420908073E+02  0.94481300750E+02  0.11059697270E+03  0.00000000000E+00 0. -1.
        -14    1    6    6    0    0  0.72228484728E+02  0.38865444392E+02  0.84571162468E+02  0.11781238600E+03  0.00000000000E+00 0.  1.
</event>
<event>
12    1  0.8196217E-002  0.1871088E+03  0.7818608E-02  0.1161128E+00
         21   -1    0    0  503  502  0.00000000000E+00  0.00000000000E+00  0.30809275134E+03  0.30809275134E+03  0.00000000000E+00 0. -1.
         21   -1    0    0  501  503 -0.00000000000E+00 -0.00000000000E+00 -0.13580491834E+03  0.13580491834E+03  0.00000000000E+00 0. -1.
          6    2    1    2  501    0  0.46229972625E+02  0.62701543208E+02 -0.36847613803E+01  0.18714507050E+03  0.17012056330E+03 0.  0.
         24    2    3    3    0    0  0.83269928050E+02  0.50961973809E+02 -0.57551692600E+01  0.14795129068E+03  0.11102008264E+03 0.  0.
         -6    2    1    2    0  502 -0.46229972625E+02 -0.62701543208E+02  0.17597259438E+03  0.25675259917E+03  0.16996131714E+03 0.  0.
        -24    2    5    5    0    0 -0.69907557878E+02 -0.31493944132E+02  0.47661073378E+02  0.12251222259E+03  0.82817459538E+02 0.  0.
          5    1    3    3  501    0 -0.37039955425E+02  0.11739569399E+02  0.20704078797E+01  0.39193779817E+02  0.47000000000E+01 0. -1.
        -11    1    4    4    0    0  0.46282197906E+02  0.58421481875E+02  0.43196200315E+02  0.86145360346E+02  0.00000000000E+00 0.  1.
         12    1    4    4    0    0  0.36987730144E+02 -0.74595080657E+01 -0.48951369575E+02  0.61805930339E+02  0.00000000000E+00 0. -1.
         -5    1    5    5    0  502  0.23677585253E+02 -0.31207599077E+02  0.12831152100E+03  0.13424037658E+03  0.47000000000E+01 0.  1.
         13    1    6    6    0    0 -0.64060112295E+01  0.25104493410E+02  0.21052906159E+02  0.33384089429E+02  0.00000000000E+00 0. -1.
        -14    1    6    6    0    0 -0.63501546648E+02 -0.56598437542E+02  0.26608167218E+02  0.89128133166E+02  0.00000000000E+00 0.  1.
</event>
<event>
12    1  0.8196217E-002  0.1991810E+03  0.7818608E-02  0.1153266E+00
         21   -1    0    0  503  502  0.00000000000E+00  0.00000000000E+00  0.22879300286E+02  0.22879300286E+02  0.00000000000E+00 0.  1.
         21   -1    0    0  501  503 -0.00000000000E+00 -0.00000000000E+00 -0.16237816506E+04  0.16237816506E+04  0.00000000000E+00 0.  1.
          6    2    1    2  501    0 -0.34847668972E+02  0.65307144948E+02 -0.78282747389E+03  0.80468732177E+03  0.17094867282E+03 0.  0.
         24    2    3    3    0    0 -0.15506370407E+02  0.45121614560E+02 -0.18929132353E+03  0.21047457095E+03  0.78688831658E+02 0.  0.
         -6    2    1    2    0  502  0.34847668972E+02 -0.65307144948E+02 -0.81807487638E+03  0.84197362907E+03  0.18491540082E+03 0.  0.
        -24    2    5    5    0    0 -0.27548477536E+01 -0.83563214221E+02 -0.76134382275E+03  0.77134972535E+03  0.91354159229E+02 0.  0.
          5    1    3    3  501    0 -0.19341298565E+02  0.20185530388E+02 -0.59353615035E+03  0.59421275082E+03  0.47000000000E+01 0. -1.
        -13    1    4    4    0    0 -0.43726667592E+02  0.43449332455E+02 -0.10729795961E+03  0.12374456790E+03  0.00000000000E+00 0.  1.
         14    1    4    4    0    0  0.28220297185E+02  0.16722821052E+01 -0.81993363926E+02  0.86730003047E+02  0.00000000000E+00 0. -1.
         -5    1    5    5    0  502  0.37602516725E+02  0.18256069273E+02 -0.56731053637E+02  0.70623903717E+02  0.47000000000E+01 0.  1.
         11    1    6    6    0    0  0.15060535610E+02  0.24279576603E+01 -0.36826265964E+03  0.36857848716E+03  0.00000000000E+00 0. -1.
        -12    1    6    6    0    0 -0.17815383363E+02 -0.85991171881E+02 -0.39308116310E+03  0.40277123819E+03  0.00000000000E+00 0.  1.
</event>
<event>
12    1  0.8196217E-002  0.1949911E+03  0.7818608E-02  0.1154107E+00
         21   -1    0    0  503  502  0.00000000000E+00  0.00000000000E+00  0.30149763290E+03  0.30149763290E+03  0.00000000000E+00 0.  1.
         21   -1    0    0  501  503 -0.00000000000E+00 -0.00000000000E+00 -0.36847031171E+03  0.36847031171E+03  0.00000000000E+00 0.  1.
          6    2    1    2  501    0  0.86336208906E+02 -0.31204543922E+02 -0.30529340558E+03  0.36225070954E+03  0.17202862709E+03 0.  0.
         24    2    3    3    0    0  0.63887623288E+02 -0.52947701949E+02 -0.90332460444E+02  0.14497898599E+03  0.77290784822E+02 0.  0.
         -6    2    1    2    0  502 -0.86336208906E+02  0.31204543922E+02  0.23832072677E+03  0.30771723508E+03  0.17165507107E+03 0.  0.
        -24    2    5    5    0    0 -0.12716182060E+03  0.14391381693E+02  0.18609840588E+03  0.23917036210E+03  0.78693106140E+02 0.  0.
          5    1    3    3  501    0  0.22448585618E+02  0.21743158027E+02 -0.21496094514E+03  0.21727172354E+03  0.47000000000E+01 0. -1.
        -11    1    4    4    0    0  0.21537785797E+02  0.16176122727E+02 -0.44047497963E+02  0.51630661823E+02  0.00000000000E+00 0.  1.
         12    1    4    4    0    0  0.42349837492E+02 -0.69123824675E+02 -0.46284962481E+02  0.93348324169E+02  0.00000000000E+00 0. -1.
         -5    1    5    5    0  502  0.40825611694E+02  0.16813162229E+02  0.52222320897E+02  0.68546872972E+02  0.47000000000E+01 0.  1.
         11    1    6    6    0    0 -0.74323567490E+02  0.45819488195E+02  0.12517869482E+03  0.15262084989E+03  0.00000000000E+00 0. -1.
        -12    1    6    6    0    0 -0.52838253110E+02 -0.31428106502E+02  0.60919711053E+02  0.86549512216E+02  0.00000000000E+00 0.  1.
</event>
<event>
12    1  0.8196217E-002  0.2442773E+03  0.7818608E-02  0.1117098E+00
         21   -1    0    0  503  502  0.00000000000E+00  0.00000000000E+00  0.44054558407E+03  0.44054558407E+03  0.00000000000E+00 0. -1.
         21   -1    0    0  501  503 -0.00000000000E+00 -0.00000000000E+00 -0.27168939070E+03  0.27168939070E+03  0.00000000000E+00 0. -1.
          6    2    1    2  501    0  0.95527508319E+02 -0.14363809287E+03 -0.16820029552E+03  0.29596767644E+03  0.17189566462E+03 0.  0.
         24    2    3    3    0    0  0.68984247441E+02 -0.82239393728E+01 -0.77454246604E+02  0.13074518082E+03  0.79175011318E+02 0.  0.
         -6    2    1    2    0  502 -0.95527508319E+02  0.14363809287E+03  0.33705648889E+03  0.41626729833E+03  0.17295658526E+03 0.  0.
        -24    2    5    5    0    0  0.18429137976E+02  0.45019252943E+02  0.14208193202E+03  0.16979425589E+03  0.79224034634E+02 0.  0.
          5    1    3    3  501    0  0.26543260878E+02 -0.13541415349E+03 -0.90746048917E+02  0.16522249562E+03  0.47000000000E+01 0. -1.
        -11    1    4    4    0    0  0.73438698338E+02 -0.30213847949E+02 -0.73009464354E+02  0.10787261426E+03  0.00000000000E+00 0.  1.
         12    1    4    4    0    0 -0.44544508970E+01  0.21989908576E+02 -0.44447822500E+01  0.22872566564E+02  0.00000000000E+00 0. -1.
         -5    1    5    5    0  502 -0.11395664630E+03  0.98618839922E+02  0.19497455687E+03  0.24647304244E+03  0.47000000000E+01 0.  1.
         13    1    6    6    0    0 -0.14782039447E+02  0.56049583765E+02  0.89501498851E+02  0.10663293500E+03  0.00000000000E+00 0. -1.
        -14    1    6    6    0    0  0.33211177423E+02 -0.11030330822E+02  0.52580433167E+02  0.63161320884E+02  0.00000000000E+00 0.  1.
</event>
<event>
12    1  0.8196217E-002  0.2349816E+03  0.7818608E-02  0.1123816E+00
         21   -1    0    0  501  502  0.00000000000E+00  0.00000000000E+00  0.13058782384E+03  0.13058782384E+03  0.00000000000E+00 0.  1.
         21   -1    0    0  502  503 -0.00000000000E+00 -0.00000000000E+00 -0.53410090967E+03  0.53410090967E+03  0.00000000000E+00 0.  1.
         -6    2    1    2    0  503 -0.74824545601E+02  0.13566005308E+03 -0.35663270742E+03  0.42507632711E+03  0.17175748379E+03 0.  0.
        -24    2    3    3    0    0 -0.96056701501E+02  0.87663892451E+02 -0.15931589006E+03  0.22084495760E+03  0.80492822833E+02 0.  0.
          6    2    1    2  501    0  0.74824545601E+02 -0.13566005308E+03 -0.46880378418E+02  0.23961240640E+03  0.17667476559E+03 0.  0.
         24    2    5    5    0    0  0.67430179968E+02 -0.13676673801E+03  0.19368636719E+02  0.17277736020E+03  0.78898050117E+02 0.  0.
          5    1    5    5  501    0  0.73943656328E+01  0.11066849303E+01 -0.66249015137E+02  0.66835046205E+02  0.47000000000E+01 0. -1.
        -11    1    6    6    0    0  0.16724698783E+02 -0.94873134443E+02  0.39310021545E+02  0.10404760921E+03  0.00000000000E+00 0.  1.
         12    1    6    6    0    0  0.50705481185E+02 -0.41893603567E+02 -0.19941384827E+02  0.68729750988E+02  0.00000000000E+00 0. -1.
         -5    1    3    3    0  503  0.21232155900E+02  0.47996160629E+02 -0.19731681736E+03  0.20423136951E+03  0.47000000000E+01 0.  1.
         11    1    4    4    0    0 -0.95945671665E+02  0.69165404816E+02 -0.16358009388E+03  0.20186102211E+03  0.00000000000E+00 0. -1.
        -12    1    4    4    0    0 -0.11102983620E+00  0.18498487635E+02  0.42642038166E+01  0.18983935487E+02  0.00000000000E+00 0.  1.
</event>
<event>
12    1  0.8196217E-002  0.2405312E+03  0.7818608E-02  0.1119670E+00
         21   -1    0    0  503  502  0.00000000000E+00  0.00000000000E+00  0.12171159335E+03  0.12171159335E+03  0.00000000000E+00 0.  1.
         21   -1    0    0  501  503 -0.00000000000E+00 -0.00000000000E+00 -0.52634509916E+03  0.52634509916E+03  0.00000000000E+00 0.  1.
          6    2    1    2  501    0  0.40771133521E+02 -0.15955922931E+03 -0.30637380712E+03  0.38951271158E+03  0.17531060951E+03 0.  0.
         24    2    3    3    0    0  0.35097160584E+02 -0.18113829127E+03 -0.30690590811E+03  0.36670431366E+03  0.78980541776E+02 0.  0.
         -6    2    1    2    0  502 -0.40771133521E+02  0.15955922931E+03 -0.98259698689E+02  0.25854398093E+03  0.17340296624E+03 0.  0.
        -24    2    5    5    0    0 -0.11396439642E+02  0.10358186497E+03  0.12098209389E+02  0.13127538372E+03  0.78916272810E+02 0.  0.
          5    1    3    3  501    0  0.56739729379E+01  0.21579061966E+02  0.53210098647E+00  0.22808397920E+02  0.47000000000E+01 0. -1.
        -11    1    4    4    0    0 -0.97362691972E+01 -0.13843892478E+03 -0.21358755786E+03  0.25471508731E+03  0.00000000000E+00 0.  1.
         12    1    4    4    0    0  0.44833429781E+02 -0.42699366489E+02 -0.93318350251E+02  0.11198922635E+03  0.00000000000E+00 0. -1.
         -5    1    5    5    0  502 -0.29374693879E+02  0.55977364339E+02 -0.11035790808E+03  0.12726859720E+03  0.47000000000E+01 0.  1.
         13    1    6    6    0    0  0.27061786333E+02  0.92645832861E+01  0.60685340733E+01  0.29240381133E+02  0.00000000000E+00 0. -1.
        -14    1    6    6    0    0 -0.38458225975E+02  0.94317281683E+02  0.60296753152E+01  0.10203500259E+03  0.00000000000E+00 0.  1.
</event>
<event>
12    1  0.8196217E-002  0.2168269E+03  0.7818608E-02  0.1136679E+00
         21   -1    0    0  501  502  0.00000000000E+00  0.00000000000E+00  0.81660345924E+03  0.81660345924E+03  0.00000000000E+00 0.  1.
         21   -1    0    0  502  503 -0.00000000000E+00 -0.00000000000E+00 -0.22683922719E+03  0.22683922719E+03  0.00000000000E+00 0.  1.
         -6    2    1    2    0  503 -0.10175519640E+03  0.81970092544E+02 -0.15691260152E+03  0.26592086394E+03  0.17035000822E+03 0.  0.
        -24    2    3    3    0    0 -0.58653915348E+02  0.78508871733E+02 -0.25719521091E+02  0.12770576046E+03  0.77738939820E+02 0.  0.
          6    2    1    2  501    0  0.10175519640E+03 -0.81970092544E+02  0.74667683357E+03  0.77752182249E+03  0.17303373831E+03 0.  0.
         24    2    5    5    0    0  0.53817507676E+02 -0.11436319100E+03  0.40556784886E+03  0.43150915758E+03  0.75760210271E+02 0.  0.
          5    1    5    5  501    0  0.47937688721E+02  0.32393098452E+02  0.34110898471E+03  0.34601266491E+03  0.47000000000E+01 0. -1.
        -13    1    6    6    0    0  0.62086408751E+02 -0.50768037134E+02  0.18118478385E+03  0.19814146877E+03  0.00000000000E+00 0.  1.
         14    1    6    6    0    0 -0.82689010750E+01 -0.63595153862E+02  0.22438306500E+03  0.23336768881E+03  0.00000000000E+00 0. -1.
         -5    1    3    3    0  503 -0.43101281049E+02  0.34612208115E+01 -0.13119308043E+03  0.13821510348E+03  0.47000000000E+01 0.  1.
         11    1    4    4    0    0  0.17394568623E+02  0.29521404350E+02 -0.27541553731E+01  0.34375422968E+02  0.00000000000E+00 0. -1.
        -12    1    4    4    0    0 -0.76048483971E+02  0.48987467382E+02 -0.22965365718E+02  0.93330337497E+02  0.00000000000E+00 0.  1.
</event>
<event>
12    1  0.8196217E-002  0.2137051E+03  0.7818608E-02  0.1138900E+00
         21   -1    0    0  501  502  0.00000000000E+00  0.00000000000E+00  0.28045809758E+03  0.28045809758E+03  0.00000000000E+00 0.  1.
         21   -1    0    0  502  503 -0.00000000000E+00 -0.00000000000E+00 -0.19901235513E+03  0.19901235513E+03  0.00000000000E+00 0. -1.
         -6    2    1    2    0  503 -0.10745243209E+03 -0.66876917180E+02 -0.62870863418E+02  0.22160005723E+03  0.17069063443E+03 0.  0.
        -24    2    3    3    0    0 -0.72314956385E+02 -0.50950957631E+02 -0.10953416299E+03  0.16087253535E+03  0.77825360705E+02 0.  0.
          6    2    1    2  501    0  0.10745243209E+03  0.66876917180E+02  0.14431660586E+03  0.25787039548E+03  0.17219556012E+03 0.  0.
         24    2    5    5    0    0  0.26680265106E+02 -0.20066004001E+02  0.96563106182E+02  0.12986375021E+03  0.80160333582E+02 0.  0.
          5    1    5    5  501    0  0.80772166984E+02  0.86942921180E+02  0.47753499680E+02  0.12800664527E+03  0.47000000000E+01 0. -1.
        -13    1    6    6    0    0  0.44843421650E+02 -0.92862651422E+01  0.19178582538E+02  0.49648617440E+02  0.00000000000E+00 0.  1.
         14    1    6    6    0    0 -0.18163156543E+02 -0.10779738859E+02  0.77384523643E+02  0.80215132768E+02  0.00000000000E+00 0. -1.
         -5    1    3    3    0  503 -0.35137475704E+02 -0.15925959549E+02  0.46663299571E+02  0.60727521876E+02  0.47000000000E+01 0.  1.
         11    1    4    4    0    0 -0.17741694487E+02 -0.99556008533E+01  0.10420907772E+02  0.22857756461E+02  0.00000000000E+00 0. -1.
        -12    1    4    4    0    0 -0.54573261898E+02 -0.40995356778E+02 -0.11995507076E+03  0.13801477889E+03  0.00000000000E+00 0.  1.
</event>
<event>
12    1  0.8196217E-002  0.2083495E+03  0.7818608E-02  0.1142887E+00
         21   -1    0    0  501  502  0.00000000000E+00  0.00000000000E+00  0.46114162494E+03  0.46114162494E+03  0.00000000000E+00 0.  1.
         21   -1    0    0  502  503 -0.00000000000E+00 -0.00000000000E+00 -0.95812672368E+02  0.95812672368E+02  0.00000000000E+00 0.  1.
         -6    2    1    2    0  503 -0.11627556321E+03 -0.23346383946E+02  0.14562759870E+03  0.25417022736E+03  0.17126017263E+03 0.  0.
        -24    2    3    3    0    0 -0.13641146651E+03 -0.34315076672E+02  0.15940345292E+03  0.22701086468E+03  0.79616952949E+02 0.  0.
          6    2    1    2  501    0  0.11627556321E+03  0.23346383946E+02  0.21970135387E+03  0.30278406995E+03  0.17130221212E+03 0.  0.
         24    2    5    5    0    0  0.33816674893E+02 -0.14894407488E+02  0.18503776053E+03  0.20539063539E+03  0.81122927749E+02 0.  0.
          5    1    5    5  501    0  0.82458888320E+02  0.38240791434E+02  0.34663593338E+02  0.97393434561E+02  0.47000000000E+01 0. -1.
        -11    1    6    6    0    0  0.50315694830E+02 -0.63810549151E+01  0.58188736027E+02  0.77190128957E+02  0.00000000000E+00 0.  1.
         12    1    6    6    0    0 -0.16499019937E+02 -0.85133525733E+01  0.12684902451E+03  0.12820050643E+03  0.00000000000E+00 0. -1.
         -5    1    3    3    0  503  0.20135903296E+02  0.10968692726E+02 -0.13775854221E+02  0.27159362680E+02  0.47000000000E+01 0.  1.
         13    1    4    4    0    0 -0.29452760190E+02 -0.43111842169E+02  0.70020179060E+02  0.87343697504E+02  0.00000000000E+00 0. -1.
        -14    1    4    4    0    0 -0.10695870632E+03  0.87967654973E+01  0.89383273863E+02  0.13966716718E+03  0.00000000000E+00 0.  1.
</event>
<event>
12    1  0.8196217E-002  0.2075173E+03  0.7818608E-02  0.1143560E+00
         21   -1    0    0  503  502  0.00000000000E+00  0.00000000000E+00  0.48020703504E+02  0.48020703504E+02  0.00000000000E+00 0. -1.
         21   -1    0    0  501  503 -0.00000000000E+00 -0.00000000000E+00 -0.94390430957E+03  0.94390430957E+03  0.00000000000E+00 0. -1.
          6    2    1    2  501    0 -0.83221843452E+02  0.80007400627E+02 -0.33685942032E+03  0.39564847871E+03  0.17244242593E+03 0.  0.
         24    2    3    3    0    0 -0.49439977371E+02 -0.23606838521E+02 -0.14848566680E+03  0.17797007821E+03  0.81386493372E+02 0.  0.
         -6    2    1    2    0  502  0.83221843452E+02 -0.80007400627E+02 -0.55902418575E+03  0.59627653437E+03  0.17236764721E+03 0.  0.
        -24    2    5    5    0    0  0.75660724636E+02 -0.90912710480E+02 -0.56367939562E+03  0.58144894927E+03  0.79741791979E+02 0.  0.
          5    1    3    3  501    0 -0.33781866081E+02  0.10361423915E+03 -0.18837375352E+03  0.21767840050E+03  0.47000000000E+01 0. -1.
        -11    1    4    4    0    0 -0.32800304634E+02 -0.20744474431E+02 -0.15506612381E+03  0.15984897859E+03  0.00000000000E+00 0.  1.
         12    1    4    4    0    0 -0.16639672737E+02 -0.28623640901E+01  0.65804570033E+01  0.18121099618E+02  0.00000000000E+00 0. -1.
         -5    1    5    5    0  502  0.75611188157E+01  0.10905309852E+02  0.46552098734E+01  0.14827585093E+02  0.47000000000E+01 0.  1.
         11    1    6    6    0    0  0.32033296781E+02 -0.93463062161E+02 -0.37846897115E+03  0.39115244881E+03  0.00000000000E+00 0. -1.
        -12    1    6    6    0    0  0.43627427855E+02  0.25503516816E+01 -0.18521042447E+03  0.19029650046E+03  0.00000000000E+00 0.  1.
</event>
<event>
12    1  0.8196217E-002  0.2310078E+03  0.7818608E-02  0.1127694E+00
         21   -1    0    0  501  502  0.00000000000E+00  0.00000000000E+00  0.97916266957E+03  0.97916266957E+03  0.00000000000E+00 0. -1.
         21   -1    0    0  502  503 -0.00000000000E+00 -0.00000000000E+00 -0.53434337918E+02  0.53434337918E+02  0.00000000000E+00 0.  1.
         -6    2    1    2    0  503  0.98321541635E+02 -0.10063911890E+03  0.55102484291E+03  0.59748890339E+03  0.18321914302E+03 0.  0.
        -24    2    3    3    0    0  0.15116859492E+02 -0.88518746653E+02  0.44886591098E+03  0.46509381312E+03  0.82265187148E+02 0.  0.
          6    2    1    2  501    0 -0.98321541635E+02  0.10063911890E+03  0.37470348875E+03  0.43510810410E+03  0.17064876201E+03 0.  0.
         24    2    5    5    0    0 -0.19998575170E+02  0.86310706153E+02  0.29963897311E+03  0.32557928600E+03  0.91481562395E+02 0.  0.
          5    1    5    5  501    0 -0.78322966465E+02  0.14328412746E+02  0.75064515634E+02  0.10952881810E+03  0.47000000000E+01 0. -1.
        -13    1    6    6    0    0 -0.29891774379E+02 -0.62656821359E+01  0.44402433276E+02  0.53892049775E+02  0.00000000000E+00 0.  1.
         14    1    6    6    0    0  0.98931992087E+01  0.92576388289E+02  0.25523653984E+03  0.27168723623E+03  0.00000000000E+00 0. -1.
         -5    1    3    3    0  503  0.83204682143E+02 -0.12120372246E+02  0.10215893193E+03  0.13239509027E+03  0.47000000000E+01 0.  1.
         13    1    4    4    0    0 -0.19057943990E+02 -0.78233733078E+02  0.23860280016E+03  0.25182338744E+03  0.00000000000E+00 0. -1.
        -14    1    4    4    0    0  0.34174803482E+02 -0.10285013574E+02  0.21026311082E+03  0.21327042568E+03  0.00000000000E+00 0.  1.
</event>
<event>
12    1  0.8196217E-002  0.2403617E+03  0.7818608E-02  0.1120053E+00
         21   -1    0    0  501  502  0.00000000000E+00  0.00000000000E+00  0.13732990449E+03  0.13732990449E+03  0.00000000000E+00 0. -1.
         21   -1    0    0  502  503 -0.00000000000E+00 -0.00000000000E+00 -0.41960855169E+03  0.41960855169E+03  0.00000000000E+00 0.  1.
         -6    2    1    2    0  503 -0.12662343423E+03  0.10980523285E+03 -0.11262436668E+03  0.26273388802E+03  0.16808975188E+03 0.  0.
        -24    2    3    3    0    0 -0.13244821204E+03  0.30971911623E+02 -0.83856024109E+02  0.17848231174E+03  0.79512984106E+02 0.  0.
          6    2    1    2  501    0  0.12662343423E+03 -0.10980523285E+03 -0.16965428052E+03  0.29420456816E+03  0.17228775282E+03 0.  0.
         24    2    5    5    0    0  0.13869083678E+03 -0.27935503056E+02 -0.11181727089E+03  0.19313288794E+03  0.69149618906E+02 0.  0.
          5    1    5    5  501    0 -0.12067402556E+02 -0.81869729790E+02 -0.57837009637E+02  0.10107168023E+03  0.47000000000E+01 0. -1.
        -11    1    6    6    0    0  0.35652634727E+02 -0.25359403520E+02 -0.68609303743E+02  0.81372269663E+02  0.00000000000E+00 0.  1.
         12    1    6    6    0    0  0.10303820206E+03 -0.25760995351E+01 -0.43207967142E+02  0.11176061827E+03  0.00000000000E+00 0. -1.
         -5    1    3    3    0  503  0.58247778145E+01  0.78833321223E+02 -0.28768342571E+02  0.84251576281E+02  0.47000000000E+01 0.  1.
         13    1    4    4    0    0 -0.22220867053E+02  0.29655481948E+02  0.43363159422E+01  0.37309759823E+02  0.00000000000E+00 0. -1.
        -14    1    4    4    0    0 -0.11022734499E+03  0.13164296755E+01 -0.88192340051E+02  0.14117255192E+03  0.00000000000E+00 0.  1.
</event>
<event>
12    1  0.8196217E-002  0.1869516E+03  0.7818608E-02  0.1161274E+00
         21   -1    0    0  501  502  0.00000000000E+00  0.00000000000E+00  0.34396478237E+03  0.34396478237E+03  0.00000000000E+00 0. -1.
         21   -1    0    0  502  503 -0.00000000000E+00 -0.00000000000E+00 -0.19427404069E+03  0.19427404069E+03  0.00000000000E+00 0. -1.
         -6    2    1    2    0  503  0.34300177791E+02  0.64567993984E+02 -0.11111081592E+03  0.21735199547E+03  0.17190331141E+03 0.  0.
        -24    2    3    3    0    0  0.31861399629E+02  0.14644097881E+02 -0.13597803428E+03  0.16132689761E+03  0.79415009265E+02 0.  0.
          6    2    1    2  501    0 -0.34300177791E+02 -0.64567993984E+02  0.26080155760E+03  0.32088682760E+03  0.17206212725E+03 0.  0.
         24    2    5    5    0    0  0.49405158706E+01 -0.11622251754E+01  0.39769791475E+02  0.87568900309E+02  0.77851888371E+02 0.  0.
          5    1    5    5  501    0 -0.39240693661E+02 -0.63405768809E+02  0.22103176613E+03  0.23331792729E+03  0.47000000000E+01 0. -1.
        -11    1    6    6    0    0 -0.42336125220E+01  0.30224792521E+02 -0.62115662592E+01  0.31145547247E+02  0.00000000000E+00 0.  1.
         12    1    6    6    0    0  0.91741283927E+01 -0.31387017696E+02  0.45981357734E+02  0.56423353061E+02  0.00000000000E+00 0. -1.
         -5    1    3    3    0  503  0.24387781622E+01  0.49923896104E+02  0.24867218356E+02  0.56025097857E+02  0.47000000000E+01 0.  1.
         11    1    4    4    0    0  0.51866374396E+02 -0.12216435961E+02 -0.85709946407E+02  0.10092352062E+03  0.00000000000E+00 0. -1.
        -12    1    4    4    0    0 -0.20004974768E+02  0.26860533841E+02 -0.50268087871E+02  0.60403376991E+02  0.00000000000E+00 0.  1.
</event>
<event>
12    1  0.8196217E-002  0.1807590E+03  0.7818608E-02  0.1167283E+00
         21   -1    0    0  501  502  0.00000000000E+00  0.00000000000E+00  0.17520624906E+03  0.17520624906E+03  0.00000000000E+00 0.  1.
         21   -1    0    0  502  503 -0.00000000000E+00 -0.00000000000E+00 -0.19700467638E+03  0.19700467638E+03  0.00000000000E+00 0.  1.
         -6    2    1    2    0  503  0.25814249717E+02 -0.47958212405E+02  0.33944791905E+02  0.18305192857E+03  0.17143335157E+03 0.  0.
        -24    2    3    3    0    0  0.24597466214E+02 -0.39952816641E+02  0.88749019148E+02  0.12745372493E+03  0.78528979990E+02 0.  0.
          6    2    1    2  501    0 -0.25814249717E+02  0.47958212405E+02 -0.55743219219E+02  0.18915899687E+03  0.17235850424E+03 0.  0.
         24    2    5    5    0    0 -0.13485236901E+02  0.54207355065E+02  0.30677661780E+02  0.10151360331E+03  0.79016477817E+02 0.  0.
          5    1    5    5  501    0 -0.12329012816E+02 -0.62491426597E+01 -0.86420880999E+02  0.87645393567E+02  0.47000000000E+01 0. -1.
        -13    1    6    6    0    0 -0.28883372441E+01  0.66292875164E+02 -0.58791455527E+00  0.66358371236E+02  0.00000000000E+00 0.  1.
         14    1    6    6    0    0 -0.10596899657E+02 -0.12085520099E+02  0.31265576335E+02  0.35155232071E+02  0.00000000000E+00 0. -1.
         -5    1    3    3    0  503  0.12167835037E+01 -0.80053957644E+01 -0.54804227243E+02  0.55598203632E+02  0.47000000000E+01 0.  1.
         11    1    4    4    0    0 -0.32471065204E+01  0.22413718666E+02  0.16425078515E+02  0.27976806277E+02  0.00000000000E+00 0. -1.
        -12    1    4    4    0    0  0.27844572734E+02 -0.62366535307E+02  0.72323940633E+02  0.99476918658E+02  0.00000000000E+00 0.  1.
</event>
<event>
12    1  0.8196217E-002  0.2466929E+03  0.7818608E-02  0.1115672E+00
         21   -1    0    0  501  502  0.00000000000E+00  0.00000000000E+00  0.12376103834E+03  0.12376103834E+03  0.00000000000E+00 0.  1.
         21   -1    0    0  502  503 -0.00000000000E+00 -0.00000000000E+00 -0.75954585001E+03  0.75954585001E+03  0.00000000000E+00 0. -1.
         -6    2    1    2    0  503  0.11943253834E+03  0.13089607580E+03 -0.58103592618E+03  0.63061173081E+03  0.16932363582E+03 0.  0.
        -24    2    3    3    0    0  0.77469282473E+02  0.15332120245E+03 -0.41112483511E+03  0.45410204264E+03  0.87613664676E+02 0.  0.
          6    2    1    2  501    0 -0.11943253834E+03 -0.13089607580E+03 -0.54748885500E+02  0.25269515754E+03  0.17163766576E+03 0.  0.
         24    2    5    5    0    0 -0.14620911056E+03 -0.13687759931E+03 -0.36367881322E+02  0.21933777817E+03  0.81693677457E+02 0.  0.
          5    1    5    5  501    0  0.26776572229E+02  0.59815235112E+01 -0.18381004178E+02  0.33357379370E+02  0.47000000000E+01 0. -1.
        -11    1    6    6    0    0 -0.73027093135E+02 -0.12094148719E+03 -0.20205801841E+02  0.14271676175E+03  0.00000000000E+00 0.  1.
         12    1    6    6    0    0 -0.73182017430E+02 -0.15936112118E+02 -0.16162079481E+02  0.76621016423E+02  0.00000000000E+00 0. -1.
         -5    1    3    3    0  503  0.41963255863E+02 -0.22425126654E+02 -0.16991109107E+03  0.17650968816E+03  0.47000000000E+01 0.  1.
         11    1    4    4    0    0 -0.29001064820E+01  0.89885674542E+02 -0.17579178476E+03  0.19746036740E+03  0.00000000000E+00 0. -1.
        -12    1    4    4    0    0  0.80369388955E+02  0.63435527912E+02 -0.23533305035E+03  0.25664167524E+03  0.00000000000E+00 0.  1.
</event>
<event>
12    1  0.8196217E-002  0.2565459E+03  0.7818608E-02  0.1110241E+00
         21   -1    0    0  503  502  0.00000000000E+00  0.00000000000E+00  0.14342660897E+04  0.14342660897E+04  0.00000000000E+00 0.  1.
         21   -1    0    0  501  503 -0.00000000000E+00 -0.00000000000E+00 -0.56786952903E+02  0.56786952903E+02  0.00000000000E+00 0. -1.
          6    2    1    2  501    0 -0.17462093650E+03  0.76166389406E+02  0.35226622481E+03  0.43578355742E+03  0.17181974693E+03 0.  0.
         24    2    3    3    0    0 -0.11294118782E+03  0.75094985256E+01  0.29804156958E+03  0.32863616689E+03  0.79754927843E+02 0.  0.
         -6    2    1    2    0  502  0.17462093650E+03 -0.76166389406E+02  0.10252129120E+04  0.10552694852E+04  0.16198265684E+03 0.  0.
        -24    2    5    5    0    0  0.15446729483E+03 -0.68417441308E+01  0.79341264700E+03  0.81244129786E+03  0.81549245263E+02 0.  0.
          5    1    3    3  501    0 -0.61679748684E+02  0.68656890880E+02  0.54224655229E+02  0.10714739053E+03  0.47000000000E+01 0. -1.
        -11    1    4    4    0    0 -0.11955381399E+03 -0.20464646600E+01  0.22618094530E+03  0.25584198731E+03  0.00000000000E+00 0.  1.
         12    1    4    4    0    0  0.66126261755E+01  0.95559631856E+01  0.71860624285E+02  0.72794179574E+02  0.00000000000E+00 0. -1.
         -5    1    5    5    0  502  0.20153641671E+02 -0.69324645275E+02  0.23180026501E+03  0.24282818736E+03  0.47000000000E+01 0.  1.
         11    1    6    6    0    0  0.51750144187E+02  0.84661713795E+01  0.11848104646E+03  0.12956663094E+03  0.00000000000E+00 0. -1.
        -12    1    6    6    0    0  0.10271715064E+03 -0.15307915510E+02  0.67493160054E+03  0.68287466692E+03  0.00000000000E+00 0.  1.
</event>
<event>
12    1  0.8196217E-002  0.2139696E+03  0.7818608E-02  0.1138665E+00
         21   -1    0    0  503  502  0.00000000000E+00  0.00000000000E+00  0.44232994817E+03  0.44232994817E+03  0.00000000000E+00 0. -1.
         21   -1    0    0  501  503 -0.00000000000E+00 -0.00000000000E+00 -0.14047629992E+03  0.14047629992E+03  0.00000000000E+00 0.  1.
          6    2    1    2  501    0 -0.11743288512E+03  0.43243003441E+02  0.13187786828E+00  0.21291569538E+03  0.17225747035E+03 0.  0.
         24    2    3    3    0    0 -0.78566356171E+02  0.65719033571E+01 -0.62828301608E+02  0.13020263200E+03  0.82398226075E+02 0.  0.
         -6    2    1    2    0  502  0.11743288512E+03 -0.43243003441E+02  0.30172177038E+03  0.36989055272E+03  0.17355850430E+03 0.  0.
        -24    2    5    5    0    0  0.46029944555E+02 -0.85894904932E+02  0.24083403329E+03  0.26670639139E+03  0.60287454138E+02 0.  0.
          5    1    3    3  501    0 -0.38866528947E+02  0.36671100084E+02  0.62960179477E+02  0.82713063379E+02  0.47000000000E+01 0. -1.
        -11    1    4    4    0    0 -0.66997267972E+02 -0.30952816110E+02 -0.48927077734E+02  0.88546991346E+02  0.00000000000E+00 0.  1.
         12    1    4    4    0    0 -0.11569088198E+02  0.37524719467E+02 -0.13901223874E+02  0.41655640651E+02  0.00000000000E+00 0. -1.
         -5    1    5    5    0  502  0.71402940563E+02  0.42651901491E+02  0.60887737094E+02  0.10318416133E+03  0.47000000000E+01 0.  1.
         13    1    6    6    0    0 -0.11894760607E+02 -0.28409545684E+02  0.91272479676E+02  0.96328880207E+02  0.00000000000E+00 0. -1.
        -14    1    6    6    0    0  0.57924705162E+02 -0.57485359249E+02  0.14956155362E+03  0.17037751118E+03  0.00000000000E+00 0.  1.
</event>
<event>
12    1  0.8196217E-002  0.1865027E+03  0.7818608E-02  0.1161841E+00
         21   -1    0    0  503  502  0.00000000000E+00  0.00000000000E+00  0.22481502150E+03  0.22481502150E+03  0.00000000000E+00 0.  1.
         21   -1    0    0  501  503 -0.00000000000E+00 -0.00000000000E+00 -0.16581344106E+03  0.16581344106E+03  0.00000000000E+00 0.  1.
          6    2    1    2  501    0 -0.66354432124E+02  0.27030144430E+02  0.81462654052E+02  0.20277814388E+03  0.17131629304E+03 0.  0.
         24    2    3    3    0    0 -0.51672406665E+02  0.78228843715E+02  0.19780437983E+02  0.12114693380E+03  0.74131803177E+02 0.  0.
         -6    2    1    2    0  502  0.66354432124E+02 -0.27030144430E+02 -0.22461073612E+02  0.18785031868E+03  0.17219089125E+03 0.  0.
        -24    2    5    5    0    0  0.36571281567E+02 -0.77895858108E+02  0.14900352647E+02  0.11790517548E+03  0.79211025434E+02 0.  0.
          5    1    3    3  501    0 -0.14682025458E+02 -0.51198699285E+02  0.61682216068E+02  0.81631210080E+02  0.47000000000E+01 0. -1.
        -13    1    4    4    0    0  0.34577997538E+01  0.25708223981E+02  0.34933160072E+02  0.43510858783E+02  0.00000000000E+00 0.  1.
         14    1    4    4    0    0 -0.55130206419E+02  0.52520619734E+02 -0.15152722089E+02  0.77636075015E+02  0.00000000000E+00 0. -1.
         -5    1    5    5    0  502  0.29783150557E+02  0.50865713678E+02 -0.37361426260E+02  0.69945143200E+02  0.47000000000E+01 0.  1.
         11    1    6    6    0    0  0.23155427524E+02 -0.92331290680E+02  0.37544823817E+01  0.95264564243E+02  0.00000000000E+00 0. -1.
        -12    1    6    6    0    0  0.13415854043E+02  0.14435432572E+02  0.11145870266E+02  0.22640611238E+02  0.00000000000E+00 0.  1.
</event>
<event>
12    1  0.8196217E-002  0.1825281E+03  0.7818608E-02  0.1165638E+00
         21   -1    0    0  501  502  0.00000000000E+00  0.00000000000E+00  0.42796248474E+02  0.42796248474E+02  0.00000000000E+00 0. -1.
         21   -1    0    0  502  503 -0.00000000000E+00 -0.00000000000E+00 -0.77888749469E+03  0.77888749469E+03  0.00000000000E+00 0. -1.
         -6    2    1    2    0  503  0.57748753166E+02  0.14277132968E+02 -0.39998767542E+03  0.43921530013E+03  0.17140940569E+03 0.  0.
        -24    2    3    3    0    0  0.98789258224E+02  0.22883687485E+02 -0.35515336005E+03  0.37764743780E+03  0.78744507321E+02 0.  0.
          6    2    1    2  501    0 -0.57748753166E+02 -0.14277132968E+02 -0.33610357080E+03  0.38246844304E+03  0.17256229194E+03 0.  0.
         24    2    5    5    0    0 -0.66827186867E+02 -0.58671661943E+02 -0.20823193358E+03  0.24672405912E+03  0.97999930437E+02 0.  0.
          5    1    5    5  501    0  0.90784337013E+01  0.44394528975E+02 -0.12787163722E+03  0.13574438392E+03  0.47000000000E+01 0. -1.
        -13    1    6    6    0    0 -0.36071749193E+02 -0.42528776907E+02 -0.26572164054E+02  0.61773358801E+02  0.00000000000E+00 0.  1.
         14    1    6    6    0    0 -0.30755437674E+02 -0.16142885036E+02 -0.18165976952E+03  0.18495070031E+03  0.00000000000E+00 0. -1.
         -5    1    3    3    0  503 -0.41040505058E+02 -0.86065545173E+01 -0.44834315376E+02  0.61567862326E+02  0.47000000000E+01 0.  1.
         13    1    4    4    0    0  0.93736730613E+02 -0.52138154849E+01 -0.21480013225E+03  0.23442025372E+03  0.00000000000E+00 0. -1.
        -14    1    4    4    0    0  0.50525276113E+01  0.28097502970E+02 -0.14035322779E+03  0.14322718408E+03  0.00000000000E+00 0.  1.
</event>
<event>
12    1  0.8196217E-002  0.1871916E+03  0.7818608E-02  0.1161320E+00
         21   -1    0    0  503  502  0.00000000000E+00  0.00000000000E+00  0.13312447460E+04  0.13312447460E+04  0.00000000000E+00 0. -1.
         21   -1    0    0  501  503 -0.00000000000E+00 -0.00000000000E+00 -0.41050997433E+02  0.41050997433E+02  0.00000000000E+00 0. -1.
          6    2    1    2  501    0 -0.66383201748E+02 -0.31560138083E+02  0.23298467557E+03  0.29886876041E+03  0.17215662957E+03 0.  0.
         24    2    3    3    0    0 -0.14644112038E+01  0.28239050955E+00  0.21686334236E+02  0.75491333070E+02  0.72293983370E+02 0.  0.
         -6    2    1    2    0  502  0.66383201748E+02  0.31560138083E+02  0.10572090730E+04  0.10734269830E+04  0.17073866601E+03 0.  0.
        -24    2    5    5    0    0  0.50922180542E+02  0.30085527477E+02  0.10514466813E+04  0.10562074356E+04  0.80844394202E+02 0.  0.
          5    1    3    3  501    0 -0.64918790544E+02 -0.31842528593E+02  0.21129834133E+03  0.22337742734E+03  0.47000000000E+01 0. -1.
        -11    1    4    4    0    0  0.15369773010E+02 -0.31776345359E+02  0.16311194833E+02  0.38884715810E+02  0.00000000000E+00 0.  1.
         12    1    4    4    0    0 -0.16834184214E+02  0.32058735868E+02  0.53751394036E+01  0.36606617260E+02  0.00000000000E+00 0. -1.
         -5    1    5    5    0  502  0.15461021206E+02  0.14746106060E+01  0.57623916732E+01  0.17219547351E+02  0.47000000000E+01 0.  1.
         13    1    6    6    0    0  0.71257096182E+02  0.18053232538E+02  0.89143500022E+03  0.89446064899E+03  0.00000000000E+00 0. -1.
        -14    1    6    6    0    0 -0.20334915640E+02  0.12032294939E+02  0.16001168106E+03  0.16174678665E+03  0.00000000000E+00 0.  1.
</event>
<event>
12    1  0.8196217E-002  0.2303433E+03  0.7818608E-02  0.1126434E+00
         21   -1    0    0  503  502  0.00000000000E+00  0.00000000000E+00  0.59319105633E+02  0.59319105633E+02  0.00000000000E+00 0. -1.
         21   -1    0    0  501  503 -0.00000000000E+00 -0.00000000000E+00 -0.99118593447E+03  0.99118593447E+03  0.00000000000E+00 0. -1.
          6    2    1    2  501    0  0.10114535246E+03 -0.11553262178E+03 -0.63087383124E+03  0.67160987149E+03  0.17169699915E+03 0.  0.
         24    2    3    3    0    0  0.88646805077E+02 -0.99296089891E+02 -0.63198536630E+03  0.65055840681E+03  0.78120214706E+02 0.  0.
         -6    2    1    2    0  502 -0.10114535246E+03  0.11553262178E+03 -0.30099299760E+03  0.37889516862E+03  0.17142518828E+03 0.  0.
        -24    2    5    5    0    0 -0.57177397071E+02  0.12228271661E+03 -0.29537773288E+03  0.33381339759E+03  0.77207912894E+02 0.  0.
          5    1    3    3  501    0  0.12498547387E+02 -0.16236531891E+02  0.11115350602E+01  0.21051464672E+02  0.47000000000E+01 0. -1.
        -13    1    4    4    0    0 -0.16924201198E+01 -0.39782716087E+02 -0.99049370651E+02  0.10675348524E+03  0.00000000000E+00 0.  1.
         14    1    4    4    0    0  0.90339225197E+02 -0.59513373804E+02 -0.53293599564E+03  0.54380492157E+03  0.00000000000E+00 0. -1.
         -5    1    5    5    0  502 -0.43967955393E+02 -0.67500948230E+01 -0.56152647276E+01  0.45081771033E+02  0.47000000000E+01 0.  1.
         13    1    6    6    0    0 -0.70657435816E+02  0.98629690285E+02 -0.27236352064E+03  0.29816468003E+03  0.00000000000E+00 0. -1.
        -14    1    6    6    0    0  0.13480038745E+02  0.23653026320E+02 -0.23014212237E+02  0.35648717558E+02  0.00000000000E+00 0.  1.
</event>
<event>
12    1  0.8196217E-002  0.1902824E+03  0.7818608E-02  0.1158693E+00
         21   -1    0    0  503  502  0.00000000000E+00  0.00000000000E+00  0.76351026667E+02  0.76351026667E+02  0.00000000000E+00 0. -1.
         21   -1    0    0  501  503 -0.00000000000E+00 -0.00000000000E+00 -0.52215011852E+03  0.52215011852E+03  0.00000000000E+00 0.  1.
          6    2    1    2  501    0 -0.63931148322E+02  0.39907616528E+02 -0.12619186668E+03  0.22653857141E+03  0.17238192347E+03 0.  0.
         24    2    3    3    0    0 -0.62615017691E+01  0.11927332377E+02 -0.13898260336E+03  0.16100707227E+03  0.80160124901E+02 0.  0.
         -6    2    1    2    0  502  0.63931148322E+02 -0.39907616528E+02 -0.31960722518E+03  0.37196257378E+03  0.17472140202E+03 0.  0.
        -24    2    5    5    0    0  0.34748197083E+02 -0.81530875650E+02 -0.13558864222E+03  0.18099380875E+03  0.80745018558E+02 0.  0.
          5    1    3    3  501    0 -0.57669646553E+02  0.27980284151E+02  0.12790736678E+02  0.65531499140E+02  0.47000000000E+01 0. -1.
        -13    1    4    4    0    0 -0.17472205809E+02 -0.20433345195E+02 -0.11759657019E+03  0.12063064657E+03  0.00000000000E+00 0.  1.
         14    1    4    4    0    0  0.11210704040E+02  0.32360677572E+02 -0.21386033168E+02  0.40376425704E+02  0.00000000000E+00 0. -1.
         -5    1    5    5    0  502  0.29182951239E+02  0.41623259122E+02 -0.18401858295E+03  0.19096876503E+03  0.47000000000E+01 0.  1.
         13    1    6    6    0    0 -0.25124459145E+02 -0.17097113358E+02 -0.22953282338E+02  0.38084155532E+02  0.00000000000E+00 0. -1.
        -14    1    6    6    0    0  0.59872656228E+02 -0.64433762292E+02 -0.11263535988E+03  0.14290965322E+03  0.00000000000E+00 0.  1.
</event>
<event>
12    1  0.8196217E-002  0.1871775E+03  0.7818608E-02  0.1161225E+00
         21   -1    0    0  501  502  0.00000000000E+00  0.00000000000E+00  0.46837210640E+02  0.46837210640E+02  0.00000000000E+00 0. -1.
         21   -1    0    0  502  503 -0.00000000000E+00 -0.00000000000E+00 -0.74482920695E+03  0.74482920695E+03  0.00000000000E+00 0.  1.
         -6    2    1    2    0  503 -0.32177931239E+02 -0.65664718680E+02 -0.35383834097E+03  0.39990482416E+03  0.17139143008E+03 0.  0.
        -24    2    3    3    0    0 -0.17555280979E+02 -0.43852419307E+02 -0.69101651545E+02  0.11392113475E+03  0.77277190207E+02 0.  0.
          6    2    1    2  501    0  0.32177931239E+02  0.65664718680E+02 -0.34415365534E+03  0.39176159343E+03  0.17230244649E+03 0.  0.
         24    2    5    5    0    0 -0.22680401559E+02  0.47001641902E+02 -0.30876855863E+03  0.32370322009E+03  0.81989005033E+02 0.  0.
          5    1    5    5  501    0  0.54858332798E+02  0.18663076777E+02 -0.35385096713E+02  0.68058373339E+02  0.47000000000E+01 0. -1.
        -13    1    6    6    0    0  0.75470834018E+01  0.55475891682E+02 -0.12095487729E+03  0.13328396515E+03  0.00000000000E+00 0.  1.
         14    1    6    6    0    0 -0.30227484960E+02 -0.84742497796E+01 -0.18781368133E+03  0.19041925494E+03  0.00000000000E+00 0. -1.
         -5    1    3    3    0  503 -0.14622650261E+02 -0.21812299373E+02 -0.28473668943E+03  0.28598368941E+03  0.47000000000E+01 0.  1.
         13    1    4    4    0    0  0.66104573779E+01 -0.11525672168E+02  0.15361281719E+02  0.20310298908E+02  0.00000000000E+00 0. -1.
        -14    1    4    4    0    0 -0.24165738357E+02 -0.32326747138E+02 -0.84462933264E+02  0.93610835838E+02  0.00000000000E+00 0.  1.
</event>
<event>
12    1  0.8196217E-002  0.1781892E+03  0.7818608E-02  0.1169873E+00
         21   -1    0    0  503  502  0.00000000000E+00  0.00000000000E+00  0.92463757673E+03  0.92463757673E+03  0.00000000000E+00 0. -1.
         21   -1    0    0  501  503 -0.00000000000E+00 -0.00000000000E+00 -0.52794772365E+02  0.52794772365E+02  0.00000000000E+00 0. -1.
          6    2    1    2  501    0 -0.34176434209E+02  0.11466187770E+02  0.14608989252E+03  0.23042061834E+03  0.17450473501E+03 0.  0.
         24    2    3    3    0    0  0.37820568981E+01 -0.56212570606E+02  0.10530908589E+03  0.14263436901E+03  0.77976936344E+02 0.  0.
         -6    2    1    2    0  502  0.34176434209E+02 -0.11466187770E+02  0.72575291184E+03  0.74701173076E+03  0.17323318019E+03 0.  0.
        -24    2    5    5    0    0 -0.16151850643E+02  0.41336597698E+02  0.25774385235E+03  0.27332867198E+03  0.79417081979E+02 0.  0.
          5    1    3    3  501    0 -0.37958491107E+02  0.67678758376E+02  0.40780806626E+02  0.87786249330E+02  0.47000000000E+01 0. -1.
        -11    1    4    4    0    0 -0.22970148530E+02  0.65524891428E+01  0.47663481118E+02  0.53313884399E+02  0.00000000000E+00 0.  1.
         12    1    4    4    0    0  0.26752205428E+02 -0.62765059749E+02  0.57645604775E+02  0.89320484607E+02  0.00000000000E+00 0. -1.
         -5    1    5    5    0  502  0.50328284851E+02 -0.52802785468E+02  0.46800905949E+03  0.47368305878E+03  0.47000000000E+01 0.  1.
         11    1    6    6    0    0  0.19823297990E+02  0.26598943763E+02  0.20575152519E+03  0.20840863003E+03  0.00000000000E+00 0. -1.
        -12    1    6    6    0    0 -0.35975148633E+02  0.14737653935E+02  0.51992327165E+02  0.64920041950E+02  0.00000000000E+00 0.  1.
</event>
<event>
12    1  0.8196217E-002  0.2074272E+03  0.7818608E-02  0.1143880E+00
         21   -1    0    0  503  502  0.00000000000E+00  0.00000000000E+00  0.16460776446E+03  0.16460776446E+03  0.00000000000E+00 0. -1.
         21   -1    0    0  501  503 -0.00000000000E+00 -0.00000000000E+00 -0.30615361188E+03  0.30615361188E+03  0.00000000000E+00 0. -1.
          6    2    1    2  501    0 -0.39042736767E+02  0.10591079879E+03 -0.16220993364E+03  0.26230738733E+03  0.17248672494E+03 0.  0.
         24    2    3    3    0    0 -0.64409547253E+02  0.35084901405E+01 -0.10131338304E+03  0.14040501751E+03  0.72720479096E+02 0.  0.
         -6    2    1    2    0  502  0.39042736767E+02 -0.10591079879E+03  0.20664086219E+02  0.20845398901E+03  0.17402479271E+03 0.  0.
        -24    2    5    5    0    0  0.89976437798E+02 -0.53234235986E+02  0.97569407604E+00  0.13243566914E+03  0.81293365304E+02 0.  0.
          5    1    3    3  501    0  0.25366810486E+02  0.10240230865E+03 -0.60896550600E+02  0.12190236981E+03  0.47000000000E+01 0. -1.
        -13    1    4    4    0    0 -0.55760524141E+02  0.18551174403E+02 -0.10705864950E+03  0.12212672336E+03  0.00000000000E+00 0.  1.
         14    1    4    4    0    0 -0.86490231117E+01 -0.15042684262E+02  0.57452664637E+01  0.18278294158E+02  0.00000000000E+00 0. -1.
         -5    1    5    5    0  502 -0.50933701031E+02 -0.52676562804E+02  0.19688392143E+02  0.76018319863E+02  0.47000000000E+01 0.  1.
         11    1    6    6    0    0  0.37582365148E+02 -0.56422947423E+02  0.28057323051E+02  0.73370270157E+02  0.00000000000E+00 0. -1.
        -12    1    6    6    0    0  0.52394072650E+02  0.31887114364E+01 -0.27081628975E+02  0.59065398986E+02  0.00000000000E+00 0.  1.
</event>
<event>
12    1  0.8196217E-002  0.2109308E+03  0.7818608E-02  0.1141191E+00
         21   -1    0    0  501  502  0.00000000000E+00  0.00000000000E+00  0.10131490404E+04  0.10131490404E+04  0.00000000000E+00 0.  1.
         21   -1    0    0  502  503 -0.00000000000E+00 -0.00000000000E+00 -0.62516214188E+02  0.62516214188E+02  0.00000000000E+00 0.  1.
         -6    2    1    2    0  503 -0.12235829075E+03 -0.24841541412E+01  0.18040831703E+03  0.27755895411E+03  0.17179665251E+03 0.  0.
        -24    2    3    3    0    0 -0.52368239184E+02  0.32395965094E+02  0.17122922119E+03  0.19868198766E+03  0.79769386369E+02 0.  0.
          6    2    1    2  501    0  0.12235829075E+03  0.24841541412E+01  0.77022450916E+03  0.79810630046E+03  0.16955869187E+03 0.  0.
         24    2    5    5    0    0  0.27165486956E+02 -0.85730686245E+01  0.16585023115E+03  0.18616325574E+03  0.79617821031E+02 0.  0.
          5    1    5    5  501    0  0.95192803794E+02  0.11057222766E+02  0.60437427801E+03  0.61194304472E+03  0.47000000000E+01 0. -1.
        -11    1    6    6    0    0  0.48661394975E+01 -0.42778792904E+02  0.73368818614E+02  0.85068725045E+02  0.00000000000E+00 0.  1.
         12    1    6    6    0    0  0.22299347459E+02  0.34205724280E+02  0.92481412537E+02  0.10109453069E+03  0.00000000000E+00 0. -1.
         -5    1    3    3    0  503 -0.69990051566E+02 -0.34880119235E+02  0.91790958462E+01  0.78876966452E+02  0.47000000000E+01 0.  1.
         13    1    4    4    0    0 -0.73886807307E+02  0.25729805362E+02  0.13387270667E+03  0.15505864945E+03  0.00000000000E+00 0. -1.
        -14    1    4    4    0    0  0.21518568122E+02  0.66661597318E+01  0.37356514523E+02  0.43623338214E+02  0.00000000000E+00 0.  1.
</event>
<event>
12    1  0.8196217E-002  0.2232460E+03  0.7818608E-02  0.1131634E+00
         21   -1    0    0  501  502  0.00000000000E+00  0.00000000000E+00  0.48491678828E+03  0.48491678828E+03  0.00000000000E+00 0.  1.
         21   -1    0    0  502  503 -0.00000000000E+00 -0.00000000000E+00 -0.32414246056E+03  0.32414246056E+03  0.00000000000E+00 0. -1.
         -6    2    1    2    0  503  0.73207581922E+02 -0.12162868601E+03 -0.25424022414E+03  0.33780998569E+03  0.17124429201E+03 0.  0.
        -24    2    3    3    0    0  0.91024049435E+02 -0.14492329615E+03 -0.23834462270E+03  0.30412281422E+03  0.79964914894E+02 0.  0.
          6    2    1    2  501    0 -0.73207581922E+02  0.12162868601E+03  0.41501455186E+03  0.47124926315E+03  0.17229597341E+03 0.  0.
         24    2    5    5    0    0 -0.44465304255E+01  0.36196890879E+02  0.29971352608E+03  0.31205413016E+03  0.78864414610E+02 0.  0.
          5    1    5    5  501    0 -0.68761051496E+02  0.85431795131E+02  0.11530102578E+03  0.15919513299E+03  0.47000000000E+01 0. -1.
        -13    1    6    6    0    0  0.28881209960E+01  0.59290529399E+02  0.24708577564E+03  0.25411628961E+03  0.00000000000E+00 0.  1.
         14    1    6    6    0    0 -0.73346514215E+01 -0.23093638520E+02  0.52627750436E+02  0.57937840549E+02  0.00000000000E+00 0. -1.
         -5    1    3    3    0  503 -0.17816467514E+02  0.23294610143E+02 -0.15895601438E+02  0.33687171467E+02  0.47000000000E+01 0.  1.
         11    1    4    4    0    0  0.91193162513E+02 -0.78981003134E+02 -0.13054119166E+03  0.17775037121E+03  0.00000000000E+00 0. -1.
        -12    1    4    4    0    0 -0.16911307746E+00 -0.65942293018E+02 -0.10780343104E+03  0.12637244301E+03  0.00000000000E+00 0.  1.
</event>
<event>
12    1  0.8196217E-002  0.2112515E+03  0.7818608E-02  0.1142178E+00
         21   -1    0    0  503  502  0.00000000000E+00  0.00000000000E+00  0.11022917982E+03  0.11022917982E+03  0.00000000000E+00 0. -1.
         21   -1    0    0  501  503 -0.00000000000E+00 -0.00000000000E+00 -0.90005989967E+03  0.90005989967E+03  0.00000000000E+00 0. -1.
          6    2    1    2  501    0 -0.11609880007E+03  0.37150580379E+02 -0.77196907699E+03  0.79828378714E+03  0.16267037833E+03 0.  0.
         24    2    3    3    0    0 -0.82085461482E+00  0.55760642380E+01 -0.38476157120E+03  0.39302128293E+03  0.79953085446E+02 0.  0.
         -6    2    1    2    0  502  0.11609880007E+03 -0.37150580379E+02 -0.17861642865E+02  0.21200529235E+03  0.17253436961E+03 0.  0.
        -24    2    5    5    0    0  0.18572151043E+02 -0.57119306830E+02  0.27172064178E+02  0.10264203491E+03  0.78673542266E+02 0.  0.
          5    1    3    3  501    0 -0.11527794546E+03  0.31574516141E+02 -0.38720750579E+03  0.40526250421E+03  0.47000000000E+01 0. -1.
        -13    1    4    4    0    0 -0.96923735105E+01 -0.51320367736E+01 -0.35085702754E+01  0.11514771864E+02  0.00000000000E+00 0.  1.
         14    1    4    4    0    0  0.88715188956E+01  0.10708101012E+02 -0.38125300092E+03  0.38150651107E+03  0.00000000000E+00 0. -1.
         -5    1    5    5    0  502  0.97526649029E+02  0.19968726450E+02 -0.45033707043E+02  0.10936325744E+03  0.47000000000E+01 0.  1.
         11    1    6    6    0    0  0.29596697445E+02 -0.28146375889E+02  0.49694033609E+02  0.64324800440E+02  0.00000000000E+00 0. -1.
        -12    1    6    6    0    0 -0.11024546402E+02 -0.28972930940E+02 -0.22521969432E+02  0.38317234474E+02  0.00000000000E+00 0.  1.
</event>
<event>
12    1  0.8196217E-002  0.2454090E+03  0.7818608E-02  0.1118174E+00
         21   -1    0    0  503  502  0.00000000000E+00  0.00000000000E+00  0.83668251675E+03  0.83668251675E+03  0.00000000000E+00 0.  1.
         21   -1    0    0  501  503 -0.00000000000E+00 -0.00000000000E+00 -0.69368075648E+02  0.69368075648E+02  0.00000000000E+00 0. -1.
          6    2    1    2  501    0  0.12041368205E+03  0.13014950662E+03  0.32705973026E+03  0.40201708819E+03  0.15235262760E+03 0.  0.
         24    2    3    3    0    0  0.31192272940E+02  0.29872884441E+02  0.80365339818E+02  0.12113264028E+03  0.79681751871E+02 0.  0.
         -6    2    1    2    0  502 -0.12041368205E+03 -0.13014950662E+03  0.44025471084E+03  0.50403350422E+03  0.16966795236E+03 0.  0.
        -24    2    5    5    0    0  0.66896568038E+01 -0.53846431127E+02  0.18049034600E+03  0.20490638522E+03  0.80409402765E+02 0.  0.
          5    1    3    3  501    0  0.89221409106E+02  0.10027662217E+03  0.24669439045E+03  0.28088444791E+03  0.47000000000E+01 0. -1.
        -11    1    4    4    0    0  0.19281943837E+02  0.28594385459E+01  0.88410188521E+02  0.90533591453E+02  0.00000000000E+00 0.  1.
         12    1    4    4    0    0  0.11910329102E+02  0.27013445895E+02 -0.80448487038E+01  0.30599048827E+02  0.00000000000E+00 0. -1.
         -5    1    5    5    0  502 -0.12710333885E+03 -0.76303075488E+02  0.25976436485E+03  0.29912711900E+03  0.47000000000E+01 0.  1.
         13    1    6    6    0    0 -0.21955391722E+01 -0.19709768173E+02 -0.11573910713E+01  0.19865419899E+02  0.00000000000E+00 0. -1.
        -14    1    6    6    0    0  0.88851959760E+01 -0.34136662954E+02  0.18164773707E+03  0.18504096532E+03  0.00000000000E+00 0.  1.
</event>
<event>
12    1  0.8196217E-002  0.1767889E+03  0.7818608E-02  0.1171689E+00
         21   -1    0    0  503  502  0.00000000000E+00  0.00000000000E+00  0.55810966886E+03  0.55810966886E+03  0.00000000000E+00 0. -1.
         21   -1    0    0  501  503 -0.00000000000E+00 -0.00000000000E+00 -0.73229851467E+02  0.73229851467E+02  0.00000000000E+00 0. -1.
          6    2    1    2  501    0 -0.19511322537E+02  0.22574514597E+02  0.83681611753E+02  0.19291700530E+03  0.17124268852E+03 0.  0.
         24    2    3    3    0    0  0.29067221978E+02  0.60518301725E+02  0.81067723011E+02  0.13104190220E+03  0.78055340510E+02 0.  0.
         -6    2    1    2    0  502  0.19511322537E+02 -0.22574514597E+02  0.40119820564E+03  0.43842251503E+03  0.17425269311E+03 0.  0.
        -24    2    5    5    0    0  0.46440873652E+02 -0.62015862619E+02  0.35319102671E+03  0.37054321122E+03  0.80966956653E+02 0.  0.
          5    1    3    3  501    0 -0.48578544515E+02 -0.37943787127E+02  0.26138887422E+01  0.61875103096E+02  0.47000000000E+01 0. -1.
        -11    1    4    4    0    0 -0.15678649489E+02  0.17436041148E+02 -0.58908229962E+01  0.24177207785E+02  0.00000000000E+00 0.  1.
         12    1    4    4    0    0  0.44745871467E+02  0.43082260576E+02  0.86958546007E+02  0.10686469442E+03  0.00000000000E+00 0. -1.
         -5    1    5    5    0  502 -0.26929551114E+02  0.39441348021E+02  0.48007178936E+02  0.67879303815E+02  0.47000000000E+01 0.  1.
         11    1    6    6    0    0 -0.13642911720E+02  0.81596253869E+01  0.95025665938E+02  0.96346176435E+02  0.00000000000E+00 0. -1.
        -12    1    6    6    0    0  0.60083785372E+02 -0.70175488005E+02  0.25816536077E+03  0.27419703478E+03  0.00000000000E+00 0.  1.
</event>
<event>
12    1  0.8196217E-002  0.2712837E+03  0.7818608E-02  0.1100607E+00
         21   -1    0    0  501  502  0.00000000000E+00  0.00000000000E+00  0.78887926777E+02  0.78887926777E+02  0.00000000000E+00 0. -1.
         21   -1    0    0  502  503 -0.00000000000E+00 -0.00000000000E+00 -0.10123353026E+04  0.10123353026E+04  0.00000000000E+00 0.  1.
         -6    2    1    2    0  503 -0.58564153745E+02  0.20126561811E+03 -0.31216578921E+03  0.41329577375E+03  0.17154680850E+03 0.  0.
        -24    2    3    3    0    0 -0.42701797322E+02  0.79015856343E+02 -0.61449589761E+02  0.13387257988E+03  0.77967086095E+02 0.  0.
          6    2    1    2  501    0  0.58564153745E+02 -0.20126561811E+03 -0.62128158664E+03  0.67792745566E+03  0.17221270597E+03 0.  0.
         24    2    5    5    0    0  0.40566929584E+02 -0.16958949453E+03 -0.31091749261E+03  0.36539707674E+03  0.80243778884E+02 0.  0.
          5    1    5    5  501    0  0.17997224162E+02 -0.31676123581E+02 -0.31036409403E+03  0.31253037892E+03  0.47000000000E+01 0. -1.
        -13    1    6    6    0    0 -0.21376063609E+02 -0.67563462783E+02 -0.14021409397E+03  0.15710426393E+03  0.00000000000E+00 0.  1.
         14    1    6    6    0    0  0.61942993193E+02 -0.10202603175E+03 -0.17070339864E+03  0.20829281281E+03  0.00000000000E+00 0. -1.
         -5    1    3    3    0  503 -0.15862356423E+02  0.12224976177E+03 -0.25071619945E+03  0.27942319387E+03  0.47000000000E+01 0.  1.
         11    1    4    4    0    0 -0.56068017089E+02  0.29427527850E+02 -0.16047400990E+02  0.65323204255E+02  0.00000000000E+00 0. -1.
        -12    1    4    4    0    0  0.13366219767E+02  0.49588328493E+02 -0.45402188770E+02  0.68549375626E+02  0.00000000000E+00 0.  1.
</event>
<event>
12    1  0.8196217E-002  0.2020314E+03  0.7818608E-02  0.1148369E+00
         21   -1    0    0  503  502  0.00000000000E+00  0.00000000000E+00  0.18408723494E+04  0.18408723494E+04  0.00000000000E+00 0.  1.
         21   -1    0    0  501  503 -0.00000000000E+00 -0.00000000000E+00 -0.27041460951E+02  0.27041460951E+02  0.00000000000E+00 0.  1.
          6    2    1    2  501    0 -0.89165776736E+02  0.50807651847E+02  0.50649470816E+03  0.54530136458E+03  0.17402510045E+03 0.  0.
         24    2    3    3    0    0 -0.11929159692E+03  0.48633858548E+02  0.48488642415E+03  0.50786744471E+03  0.78859113460E+02 0.  0.
         -6    2    1    2    0  502  0.89165776736E+02 -0.50807651847E+02  0.13073361803E+04  0.13226124458E+04  0.17217386619E+03 0.  0.
        -24    2    5    5    0    0  0.25562941183E+01 -0.18101952304E+02  0.31347935066E+03  0.32444194277E+03  0.81603036855E+02 0.  0.
          5    1    3    3  501    0  0.30125820182E+02  0.21737932996E+01  0.21608284010E+02  0.37433919870E+02  0.47000000000E+01 0. -1.
        -13    1    4    4    0    0 -0.88320053910E+02  0.23987644351E+02  0.19638061969E+03  0.21665914888E+03  0.00000000000E+00 0.  1.
         14    1    4    4    0    0 -0.30971543008E+02  0.24646214197E+02  0.28850580446E+03  0.29120829583E+03  0.00000000000E+00 0. -1.
         -5    1    5    5    0  502  0.86609482618E+02 -0.32705699544E+02  0.99385682962E+03  0.99817050299E+03  0.47000000000E+01 0.  1.
         13    1    6    6    0    0 -0.84132029927E+01  0.24867514037E+02  0.21299300731E+03  0.21460474459E+03  0.00000000000E+00 0. -1.
        -14    1    6    6    0    0  0.10969497111E+02 -0.42969466341E+02  0.10048634336E+03  0.10983719819E+03  0.00000000000E+00 0.  1.
</event>
<event>
12    1  0.8196217E-002  0.1726209E+03  0.7818608E-02  0.1176008E+00
         21   -1    0    0  501  502  0.00000000000E+00  0.00000000000E+00  0.11179173296E+04  0.11179173296E+04  0.00000000000E+00 0. -1.
         21   -1    0    0  502  503 -0.00000000000E+00 -0.00000000000E+00 -0.38147295725E+02  0.38147295725E+02  0.00000000000E+00 0. -1.
         -6    2    1    2    0  503  0.78967944885E+00 -0.28706409093E+01  0.86054801053E+03  0.87703728833E+03  0.16924143264E+03 0.  0.
        -24    2    3    3    0    0  0.21161417101E+02  0.26631257503E+02  0.80998152441E+03  0.81487275484E+03  0.82404534188E+02 0.  0.
          6    2    1    2  501    0 -0.78967944885E+00  0.28706409093E+01  0.21922202334E+03  0.27902733699E+03  0.17259517692E+03 0.  0.
         24    2    5    5    0    0 -0.21464486210E+02 -0.59605308772E+02  0.10009149097E+03  0.14284780230E+03  0.79835274518E+02 0.  0.
          5    1    5    5  501    0  0.20674806761E+02  0.62475949682E+02  0.11913053237E+03  0.13617953468E+03  0.47000000000E+01 0. -1.
        -13    1    6    6    0    0  0.27456180613E+02 -0.64720720954E+01  0.39701636552E+02  0.48702664362E+02  0.00000000000E+00 0.  1.
         14    1    6    6    0    0 -0.48920666822E+02 -0.53133236677E+02  0.60389854414E+02  0.94145137943E+02  0.00000000000E+00 0. -1.
         -5    1    3    3    0  503 -0.20371737652E+02 -0.29501898412E+02  0.50566486121E+02  0.62164533485E+02  0.47000000000E+01 0.  1.
         11    1    4    4    0    0  0.38754742522E+02 -0.16395977418E+02  0.33863075912E+03  0.34123532813E+03  0.00000000000E+00 0. -1.
        -12    1    4    4    0    0 -0.17593325421E+02  0.43027234921E+02  0.47135076529E+03  0.47363742671E+03  0.00000000000E+00 0.  1.
</event>
<event>
12    1  0.8196217E-002  0.2181342E+03  0.7818608E-02  0.1135328E+00
         21   -1    0    0  503  502  0.00000000000E+00  0.00000000000E+00  0.29563436513E+03  0.29563436513E+03  0.00000000000E+00 0.  1.
         21   -1    0    0  501  503 -0.00000000000E+00 -0.00000000000E+00 -0.16614755093E+03  0.16614755093E+03  0.00000000000E+00 0.  1.
          6    2    1    2  501    0 -0.94663204085E+02 -0.96272577797E+02  0.10631552610E+03  0.24266338701E+03  0.17132716324E+03 0.  0.
         24    2    3    3    0    0 -0.69717714446E+02 -0.13092315004E+03  0.10767920611E+03  0.19968793782E+03  0.79240331643E+02 0.  0.
         -6    2    1    2    0  502  0.94663204085E+02  0.96272577797E+02  0.23171288096E+02  0.21911852905E+03  0.17101605111E+03 0.  0.
        -24    2    5    5    0    0  0.62343380815E+02  0.83464840421E+01  0.60974833450E+02  0.11799105019E+03  0.79041740134E+02 0.  0.
          5    1    3    3  501    0 -0.24945489639E+02  0.34650572240E+02 -0.13636800138E+01  0.42975449190E+02  0.47000000000E+01 0. -1.
        -13    1    4    4    0    0 -0.79041990430E+02 -0.67494937693E+02  0.62924156127E+02  0.12150165550E+03  0.00000000000E+00 0.  1.
         14    1    4    4    0    0  0.93242759839E+01 -0.63428212343E+02  0.44755049983E+02  0.78186282318E+02  0.00000000000E+00 0. -1.
         -5    1    5    5    0  502  0.32319823270E+02  0.87926093755E+02 -0.37803545353E+02  0.10112747886E+03  0.47000000000E+01 0.  1.
         11    1    6    6    0    0  0.50715697807E+02  0.40827949518E+02  0.48947632561E+02  0.81454737120E+02  0.00000000000E+00 0. -1.
        -12    1    6    6    0    0  0.11627683008E+02 -0.32481465476E+02  0.12027200889E+02  0.36536313071E+02  0.00000000000E+00 0.  1.
</event>
<event>
12    1  0.8196217E-002  0.2868581E+03  0.7818608E-02  0.1092074E+00
         21   -1    0    0  503  502  0.00000000000E+00  0.00000000000E+00  0.28737704078E+03  0.28737704078E+03  0.00000000000E+00 0.  1.
         21   -1    0    0  501  503 -0.00000000000E+00 -0.00000000000E+00 -0.74507065301E+03  0.74507065301E+03  0.00000000000E+00 0.  1.
          6    2    1    2  501    0  0.19838581164E+03  0.11385296597E+03 -0.63406354851E+03  0.69570754700E+03  0.17220040441E+03 0.  0.
         24    2    3    3    0    0  0.22181061200E+03  0.11353606422E+03 -0.59258902358E+03  0.64784265468E+03  0.80299245786E+02 0.  0.
         -6    2    1    2    0  502 -0.19838581164E+03 -0.11385296597E+03  0.17636993629E+03  0.33674014679E+03  0.17311309573E+03 0.  0.
        -24    2    5    5    0    0 -0.61537042910E+02 -0.49568467417E+02  0.14310294768E+03  0.18185675585E+03  0.79684285784E+02 0.  0.
          5    1    3    3  501    0 -0.23424800364E+02  0.31690175960E+00 -0.41474524933E+02  0.47864892325E+02  0.47000000000E+01 0. -1.
        -11    1    4    4    0    0  0.37127080630E+02  0.58802738922E+01 -0.37868561390E+02  0.53357526920E+02  0.00000000000E+00 0.  1.
         12    1    4    4    0    0  0.18468353137E+03  0.10765579032E+03 -0.55472046219E+03  0.59448512776E+03  0.00000000000E+00 0. -1.
         -5    1    5    5    0  502 -0.13684876873E+03 -0.64284498558E+02  0.33266988605E+02  0.15488339094E+03  0.47000000000E+01 0.  1.
         13    1    6    6    0    0 -0.65076481909E+01 -0.14048327329E+02 -0.78119748467E+01  0.17341624397E+02  0.00000000000E+00 0. -1.
        -14    1    6    6    0    0 -0.55029394719E+02 -0.35520140088E+02  0.15091492253E+03  0.16451513146E+03  0.00000000000E+00 0.  1.
</event>
<event>
12    1  0.8196217E-002  0.2123923E+03  0.7818608E-02  0.1139968E+00
         21   -1    0    0  501  502  0.00000000000E+00  0.00000000000E+00  0.22934042891E+02  0.22934042891E+02  0.00000000000E+00 0.  1.
         21   -1    0    0  502  503 -0.00000000000E+00 -0.00000000000E+00 -0.22202314477E+04  0.22202314477E+04  0.00000000000E+00 0.  1.
         -6    2    1    2    0  503 -0.92790951259E+02 -0.79297010373E+02 -0.14840071859E+04  0.14989253301E+04  0.17205127416E+03 0.  0.
        -24    2    3    3    0    0  0.19194364668E+02 -0.30230117596E+02 -0.58913745434E+03  0.59572978239E+03  0.80800679925E+02 0.  0.
          6    2    1    2  501    0  0.92790951259E+02  0.79297010373E+02 -0.71329021887E+03  0.74424016045E+03  0.17381686798E+03 0.  0.
         24    2    5    5    0    0  0.91403725740E+02  0.91535040224E+02 -0.71467014357E+03  0.73098542690E+03  0.82782700897E+02 0.  0.
          5    1    5    5  501    0  0.13872255186E+01 -0.12238029851E+02  0.13799246939E+01  0.13254733548E+02  0.47000000000E+01 0. -1.
        -13    1    6    6    0    0  0.82489050026E+02  0.30236665670E+02 -0.49556796481E+03  0.50329544710E+03  0.00000000000E+00 0.  1.
         14    1    6    6    0    0  0.89146757142E+01  0.61298374554E+02 -0.21910217875E+03  0.22768997980E+03  0.00000000000E+00 0. -1.
         -5    1    3    3    0  503 -0.11198531593E+03 -0.49066892778E+02 -0.89486973160E+03  0.90319554776E+03  0.47000000000E+01 0.  1.
         11    1    4    4    0    0 -0.98852105358E+01  0.36750623840E+01 -0.43807321586E+03  0.43820014369E+03  0.00000000000E+00 0. -1.
        -12    1    4    4    0    0  0.29079575204E+02 -0.33905179980E+02 -0.15106423848E+03  0.15752963870E+03  0.00000000000E+00 0.  1.
</event>
<event>
12    1  0.8196217E-002  0.2327553E+03  0.7818608E-02  0.1124973E+00
         21   -1    0    0  501  502  0.00000000000E+00  0.00000000000E+00  0.19049321697E+03  0.19049321697E+03  0.00000000000E+00 0.  1.
         21   -1    0    0  502  503 -0.00000000000E+00 -0.00000000000E+00 -0.34229399315E+03  0.34229399315E+03  0.00000000000E+00 0.  1.
         -6    2    1    2    0  503 -0.15421849645E+03 -0.97696034434E+01 -0.18736248688E+03  0.29879716537E+03  0.17405819356E+03 0.  0.
        -24    2    3    3    0    0 -0.11789578142E+03 -0.72620977127E+02 -0.11997224309E+03  0.19963482494E+03  0.79293774168E+02 0.  0.
          6    2    1    2  501    0  0.15421849645E+03  0.97696034434E+01  0.35561710699E+02  0.23399004476E+03  0.17206950915E+03 0.  0.
         24    2    5    5    0    0  0.14965163082E+03 -0.36951648061E+02  0.55679547976E+02  0.18270116701E+03  0.80737038971E+02 0.  0.
          5    1    5    5  501    0  0.45668656228E+01  0.46721251504E+02 -0.20117837277E+02  0.51288877746E+02  0.47000000000E+01 0. -1.
        -11    1    6    6    0    0  0.48560784613E+02 -0.73748924340E+01  0.59684033575E+02  0.77296330471E+02  0.00000000000E+00 0.  1.
         12    1    6    6    0    0  0.10109084621E+03 -0.29576755627E+02 -0.40044855982E+01  0.10540483654E+03  0.00000000000E+00 0. -1.
         -5    1    3    3    0  503 -0.36322715030E+02  0.62851373683E+02 -0.67390243789E+02  0.99162340427E+02  0.47000000000E+01 0.  1.
         13    1    4    4    0    0 -0.76479214491E+02 -0.10986226862E+02 -0.29775159145E+02  0.82802943982E+02  0.00000000000E+00 0. -1.
        -14    1    4    4    0    0 -0.41416566926E+02 -0.61634750264E+02 -0.90197083945E+02  0.11683188096E+03  0.00000000000E+00 0.  1.
</event>
<event>
12    1  0.8196217E-002  0.1769128E+03  0.7818608E-02  0.1170999E+00
         21   -1    0    0  503  502  0.00000000000E+00  0.00000000000E+00  0.35232497521E+02  0.35232497521E+02  0.00000000000E+00 0. -1.
         21   -1    0    0  501  503 -0.00000000000E+00 -0.00000000000E+00 -0.16110554951E+04  0.16110554951E+04  0.00000000000E+00 0. -1.
          6    2    1    2  501    0 -0.72876955416E+01 -0.38561110207E+02 -0.13397161656E+04  0.13512547984E+04  0.17178491209E+03 0.  0.
         24    2    3    3    0    0  0.32208004516E+02 -0.70710654044E+02 -0.68316882797E+03  0.69271854269E+03  0.84273244458E+02 0.  0.
         -6    2    1    2    0  502  0.72876955416E+01  0.38561110207E+02 -0.23610683194E+03  0.29503319421E+03  0.17250530389E+03 0.  0.
        -24    2    5    5    0    0 -0.10172936151E+02  0.65720012363E+02 -0.23999919103E+03  0.26217409981E+03  0.81933132842E+02 0.  0.
          5    1    3    3  501    0 -0.39495700058E+02  0.32149543837E+02 -0.65654733764E+03  0.65853625568E+03  0.47000000000E+01 0. -1.
        -11    1    4    4    0    0  0.31063899915E+02  0.10921689673E+02 -0.20652337371E+03  0.20913190353E+03  0.00000000000E+00 0.  1.
         12    1    4    4    0    0  0.11441046015E+01 -0.81632343717E+02 -0.47664545425E+03  0.48358663916E+03  0.00000000000E+00 0. -1.
         -5    1    5    5    0  502  0.17460631693E+02 -0.27158902156E+02  0.38923590981E+01  0.32859094400E+02  0.47000000000E+01 0.  1.
         11    1    6    6    0    0  0.24929735310E+02  0.62604016586E+02 -0.18461728268E+03  0.19653064814E+03  0.00000000000E+00 0. -1.
        -12    1    6    6    0    0 -0.35102671461E+02  0.31159957767E+01 -0.55381908358E+02  0.65643451667E+02  0.00000000000E+00 0.  1.
</event>
<event>
12    1  0.8196217E-002  0.2236230E+03  0.7818608E-02  0.1131706E+00
         21   -1    0    0  503  502  0.00000000000E+00  0.00000000000E+00  0.66160962466E+03  0.66160962466E+03  0.00000000000E+00 0.  1.
         21   -1    0    0  501  503 -0.00000000000E+00 -0.00000000000E+00 -0.13993546419E+03  0.13993546419E+03  0.00000000000E+00 0.  1.
          6    2    1    2  501    0  0.80754268199E+01  0.13721360331E+03 -0.12005307041E+02  0.22394500879E+03  0.17639289700E+03 0.  0.
         24    2    3    3    0    0  0.36245817083E+02  0.25609984775E+02 -0.36055289101E+02  0.10626140672E+03  0.89564904453E+02 0.  0.
         -6    2    1    2    0  502 -0.80754268199E+01 -0.13721360331E+03  0.53367946752E+03  0.57760008007E+03  0.17296037984E+03 0.  0.
        -24    2    5    5    0    0 -0.62173100204E+02 -0.96648862014E+02  0.25522967322E+03  0.29101949027E+03  0.79647101086E+02 0.  0.
          5    1    3    3  501    0 -0.28170390263E+02  0.11160361854E+03  0.24049982060E+02  0.11768360207E+03  0.47000000000E+01 0. -1.
        -13    1    4    4    0    0 -0.47267322600E+01  0.44140999582E+02 -0.41741034654E+02  0.60935078698E+02  0.00000000000E+00 0.  1.
         14    1    4    4    0    0  0.40972549343E+02 -0.18531014807E+02  0.56857455524E+01  0.45326328022E+02  0.00000000000E+00 0. -1.
         -5    1    5    5    0  502  0.54097673384E+02 -0.40564741297E+02  0.27844979430E+03  0.28658058979E+03  0.47000000000E+01 0.  1.
         13    1    6    6    0    0  0.10375175296E+00  0.42828234733E+00 -0.57099317891E+01  0.57269111422E+01  0.00000000000E+00 0. -1.
        -14    1    6    6    0    0 -0.62276851957E+02 -0.97077144361E+02  0.26093960501E+03  0.28529257913E+03  0.00000000000E+00 0.  1.
</event>
<event>
12    1  0.8196217E-002  0.1725720E+03  0.7818608E-02  0.1176749E+00
         21   -1    0    0  501  502  0.00000000000E+00  0.00000000000E+00  0.14430010101E+03  0.14430010101E+03  0.00000000000E+00 0.  1.
         21   -1    0    0  502  503 -0.00000000000E+00 -0.00000000000E+00 -0.35909414362E+03  0.35909414362E+03  0.00000000000E+00 0.  1.
         -6    2    1    2    0  503  0.14785132240E+02  0.23294540053E+01 -0.27423572074E+03  0.32087187890E+03  0.16592017855E+03 0.  0.
        -24    2    3    3    0    0  0.34997614164E+02 -0.35715889835E+02 -0.25805555359E+03  0.27461303735E+03  0.79493356678E+02 0.  0.
          6    2    1    2  501    0 -0.14785132240E+02 -0.23294540053E+01  0.59441678124E+02  0.18252236573E+03  0.17192171009E+03 0.  0.
         24    2    5    5    0    0 -0.32113513663E+01 -0.67826248456E+02  0.27757229640E+02  0.10869976239E+03  0.80215097021E+02 0.  0.
          5    1    5    5  501    0 -0.11573780874E+02  0.65496794450E+02  0.31684448484E+02  0.73822603332E+02  0.47000000000E+01 0. -1.
        -13    1    6    6    0    0 -0.41638912412E+02 -0.31454688656E+02  0.13998408745E+02  0.54029176495E+02  0.00000000000E+00 0.  1.
         14    1    6    6    0    0  0.38427561046E+02 -0.36371559800E+02  0.13758820895E+02  0.54670585899E+02  0.00000000000E+00 0. -1.
         -5    1    3    3    0  503 -0.20212481923E+02  0.38045343840E+02 -0.16180167145E+02  0.46258841558E+02  0.47000000000E+01 0.  1.
         11    1    4    4    0    0  0.24969799456E+01 -0.39041860136E+02 -0.47493723879E+02  0.61531744324E+02  0.00000000000E+00 0. -1.
        -12    1    4    4    0    0  0.32500634218E+02  0.33259703008E+01 -0.21056182971E+03  0.21308129302E+03  0.00000000000E+00 0.  1.
</event>
<event>
12    1  0.8196217E-002  0.2421781E+03  0.7818608E-02  0.1118547E+00
         21   -1    0    0  501  502  0.00000000000E+00  0.00000000000E+00  0.77485731599E+02  0.77485731599E+02  0.00000000000E+00 0.  1.
         21   -1    0    0  502  503 -0.00000000000E+00 -0.00000000000E+00 -0.83028475719E+03  0.83028475719E+03  0.00000000000E+00 0. -1.
         -6    2    1    2    0  503 -0.12142050381E+03  0.11828460786E+03 -0.23893576561E+03  0.34020657515E+03  0.17296250021E+03 0.  0.
        -24    2    3    3    0    0 -0.40717334618E+02  0.85941958133E+02 -0.21317583014E+03  0.24940617434E+03  0.87838395586E+02 0.  0.
          6    2    1    2  501    0  0.12142050381E+03 -0.11828460786E+03 -0.51386325998E+03  0.56756391364E+03  0.17128677390E+03 0.  0.
         24    2    5    5    0    0  0.24052382729E+02 -0.11003697426E+03 -0.29243000949E+03  0.32548262795E+03  0.87960092231E+02 0.  0.
          5    1    5    5  501    0  0.97368121086E+02 -0.82476336016E+01 -0.22143325049E+03  0.24208128570E+03  0.47000000000E+01 0. -1.
        -13    1    6    6    0    0  0.63723851804E+01  0.12837601800E+02 -0.11600145004E+02  0.18438402235E+02  0.00000000000E+00 0.  1.
         14    1    6    6    0    0  0.17679997549E+02 -0.12287457606E+03 -0.28082986449E+03  0.30704422571E+03  0.00000000000E+00 0. -1.
         -5    1    3    3    0  503 -0.80703169197E+02  0.32342649731E+02 -0.25759935476E+02  0.90800400802E+02  0.47000000000E+01 0.  1.
         11    1    4    4    0    0 -0.67015986313E+01  0.78391135878E+02 -0.81831343440E+02  0.11351850236E+03  0.00000000000E+00 0. -1.
        -12    1    4    4    0    0 -0.34015735987E+02  0.75508222555E+01 -0.13134448670E+03  0.13588767199E+03  0.00000000000E+00 0.  1.
</event>
<event>
12    1  0.8196217E-002  0.2117919E+03  0.7818608E-02  0.1140416E+00
         21   -1    0    0  503  502  0.00000000000E+00  0.00000000000E+00  0.25072068980E+04  0.25072068980E+04  0.00000000000E+00 0. -1.
         21   -1    0    0  501  503 -0.00000000000E+00 -0.00000000000E+00 -0.20355041468E+02  0.20355041468E+02  0.00000000000E+00 0.  1.
          6    2    1    2  501    0 -0.12354161412E+03  0.13060346048E+02  0.79723345214E+03  0.82488605466E+03  0.17153053055E+03 0.  0.
         24    2    3    3    0    0 -0.15589869151E+03  0.62255319072E+01  0.71118864707E+03  0.73258495163E+03  0.80921322128E+02 0.  0.
         -6    2    1    2    0  502  0.12354161412E+03 -0.13060346048E+02  0.16896184044E+04  0.17026758848E+04  0.16988735436E+03 0.  0.
        -24    2    5    5    0    0  0.62982984219E+02  0.20742106245E+02  0.14345509564E+04  0.14383059802E+04  0.79940946228E+02 0.  0.
          5    1    3    3  501    0  0.32357077388E+02  0.68348141406E+01  0.86044805069E+02  0.92301103031E+02  0.47000000000E+01 0. -1.
        -13    1    4    4    0    0 -0.13234567524E+03  0.36424845006E+02  0.54135784676E+03  0.55848944961E+03  0.00000000000E+00 0.  1.
         14    1    4    4    0    0 -0.23553016273E+02 -0.30199313099E+02  0.16983080031E+03  0.17409550202E+03  0.00000000000E+00 0. -1.
         -5    1    5    5    0  502  0.60558629902E+02 -0.33802452293E+02  0.25506744794E+03  0.26436990456E+03  0.47000000000E+01 0.  1.
         13    1    6    6    0    0  0.37698831357E+01  0.27669556807E+02  0.90135437780E+03  0.90178685440E+03  0.00000000000E+00 0. -1.
        -14    1    6    6    0    0  0.59213101083E+02 -0.69274505616E+01  0.53319657862E+03  0.53651912581E+03  0.00000000000E+00 0.  1.
</event>
<event>
12    1  0.8196217E-002  0.1934940E+03  0.7818608E-02  0.1155678E+00
         21   -1    0    0  503  502  0.00000000000E+00  0.00000000000E+00  0.66843035490E+03  0.66843035490E+03  0.00000000000E+00 0. -1.
         21   -1    0    0  501  503 -0.00000000000E+00 -0.00000000000E+00 -0.60037487343E+02  0.60037487343E+02  0.00000000000E+00 0. -1.
          6    2    1    2  501    0  0.38271746609E+02 -0.80655691909E+02  0.20384663829E+03  0.28002879619E+03  0.16997825604E+03 0.  0.
         24    2    3    3    0    0  0.81445821483E+02 -0.86219087943E+02  0.18152689618E+03  0.23088397953E+03  0.79298455241E+02 0.  0.
         -6    2    1    2    0  502 -0.38271746609E+02  0.80655691909E+02  0.40454622927E+03  0.44843904606E+03  0.17166787465E+03 0.  0.
        -24    2    5    5    0    0  0.50284888093E+01  0.10260443814E+03  0.35866755397E+03  0.38147935150E+03  0.79568366333E+02 0.  0.
          5    1    3    3  501    0 -0.43174074874E+02  0.55633960335E+01  0.22319742115E+02  0.49144816662E+02  0.47000000000E+01 0. -1.
        -13    1    4    4    0    0 -0.75164316674E+01  0.27646571215E+01 -0.21031840684E+01  0.82803053830E+01  0.00000000000E+00 0.  1.
         14    1    4    4    0    0  0.88962253150E+02 -0.88983745064E+02  0.18363008024E+03  0.22260367414E+03  0.00000000000E+00 0. -1.
         -5    1    5    5    0  502 -0.43300235418E+02 -0.21948746236E+02  0.45878675299E+02  0.66959694561E+02  0.47000000000E+01 0.  1.
         11    1    6    6    0    0 -0.36795112235E+02  0.58758565973E+02  0.18841358125E+03  0.20076385870E+03  0.00000000000E+00 0. -1.
        -12    1    6    6    0    0  0.41823601044E+02  0.43845872172E+02  0.17025397272E+03  0.18071549280E+03  0.00000000000E+00 0.  1.
</event>
<event>
12    1  0.8196217E-002  0.2446913E+03  0.7818608E-02  0.1117019E+00
         21   -1    0    0  503  502  0.00000000000E+00  0.00000000000E+00  0.87668559017E+02  0.87668559017E+02  0.00000000000E+00 0. -1.
         21   -1    0    0  501  503 -0.00000000000E+00 -0.00000000000E+00 -0.68203623362E+03  0.68203623362E+03  0.00000000000E+00 0.  1.
          6    2    1    2  501    0  0.16967743761E+03 -0.27013897005E+02 -0.32928264859E+03  0.41024493662E+03  0.17422302345E+03 0.  0.
         24    2    3    3    0    0  0.98115996095E+02 -0.80796530634E+02 -0.24188117710E+03  0.28504621934E+03  0.81178909041E+02 0.  0.
         -6    2    1    2    0  502 -0.16967743761E+03  0.27013897005E+02 -0.26508502602E+03  0.35945985601E+03  0.17152589775E+03 0.  0.
        -24    2    5    5    0    0 -0.68501502512E+02  0.29200875464E+02 -0.48242613123E+02  0.12011893860E+03  0.80969517197E+02 0.  0.
          5    1    3    3  501    0  0.71561441515E+02  0.53782633630E+02 -0.87401471488E+02  0.12519871729E+03  0.47000000000E+01 0. -1.
        -13    1    4    4    0    0  0.57377013412E+02 -0.87589843352E+02 -0.20254397900E+03  0.22800913524E+03  0.00000000000E+00 0.  1.
         14    1    4    4    0    0  0.40738982683E+02  0.67933127176E+01 -0.39337198101E+02  0.57037084096E+02  0.00000000000E+00 0. -1.
         -5    1    5    5    0  502 -0.10117593510E+03 -0.21869784595E+01 -0.21684241290E+03  0.23934091741E+03  0.47000000000E+01 0.  1.
         13    1    6    6    0    0 -0.43380201677E+02  0.57573419014E+02 -0.32779332307E+02  0.79189804274E+02  0.00000000000E+00 0. -1.
        -14    1    6    6    0    0 -0.25121300834E+02 -0.28372543549E+02 -0.15463280816E+02  0.40929134326E+02  0.00000000000E+00 0.  1.
</event>
<event>
12    1  0.8196217E-002  0.1805974E+03  0.7818608E-02  0.1167874E+00
         21   -1    0    0  501  502  0.00000000000E+00  0.00000000000E+00  0.13546880380E+03  0.13546880380E+03  0.00000000000E+00 0. -1.
         21   -1    0    0  502  503 -0.00000000000E+00 -0.00000000000E+00 -0.56641005021E+03  0.56641005021E+03  0.00000000000E+00 0. -1.
         -6    2    1    2    0  503 -0.48002907654E+02  0.21727116396E+02  0.51396589928E+02  0.18776854623E+03  0.17273989339E+03 0.  0.
        -24    2    3    3    0    0 -0.95174088530E+02 -0.66292984170E+01  0.44251619548E+02  0.13206982840E+03  0.79888541208E+02 0.  0.
          6    2    1    2  501    0  0.48002907654E+02 -0.21727116396E+02 -0.48233783634E+03  0.51411030778E+03  0.16995079722E+03 0.  0.
         24    2    5    5    0    0  0.70734498947E+02  0.21193763401E+02 -0.21302266941E+03  0.24041033280E+03  0.83462120078E+02 0.  0.
          5    1    5    5  501    0 -0.22731591293E+02 -0.42920879797E+02 -0.26931516693E+03  0.27369997498E+03  0.47000000000E+01 0. -1.
        -11    1    6    6    0    0  0.11640380478E+02  0.40169032737E+02 -0.45702856841E+02  0.61949986054E+02  0.00000000000E+00 0.  1.
         12    1    6    6    0    0  0.59094118469E+02 -0.18975269336E+02 -0.16731981256E+03  0.17846034675E+03  0.00000000000E+00 0. -1.
         -5    1    3    3    0  503  0.47171180877E+02  0.28356414813E+02  0.71449703798E+01  0.55698717832E+02  0.47000000000E+01 0.  1.
         13    1    4    4    0    0 -0.21624045015E+02  0.94934325284E+01  0.51269368955E+02  0.56447079437E+02  0.00000000000E+00 0. -1.
        -14    1    4    4    0    0 -0.73550043515E+02 -0.16122730945E+02 -0.70177494063E+01  0.75622748965E+02  0.00000000000E+00 0.  1.
</event>
<event>
12    1  0.8196217E-002  0.2603970E+03  0.7818608E-02  0.1106926E+00
         21   -1    0    0  503  502  0.00000000000E+00  0.00000000000E+00  0.11661552913E+03  0.11661552913E+03  0.00000000000E+00 0. -1.
         21   -1    0    0  501  503 -0.00000000000E+00 -0.00000000000E+00 -0.66534473020E+03  0.66534473020E+03  0.00000000000E+00 0.  1.
          6    2    1    2  501    0  0.16041109545E+03 -0.11140042007E+03 -0.41352061322E+03  0.48867771594E+03  0.17223483784E+03 0.  0.
         24    2    3    3    0    0  0.17430042602E+03 -0.84379949569E+02 -0.40438343420E+03  0.45660596248E+03  0.86385350122E+02 0.  0.
         -6    2    1    2    0  502 -0.16041109545E+03  0.11140042007E+03 -0.13520858785E+03  0.29328254339E+03  0.17202184424E+03 0.  0.
        -24    2    5    5    0    0 -0.87891422678E+02  0.10423755444E+03 -0.23841899557E+02  0.16010957750E+03  0.80475280035E+02 0.  0.
          5    1    3    3  501    0 -0.13889330573E+02 -0.27020470496E+02 -0.91371790182E+01  0.32071753460E+02  0.47000000000E+01 0. -1.
        -13    1    4    4    0    0  0.56997089075E+02 -0.48770672713E+02 -0.24061697335E+03  0.25203923215E+03  0.00000000000E+00 0.  1.
         14    1    4    4    0    0  0.11730333695E+03 -0.35609276856E+02 -0.16376646085E+03  0.20456673032E+03  0.00000000000E+00 0. -1.
         -5    1    5    5    0  502 -0.72519672772E+02  0.71628656284E+01 -0.11136668829E+03  0.13317296589E+03  0.47000000000E+01 0.  1.
         11    1    6    6    0    0 -0.17478735138E+02  0.76286355962E+00  0.20842799979E+02  0.27212321727E+02  0.00000000000E+00 0. -1.
        -12    1    6    6    0    0 -0.70412687540E+02  0.10347469088E+03 -0.44684699536E+02  0.13289725577E+03  0.00000000000E+00 0.  1.
</event>
<event>
12    1  0.8196217E-002  0.1782140E+03  0.7818608E-02  0.1170252E+00
         21   -1    0    0  503  502  0.00000000000E+00  0.00000000000E+00  0.49036125286E+03  0.49036125286E+03  0.00000000000E+00 0. -1.
         21   -1    0    0  501  503 -0.00000000000E+00 -0.00000000000E+00 -0.20857894276E+03  0.20857894276E+03  0.00000000000E+00 0. -1.
          6    2    1    2  501    0  0.35107559769E+02  0.34326859958E+01 -0.15068244445E+03  0.23119454916E+03  0.17175970542E+03 0.  0.
         24    2    3    3    0    0  0.40526979304E+02 -0.45276870122E+02 -0.34784616969E+02  0.10527240106E+03  0.78612198979E+02 0.  0.
         -6    2    1    2    0  502 -0.35107559769E+02 -0.34326859958E+01  0.43246475455E+03  0.46774564647E+03  0.17468801268E+03 0.  0.
        -24    2    5    5    0    0 -0.59048074602E+02  0.54897833207E+02  0.33738232831E+03  0.35356002785E+03  0.68391597632E+02 0.  0.
          5    1    3    3  501    0 -0.54194195349E+01  0.48709556118E+02 -0.11589782748E+03  0.12592214809E+03  0.47000000000E+01 0. -1.
        -13    1    4    4    0    0  0.25824068240E+02  0.19863738274E+02 -0.11287465719E+02  0.34479812660E+02  0.00000000000E+00 0.  1.
         14    1    4    4    0    0  0.14702911063E+02 -0.65140608396E+02 -0.23497151250E+02  0.70792588403E+02  0.00000000000E+00 0. -1.
         -5    1    5    5    0  502  0.23940514834E+02 -0.58330519202E+02  0.95082426238E+02  0.11418561862E+03  0.47000000000E+01 0.  1.
         13    1    6    6    0    0  0.99272560539E+01  0.30759567607E+02  0.91054779691E+02  0.96621293289E+02  0.00000000000E+00 0. -1.
        -14    1    6    6    0    0 -0.68975330656E+02  0.24138265599E+02  0.24632754862E+03  0.25693873456E+03  0.00000000000E+00 0.  1.
</event>
<event>
12    1  0.8196217E-002  0.1765187E+03  0.7818608E-02  0.1171373E+00
         21   -1    0    0  501  502  0.00000000000E+00  0.00000000000E+00  0.17173010352E+02  0.17173010352E+02  0.00000000000E+00 0. -1.
         21   -1    0    0  502  503 -0.00000000000E+00 -0.00000000000E+00 -0.18868438040E+04  0.18868438040E+04  0.00000000000E+00 0. -1.
         -6    2    1    2    0  503  0.34844118788E+02  0.18832491050E+01 -0.11279475898E+04  0.11415785070E+04  0.17238927795E+03 0.  0.
        -24    2    3    3    0    0 -0.35714226115E+02  0.30271840051E+02 -0.55493265646E+03  0.56351917102E+03  0.86091304147E+02 0.  0.
          6    2    1    2  501    0 -0.34844118788E+02 -0.18832491050E+01 -0.74172320382E+03  0.76243830728E+03  0.17303526256E+03 0.  0.
         24    2    5    5    0    0 -0.28445303260E+02 -0.28324616147E+02 -0.72400760056E+03  0.72963551274E+03  0.81052801434E+02 0.  0.
          5    1    5    5  501    0 -0.63988155281E+01  0.26441367042E+02 -0.17715603254E+02  0.32802794543E+02  0.47000000000E+01 0. -1.
        -11    1    6    6    0    0 -0.25699257110E+02  0.17267298021E+02 -0.50329739561E+03  0.50424882729E+03  0.00000000000E+00 0.  1.
         12    1    6    6    0    0 -0.27460461495E+01 -0.45591914168E+02 -0.22071020496E+03  0.22538668545E+03  0.00000000000E+00 0. -1.
         -5    1    3    3    0  503  0.70558344903E+02 -0.28388590946E+02 -0.57301493334E+03  0.57805933602E+03  0.47000000000E+01 0.  1.
         11    1    4    4    0    0  0.21472750545E+02  0.20960011125E+02 -0.32562954654E+03  0.32700917825E+03  0.00000000000E+00 0. -1.
        -12    1    4    4    0    0 -0.57186976660E+02  0.93118289259E+01 -0.22930310992E+03  0.23650999277E+03  0.00000000000E+00 0.  1.
</event>
<event>
12    1  0.8196217E-002  0.2050526E+03  0.7818608E-02  0.1146397E+00
         21   -1    0    0  503  502  0.00000000000E+00  0.00000000000E+00  0.24999376285E+03  0.24999376285E+03  0.00000000000E+00 0. -1.
         21   -1    0    0  501  503 -0.00000000000E+00 -0.00000000000E+00 -0.22248996803E+03  0.22248996803E+03  0.00000000000E+00 0. -1.
          6    2    1    2  501    0  0.10762029941E+02 -0.11066525958E+03 -0.10661907360E+03  0.22746225741E+03  0.16735839006E+03 0.  0.
         24    2    3    3    0    0 -0.50288754686E+02 -0.34099211007E+02 -0.59293462245E+02  0.11859829832E+03  0.82813807191E+02 0.  0.
         -6    2    1    2    0  502 -0.10762029941E+02  0.11066525958E+03  0.13412286841E+03  0.24502147347E+03  0.17229032958E+03 0.  0.
        -24    2    5    5    0    0  0.37423439041E+02  0.66715256405E+02  0.14184801058E+03  0.17917916168E+03  0.78312672337E+02 0.  0.
          5    1    3    3  501    0  0.61050784627E+02 -0.76566048572E+02 -0.47325611352E+02  0.10886395908E+03  0.47000000000E+01 0. -1.
        -11    1    4    4    0    0 -0.86988576699E+00  0.24572229654E+02 -0.23258004508E+02  0.33845028366E+02  0.00000000000E+00 0.  1.
         12    1    4    4    0    0 -0.49418868919E+02 -0.58671440661E+02 -0.36035457737E+02  0.84753269959E+02  0.00000000000E+00 0. -1.
         -5    1    5    5    0  502 -0.48185468983E+02  0.43950003174E+02 -0.77251421715E+01  0.65842311788E+02  0.47000000000E+01 0.  1.
         13    1    6    6    0    0  0.12888343038E+02  0.80343427553E+02  0.10746264251E+03  0.13479389924E+03  0.00000000000E+00 0. -1.
        -14    1    6    6    0    0  0.24535096003E+02 -0.13628171147E+02  0.34385368073E+02  0.44385262444E+02  0.00000000000E+00 0.  1.
</event>
<event>
12    1  0.8196217E-002  0.2474468E+03  0.7818608E-02  0.1114959E+00
         21   -1    0    0  501  502  0.00000000000E+00  0.00000000000E+00  0.42258797242E+03  0.42258797242E+03  0.00000000000E+00 0.  1.
         21   -1    0    0  502  503 -0.00000000000E+00 -0.00000000000E+00 -0.15196759149E+03  0.15196759149E+03  0.00000000000E+00 0.  1.
         -6    2    1    2    0  503  0.17078118505E+03 -0.49843071340E+02  0.19772383239E+03  0.31659467355E+03  0.17171758355E+03 0.  0.
        -24    2    3    3    0    0  0.55697877738E+02 -0.35539033189E+02  0.21086668251E+02  0.10523821899E+03  0.79152755441E+02 0.  0.
          6    2    1    2  501    0 -0.17078118505E+03  0.49843071340E+02  0.72896548532E+02  0.25796089036E+03  0.17198653797E+03 0.  0.
         24    2    5    5    0    0 -0.10366428460E+03  0.98554265999E+02  0.46016345990E+02  0.17065628511E+03  0.80912522513E+02 0.  0.
          5    1    5    5  501    0 -0.67116900446E+02 -0.48711194659E+02  0.26880202542E+02  0.87304605258E+02  0.47000000000E+01 0. -1.
        -13    1    6    6    0    0 -0.58350765129E+02  0.47636083154E+02 -0.17671523633E+02  0.77371124827E+02  0.00000000000E+00 0.  1.
         14    1    6    6    0    0 -0.45313519471E+02  0.50918182845E+02  0.63687869623E+02  0.93285160278E+02  0.00000000000E+00 0. -1.
         -5    1    3    3    0  503  0.11508330731E+03 -0.14304038151E+02  0.17663716414E+03  0.21135645456E+03  0.47000000000E+01 0.  1.
         11    1    4    4    0    0 -0.14511312356E+02 -0.55650320854E+01  0.24283846972E+02  0.28831458377E+02  0.00000000000E+00 0. -1.
        -12    1    4    4    0    0  0.70209190093E+02 -0.29974001104E+02 -0.31971787211E+01  0.76406760614E+02  0.00000000000E+00 0.  1.
</event>
<event>
12    1  0.8196217E-002  0.2531002E+03  0.7818608E-02  0.1111649E+00
         21   -1    0    0  501  502  0.00000000000E+00  0.00000000000E+00  0.43783234542E+03  0.43783234542E+03  0.00000000000E+00 0. -1.
         21   -1    0    0  502  503 -0.00000000000E+00 -0.00000000000E+00 -0.15569476406E+03  0.15569476406E+03  0.00000000000E+00 0.  1.
         -6    2    1    2    0  503  0.15427043877E+03 -0.10264256962E+03  0.21842267576E+03  0.33431747809E+03  0.17240894841E+03 0.  0.
        -24    2    3    3    0    0  0.16428189046E+03 -0.36715909150E+02  0.18869294117E+03  0.26115669047E+03  0.65277817155E+02 0.  0.
          6    2    1    2  501    0 -0.15427043877E+03  0.10264256962E+03  0.63714905598E+02  0.25920963139E+03  0.16969142122E+03 0.  0.
         24    2    5    5    0    0 -0.65113103196E+02 -0.39498215130E+01  0.58154991015E+02  0.12005514536E+03  0.82315962297E+02 0.  0.
          5    1    5    5  501    0 -0.89157335570E+02  0.10659239113E+03  0.55599145832E+01  0.13915448603E+03  0.47000000000E+01 0. -1.
        -11    1    6    6    0    0 -0.78183012120E+02 -0.12404362789E+02  0.65591306103E+02  0.10280404193E+03  0.00000000000E+00 0.  1.
         12    1    6    6    0    0  0.13069908923E+02  0.84545412761E+01 -0.74363150879E+01  0.17251103430E+02  0.00000000000E+00 0. -1.
         -5    1    3    3    0  503 -0.10011451695E+02 -0.65926660468E+02  0.29729734589E+02  0.73160787613E+02  0.47000000000E+01 0.  1.
         13    1    4    4    0    0 -0.30260484120E+01 -0.10062327740E+02  0.64475450964E+01  0.12327945746E+02  0.00000000000E+00 0. -1.
        -14    1    4    4    0    0  0.16730793887E+03 -0.26653581410E+02  0.18224539608E+03  0.24882874473E+03  0.00000000000E+00 0.  1.
</event>
<event>
12    1  0.8196217E-002  0.2302110E+03  0.7818608E-02  0.1126505E+00
         21   -1    0    0  503  502  0.00000000000E+00  0.00000000000E+00  0.77595890412E+03  0.77595890412E+03  0.00000000000E+00 0.  1.
         21   -1    0    0  501  503 -0.00000000000E+00 -0.00000000000E+00 -0.90989916229E+02  0.90989916229E+02  0.00000000000E+00 0.  1.
          6    2    1    2  501    0  0.14389921764E+03  0.50051099777E+02  0.55901956048E+03  0.60453625219E+03  0.17247931408E+03 0.  0.
         24    2    3    3    0    0  0.72305919527E+02  0.81224581148E+01  0.47272980788E+03  0.48473799373E+03  0.78761227644E+02 0.  0.
         -6    2    1    2    0  502 -0.14389921764E+03 -0.50051099777E+02  0.12594942741E+03  0.26241256816E+03  0.17258331390E+03 0.  0.
        -24    2    5    5    0    0 -0.25087745179E+02  0.48571885635E+01 -0.24671504660E+01  0.78989577259E+02  0.74701266691E+02 0.  0.
          5    1    3    3  501    0  0.71593298115E+02  0.41928641662E+02  0.86289752598E+02  0.11979825846E+03  0.47000000000E+01 0. -1.
        -13    1    4    4    0    0  0.38341802175E+02  0.25965033581E+02  0.39848397087E+03  0.40116549179E+03  0.00000000000E+00 0.  1.
         14    1    4    4    0    0  0.33964117352E+02 -0.17842575466E+02  0.74245837013E+02  0.83572501941E+02  0.00000000000E+00 0. -1.
         -5    1    5    5    0  502 -0.11881147246E+03 -0.54908288340E+02  0.12841657788E+03  0.18342299090E+03  0.47000000000E+01 0.  1.
         11    1    6    6    0    0 -0.13515673606E+02  0.25151127827E+01  0.36114045183E+02  0.38642249997E+02  0.00000000000E+00 0. -1.
        -12    1    6    6    0    0 -0.11572071573E+02  0.23420757808E+01 -0.38581195649E+02  0.40347327262E+02  0.00000000000E+00 0.  1.
</event>
<event>
12    1  0.8196217E-002  0.1870329E+03  0.7818608E-02  0.1161564E+00
         21   -1    0    0  501  502  0.00000000000E+00  0.00000000000E+00  0.17278784886E+03  0.17278784886E+03  0.00000000000E+00 0. -1.
         21   -1    0    0  502  503 -0.00000000000E+00 -0.00000000000E+00 -0.23411605619E+03  0.23411605619E+03  0.00000000000E+00 0. -1.
         -6    2    1    2    0  503  0.72716566216E+02  0.72820245332E+00 -0.10777567933E+03  0.21586318923E+03  0.17231683066E+03 0.  0.
        -24    2    3    3    0    0  0.10994724414E+02 -0.49312951811E+01 -0.12680510729E+03  0.15085684494E+03  0.80827289907E+02 0.  0.
          6    2    1    2  501    0 -0.72716566216E+02 -0.72820245332E+00  0.46447471997E+02  0.19104071582E+03  0.17044341631E+03 0.  0.
         24    2    5    5    0    0 -0.61849082183E+02 -0.59645547507E+02  0.57833988032E+02  0.12987619583E+03  0.78359146042E+02 0.  0.
          5    1    5    5  501    0 -0.10867484033E+02  0.58917345053E+02 -0.11386516035E+02  0.61164519983E+02  0.47000000000E+01 0. -1.
        -11    1    6    6    0    0  0.11779099323E+01  0.50151256219E+01  0.36804775635E+02  0.37163563693E+02  0.00000000000E+00 0.  1.
         12    1    6    6    0    0 -0.63026992115E+02 -0.64660673129E+02  0.21029212397E+02  0.92712632141E+02  0.00000000000E+00 0. -1.
         -5    1    3    3    0  503  0.61721841802E+02  0.56594976344E+01  0.19029427963E+02  0.65006344287E+02  0.47000000000E+01 0.  1.
         11    1    4    4    0    0  0.39305471654E+02 -0.19574287149E+02 -0.44144629534E+02  0.62264123988E+02  0.00000000000E+00 0. -1.
        -12    1    4    4    0    0 -0.28310747240E+02  0.14642991968E+02 -0.82660477756E+02  0.88592720954E+02  0.00000000000E+00 0.  1.
</event>
<event>
12    1  0.8196217E-002  0.1732694E+03  0.7818608E-02  0.1174511E+00
         21   -1    0    0  501  502  0.00000000000E+00  0.00000000000E+00  0.85879869170E+02  0.85879869170E+02  0.00000000000E+00 0. -1.
         21   -1    0    0  502  503 -0.00000000000E+00 -0.00000000000E+00 -0.71401068211E+03  0.71401068211E+03  0.00000000000E+00 0. -1.
         -6    2    1    2    0  503  0.19493674965E+02  0.73680214178E+01 -0.59994328285E+03  0.62446316274E+03  0.17201165043E+03 0.  0.
        -24    2    3    3    0    0  0.19213093013E+02 -0.62832478063E+02 -0.34294318337E+03  0.35800616811E+03  0.79002064190E+02 0.  0.
          6    2    1    2  501    0 -0.19493674965E+02 -0.73680214178E+01 -0.28187530097E+02  0.17542738854E+03  0.17188932688E+03 0.  0.
         24    2    5    5    0    0 -0.10271287334E+02 -0.12361825874E+02 -0.84753156372E+02  0.11770607019E+03  0.80083127823E+02 0.  0.
          5    1    5    5  501    0 -0.92223876313E+01  0.49938044565E+01  0.56565626275E+02  0.57721318354E+02  0.47000000000E+01 0. -1.
        -11    1    6    6    0    0 -0.27927689843E+02  0.14222553650E+02 -0.79380447433E+02  0.85343378929E+02  0.00000000000E+00 0.  1.
         12    1    6    6    0    0  0.17656402509E+02 -0.26584379524E+02 -0.53727089388E+01  0.32362691260E+02  0.00000000000E+00 0. -1.
         -5    1    3    3    0  503  0.28058195161E+00  0.70200499481E+02 -0.25700009948E+03  0.26645699463E+03  0.47000000000E+01 0.  1.
         13    1    4    4    0    0  0.10209178880E+02  0.18019720910E+02 -0.87689978863E+02  0.90102553060E+02  0.00000000000E+00 0. -1.
        -14    1    4    4    0    0  0.90039141332E+01 -0.80852198972E+02 -0.25525320450E+03  0.26790361505E+03  0.00000000000E+00 0.  1.
</event>
<event>
12    1  0.8196217E-002  0.2076534E+03  0.7818608E-02  0.1143477E+00
         21   -1    0    0  501  502  0.00000000000E+00  0.00000000000E+00  0.52135589887E+03  0.52135589887E+03  0.00000000000E+00 0.  1.
         21   -1    0    0  502  503 -0.00000000000E+00 -0.00000000000E+00 -0.12405889442E+03  0.12405889442E+03  0.00000000000E+00 0.  1.
         -6    2    1    2    0  503 -0.43886908612E+02 -0.10816298029E+03  0.12224481623E+02  0.20801289447E+03  0.17174002230E+03 0.  0.
        -24    2    3    3    0    0 -0.50897184319E+02 -0.13942129793E+03 -0.12881231745E+02  0.16704201175E+03  0.75553198942E+02 0.  0.
          6    2    1    2  501    0  0.43886908612E+02  0.10816298029E+03  0.38507252283E+03  0.43740189882E+03  0.17150592467E+03 0.  0.
         24    2    5    5    0    0  0.61666902565E+01  0.12615066019E+03  0.21781129829E+03  0.26493515207E+03  0.82443047016E+02 0.  0.
          5    1    5    5  501    0  0.37720218356E+02 -0.17987679900E+02  0.16726122454E+03  0.17246674675E+03  0.47000000000E+01 0. -1.
        -13    1    6    6    0    0 -0.24311984263E+02  0.64968773174E+02  0.16358255045E+03  0.17768304612E+03  0.00000000000E+00 0.  1.
         14    1    6    6    0    0  0.30478674520E+02  0.61181887021E+02  0.54228747843E+02  0.87252105949E+02  0.00000000000E+00 0. -1.
         -5    1    3    3    0  503  0.70102757067E+01  0.31258317636E+02  0.25105713369E+02  0.40970882718E+02  0.47000000000E+01 0.  1.
         13    1    4    4    0    0  0.43707958146E+01  0.14305008031E+01 -0.15032053758E+02  0.15719822797E+02  0.00000000000E+00 0. -1.
        -14    1    4    4    0    0 -0.55267980134E+02 -0.14085179873E+03  0.21508220123E+01  0.15132218895E+03  0.00000000000E+00 0.  1.
</event>
<event>
12    1  0.8196217E-002  0.1919770E+03  0.7818608E-02  0.1157038E+00
         21   -1    0    0  503  502  0.00000000000E+00  0.00000000000E+00  0.55627476510E+03  0.55627476510E+03  0.00000000000E+00 0.  1.
         21   -1    0    0  501  503 -0.00000000000E+00 -0.00000000000E+00 -0.85090608019E+02  0.85090608019E+02  0.00000000000E+00 0.  1.
          6    2    1    2  501    0 -0.78528699828E+02  0.31930050868E+02  0.83319583478E+02  0.20927811567E+03  0.17224660189E+03 0.  0.
         24    2    3    3    0    0 -0.44686409709E+02  0.93119256973E+02  0.47545454437E+02  0.13059331503E+03  0.64233733040E+02 0.  0.
         -6    2    1    2    0  502  0.78528699828E+02 -0.31930050868E+02  0.38786457361E+03  0.43208725745E+03  0.17051154139E+03 0.  0.
        -24    2    5    5    0    0  0.11797948852E+02  0.41839740032E+02  0.20211147442E+03  0.22132369553E+03  0.79027682921E+02 0.  0.
          5    1    3    3  501    0 -0.33842290118E+02 -0.61189206105E+02  0.35774129042E+02  0.78684800647E+02  0.47000000000E+01 0. -1.
        -11    1    4    4    0    0 -0.48524414332E+02  0.70033381299E+02  0.59880142291E+02  0.10413896832E+03  0.00000000000E+00 0.  1.
         12    1    4    4    0    0  0.38380046227E+01  0.23085875674E+02 -0.12334687854E+02  0.26454346705E+02  0.00000000000E+00 0. -1.
         -5    1    5    5    0  502  0.66730750975E+02 -0.73769790901E+02  0.18575309919E+03  0.21076356192E+03  0.47000000000E+01 0.  1.
         13    1    6    6    0    0  0.30651343982E+01  0.46890654298E+02  0.49037446879E+02  0.67917594964E+02  0.00000000000E+00 0. -1.
        -14    1    6    6    0    0  0.87328144542E+01 -0.50509142653E+01  0.15307402754E+03  0.15340610056E+03  0.00000000000E+00 0.  1.
</event>
<event>
12    1  0.8196217E-002  0.1786843E+03  0.7818608E-02  0.1169897E+00
         21   -1    0    0  501  502  0.00000000000E+00  0.00000000000E+00  0.16316650570E+03  0.16316650570E+03  0.00000000000E+00 0. -1.
         21   -1    0    0  502  503 -0.00000000000E+00 -0.00000000000E+00 -0.46076604837E+03  0.46076604837E+03  0.00000000000E+00 0. -1.
         -6    2    1    2    0  503  0.38566409906E+02 -0.25988014198E+02 -0.38644335717E+03  0.42437980846E+03  0.16910650098E+03 0.  0.
        -24    2    3    3    0    0  0.13001010106E+02 -0.81850649352E+02 -0.24512525361E+03  0.27021392356E+03  0.77849980509E+02 0.  0.
          6    2    1    2  501    0 -0.38566409906E+02  0.25988014198E+02  0.88843814500E+02  0.19955274560E+03  0.17252631697E+03 0.  0.
         24    2    5    5    0    0  0.64687869168E+01 -0.14109787162E+02  0.10867445650E+03  0.13590255323E+03  0.80115137028E+02 0.  0.
          5    1    5    5  501    0 -0.45035196822E+02  0.40097801360E+02 -0.19830642001E+02  0.63650192371E+02  0.47000000000E+01 0. -1.
        -11    1    6    6    0    0  0.36010537098E+02 -0.30535012286E+02  0.55157106674E+02  0.72604766882E+02  0.00000000000E+00 0.  1.
         12    1    6    6    0    0 -0.29541750181E+02  0.16425225124E+02  0.53517349827E+02  0.63297786349E+02  0.00000000000E+00 0. -1.
         -5    1    3    3    0  503  0.25565399800E+02  0.55862635154E+02 -0.14131810356E+03  0.15416588490E+03  0.47000000000E+01 0.  1.
         13    1    4    4    0    0  0.37120551218E+02 -0.53703189050E+02 -0.20695112878E+03  0.21700400351E+03  0.00000000000E+00 0. -1.
        -14    1    4    4    0    0 -0.24119541113E+02 -0.28147460303E+02 -0.38174124829E+02  0.53209920047E+02  0.00000000000E+00 0.  1.
</event>
<event>
12    1  0.8196217E-002  0.1725597E+03  0.7818608E-02  0.1177675E+00
         21   -1    0    0  503  502  0.00000000000E+00  0.00000000000E+00  0.67918347665E+03  0.67918347665E+03  0.00000000000E+00 0. -1.
         21   -1    0    0  501  503 -0.00000000000E+00 -0.00000000000E+00 -0.43876972587E+02  0.43876972587E+02  0.00000000000E+00 0. -1.
          6    2    1    2  501    0  0.93158589253E+01  0.23623705532E+02  0.24178375879E+03  0.29704586413E+03  0.17068097343E+03 0.  0.
         24    2    3    3    0    0  0.71362453163E+02 -0.64115992179E+01  0.11219198824E+03  0.15018533035E+03  0.69533322239E+02 0.  0.
         -6    2    1    2    0  502 -0.93158589253E+01 -0.23623705532E+02  0.39352274527E+03  0.42601458510E+03  0.16119370641E+03 0.  0.
        -24    2    5    5    0    0  0.66540320079E+01  0.32943750148E+02  0.13297436881E+03  0.15887705323E+03  0.80188331244E+02 0.  0.
          5    1    3    3  501    0 -0.62046594237E+02  0.30035304750E+02  0.12959177055E+03  0.14686053378E+03  0.47000000000E+01 0. -1.
        -13    1    4    4    0    0  0.31175781981E+02  0.30874364312E+02  0.61296747956E+02  0.75382007560E+02  0.00000000000E+00 0.  1.
         14    1    4    4    0    0  0.40186671182E+02 -0.37285963530E+02  0.50895240288E+02  0.74803322794E+02  0.00000000000E+00 0. -1.
         -5    1    5    5    0  502 -0.15969890933E+02 -0.56567455680E+02  0.26054837646E+03  0.26713753187E+03  0.47000000000E+01 0.  1.
         13    1    6    6    0    0  0.41135435320E+02  0.22350475200E+02  0.98124997002E+02  0.10872066417E+03  0.00000000000E+00 0. -1.
        -14    1    6    6    0    0 -0.34481403312E+02  0.10593274948E+02  0.34849371806E+02  0.50156389062E+02  0.00000000000E+00 0.  1.
</event>
<event>
12    1  0.8196217E-002  0.1807968E+03  0.7818608E-02  0.1167841E+00
         21   -1    0    0  503  502  0.00000000000E+00  0.00000000000E+00  0.33764624085E+02  0.33764624085E+02  0.00000000000E+00 0. -1.
         21   -1    0    0  501  503 -0.00000000000E+00 -0.00000000000E+00 -0.11647169320E+04  0.11647169320E+04  0.00000000000E+00 0. -1.
          6    2    1    2  501    0  0.31942403293E+02 -0.29879539963E+02 -0.82680020009E+03  0.84633685267E+03  0.17542631864E+03 0.  0.
         24    2    3    3    0    0  0.57887971865E+02 -0.15783729243E+02 -0.79992565931E+03  0.80613492049E+03  0.79826726210E+02 0.  0.
         -6    2    1    2    0  502 -0.31942403293E+02  0.29879539963E+02 -0.30415210786E+03  0.35214470345E+03  0.17200082389E+03 0.  0.
        -24    2    5    5    0    0  0.43512001065E+02  0.91101399795E+01 -0.14770800407E+03  0.17715446738E+03  0.87119239884E+02 0.  0.
          5    1    3    3  501    0 -0.25945568572E+02 -0.14095810720E+02 -0.26874540786E+02  0.40201932178E+02  0.47000000000E+01 0. -1.
        -11    1    4    4    0    0  0.32558974763E+02  0.29935188330E+02 -0.26541523530E+03  0.26907517438E+03  0.00000000000E+00 0.  1.
         12    1    4    4    0    0  0.25328997102E+02 -0.45718917574E+02 -0.53451042401E+03  0.53705974611E+03  0.00000000000E+00 0. -1.
         -5    1    5    5    0  502 -0.75454404358E+02  0.20769399984E+02 -0.15644410378E+03  0.17499023607E+03  0.47000000000E+01 0.  1.
         11    1    6    6    0    0 -0.41042028374E+01  0.25061987532E+02 -0.11370901097E+03  0.11651045822E+03  0.00000000000E+00 0. -1.
        -12    1    6    6    0    0  0.47616203903E+02 -0.15951847553E+02 -0.33998993107E+02  0.60644009158E+02  0.00000000000E+00 0.  1.
</event>
<event>
12    1  0.8196217E-002  0.1998908E+03  0.7818608E-02  0.1149936E+00
         21   -1    0    0  501  502  0.00000000000E+00  0.00000000000E+00  0.39991160207E+02  0.39991160207E+02  0.00000000000E+00 0. -1.
         21   -1    0    0  502  503 -0.00000000000E+00 -0.00000000000E+00 -0.13145316085E+04  0.13145316085E+04  0.00000000000E+00 0.  1.
         -6    2    1    2    0  503 -0.45213167544E+02 -0.90077425666E+02 -0.97090707655E+03  0.99127033424E+03  0.17262140979E+03 0.  0.
        -24    2    3    3    0    0 -0.31356516185E+02  0.18043104905E+02 -0.51746442516E+03  0.52488596056E+03  0.80168918803E+02 0.  0.
          6    2    1    2  501    0  0.45213167544E+02  0.90077425666E+02 -0.30363337176E+03  0.36325243449E+03  0.17204921847E+03 0.  0.
         24    2    5    5    0    0  0.25218914284E+02 -0.37873190548E+01 -0.22554842864E+03  0.23943923322E+03  0.76214928455E+02 0.  0.
          5    1    5    5  501    0  0.19994253261E+02  0.93864744721E+02 -0.78084943120E+02  0.12381320126E+03  0.47000000000E+01 0. -1.
        -13    1    6    6    0    0  0.33055151332E+01  0.94204400731E+01 -0.20839794277E+03  0.20863694225E+03  0.00000000000E+00 0.  1.
         14    1    6    6    0    0  0.21913399150E+02 -0.13207759128E+02 -0.17150485880E+02  0.30802290977E+02  0.00000000000E+00 0. -1.
         -5    1    3    3    0  503 -0.13856651359E+02 -0.10812053057E+03 -0.45344265139E+03  0.46638437368E+03  0.47000000000E+01 0.  1.
         13    1    4    4    0    0  0.16789997111E+02 -0.18533377457E+02 -0.21402202333E+03  0.21547811154E+03  0.00000000000E+00 0. -1.
        -14    1    4    4    0    0 -0.48146513296E+02  0.36576482361E+02 -0.30344240183E+03  0.30940784902E+03  0.00000000000E+00 0.  1.
</event>
<event>
12    1  0.8196217E-002  0.1912338E+03  0.7818608E-02  0.1157458E+00
         21   -1    0    0  503  502  0.00000000000E+00  0.00000000000E+00  0.11637355252E+03  0.11637355252E+03  0.00000000000E+00 0.  1.
         21   -1    0    0  501  503 -0.00000000000E+00 -0.00000000000E+00 -0.80342300800E+03  0.80342300800E+03  0.00000000000E+00 0. -1.
          6    2    1    2  501    0  0.18845259182E+02 -0.81320582522E+02 -0.70282616309E+03  0.72837831109E+03  0.17205280470E+03 0.  0.
         24    2    3    3    0    0  0.32934111496E+02 -0.11861856703E+03 -0.60294718312E+03  0.62073289294E+03  0.81295747769E+02 0.  0.
         -6    2    1    2    0  502 -0.18845259182E+02  0.81320582522E+02  0.15776707605E+02  0.19141824943E+03  0.17153384732E+03 0.  0.
        -24    2    5    5    0    0  0.38525313170E+02  0.75351578113E+02 -0.27975375666E+02  0.11886932541E+03  0.78646263747E+02 0.  0.
          5    1    3    3  501    0 -0.14088852314E+02  0.37297984507E+02 -0.99878979968E+02  0.10764541814E+03  0.47000000000E+01 0. -1.
        -11    1    4    4    0    0  0.18286371476E+02 -0.55664063138E+02 -0.12065427940E+03  0.13412805241E+03  0.00000000000E+00 0.  1.
         12    1    4    4    0    0  0.14647740020E+02 -0.62954503891E+02 -0.48229290372E+03  0.48660484053E+03  0.00000000000E+00 0. -1.
         -5    1    5    5    0  502 -0.57370572352E+02  0.59690044083E+01  0.43752083270E+02  0.72548924017E+02  0.47000000000E+01 0.  1.
         13    1    6    6    0    0  0.19408915151E+02  0.83634209781E+02 -0.24106239970E+01  0.85890617305E+02  0.00000000000E+00 0. -1.
        -14    1    6    6    0    0  0.19116398019E+02 -0.82826316674E+01 -0.25564751669E+02  0.32978708107E+02  0.00000000000E+00 0.  1.
</event>
<event>
12    1  0.8196217E-002  0.1912448E+03  0.7818608E-02  0.1157902E+00
         21   -1    0    0  501  502  0.00000000000E+00  0.00000000000E+00  0.26186479613E+03  0.26186479613E+03  0.00000000000E+00 0. -1.
         21   -1    0    0  502  503 -0.00000000000E+00 -0.00000000000E+00 -0.14892902575E+03  0.14892902575E+03  0.00000000000E+00 0. -1.
         -6    2    1    2    0  503 -0.51901575716E+02 -0.59067883259E+02  0.13968634967E+00  0.18876338000E+03  0.17160654335E+03 0.  0.
        -24    2    3    3    0    0 -0.29846081275E+02  0.10084877750E+00 -0.50071150191E+02  0.10795124111E+03  0.90860066238E+02 0.  0.
          6    2    1    2  501    0  0.51901575716E+02  0.59067883259E+02  0.11279608403E+03  0.22203044188E+03  0.17433236118E+03 0.  0.
         24    2    5    5    0    0 -0.52317329935E+01  0.77081378170E+02  0.11650957398E+03  0.16182594893E+03  0.81512250792E+02 0.  0.
          5    1    5    5  501    0  0.57133308710E+02 -0.18013494911E+02 -0.37134899489E+01  0.60204492944E+02  0.47000000000E+01 0. -1.
        -13    1    6    6    0    0 -0.51343953218E+01 -0.15806558331E+02  0.64990810202E+01  0.17845093322E+02  0.00000000000E+00 0.  1.
         14    1    6    6    0    0 -0.97337671697E-01  0.92887936500E+02  0.11001049296E+03  0.14398085561E+03  0.00000000000E+00 0. -1.
         -5    1    3    3    0  503 -0.22055494442E+02 -0.59168732036E+02  0.50210836540E+02  0.80812138890E+02  0.47000000000E+01 0.  1.
         11    1    4    4    0    0 -0.10623529634E+02 -0.35876400094E+02  0.67343540880E+01  0.38017456393E+02  0.00000000000E+00 0. -1.
        -12    1    4    4    0    0 -0.19222551640E+02  0.35977248871E+02 -0.56805504279E+02  0.69933784713E+02  0.00000000000E+00 0.  1.
</event>
<event>
12    1  0.8196217E-002  0.1738236E+03  0.7818608E-02  0.1173956E+00
         21   -1    0    0  503  502  0.00000000000E+00  0.00000000000E+00  0.24742973771E+03  0.24742973771E+03  0.00000000000E+00 0.  1.
         21   -1    0    0  501  503 -0.00000000000E+00 -0.00000000000E+00 -0.22115657806E+03  0.22115657806E+03  0.00000000000E+00 0.  1.
          6    2    1    2  501    0 -0.25328707944E+02 -0.46804174304E+01 -0.14374072887E+03  0.22544154745E+03  0.17175285857E+03 0.  0.
         24    2    3    3    0    0  0.27529175860E+01 -0.38955566661E+02 -0.24084687906E+02  0.97758260815E+02  0.86322017104E+02 0.  0.
         -6    2    1    2    0  502  0.25328707944E+02  0.46804174304E+01  0.17001388852E+03  0.24314476832E+03  0.17190464311E+03 0.  0.
        -24    2    5    5    0    0  0.61475584138E+02  0.11645049108E+02  0.17777282139E+03  0.20523179175E+03  0.81253047369E+02 0.  0.
          5    1    3    3  501    0 -0.28081625530E+02  0.34275149231E+02 -0.11965604096E+03  0.12768328663E+03  0.47000000000E+01 0. -1.
        -13    1    4    4    0    0 -0.13792572904E+02 -0.21075877857E+02 -0.53758041971E+02  0.59366276381E+02  0.00000000000E+00 0.  1.
         14    1    4    4    0    0  0.16545490490E+02 -0.17879688805E+02  0.29673354065E+02  0.38391984434E+02  0.00000000000E+00 0. -1.
         -5    1    5    5    0  502 -0.36146876194E+02 -0.69646316772E+01 -0.77589328770E+01  0.37912976569E+02  0.47000000000E+01 0.  1.
         13    1    6    6    0    0  0.14153306746E+02  0.12416337559E+02 -0.23692485704E+01  0.18976165814E+02  0.00000000000E+00 0. -1.
        -14    1    6    6    0    0  0.47322277392E+02 -0.77128845149E+00  0.18014206996E+03  0.18625562594E+03  0.00000000000E+00 0.  1.
</event>
<event>
12    1  0.8196217E-002  0.1896527E+03  0.7818608E-02  0.1159170E+00
         21   -1    0    0  503  502  0.00000000000E+00  0.00000000000E+00  0.40958343555E+03  0.40958343555E+03  0.00000000000E+00 0. -1.
         21   -1    0    0  501  503 -0.00000000000E+00 -0.00000000000E+00 -0.21001507993E+03  0.21001507993E+03  0.00000000000E+00 0. -1.
          6    2    1    2  501    0 -0.28101450408E+02 -0.72360354401E+02 -0.13711314783E+03  0.23402600348E+03  0.17303884707E+03 0.  0.
         24    2    3    3    0    0 -0.18935048349E+02  0.14613268452E+01 -0.13290656971E+03  0.15937046887E+03  0.85872688001E+02 0.  0.
         -6    2    1    2    0  502  0.28101450408E+02  0.72360354401E+02  0.33668150345E+03  0.38557251199E+03  0.17113157170E+03 0.  0.
        -24    2    5    5    0    0 -0.79467714629E+01  0.79206043353E+02  0.32966434346E+03  0.34792057590E+03  0.77674959323E+02 0.  0.
          5    1    3    3  501    0 -0.91664020586E+01 -0.73821681246E+02 -0.42065781233E+01  0.74655534612E+02  0.47000000000E+01 0. -1.
        -13    1    4    4    0    0  0.33887152104E+02  0.52108249919E+01 -0.42605414617E+02  0.54687412898E+02  0.00000000000E+00 0.  1.
         14    1    4    4    0    0 -0.52822200453E+02 -0.37494981468E+01 -0.90301155091E+02  0.10468305597E+03  0.00000000000E+00 0. -1.
         -5    1    5    5    0  502  0.36048221871E+02 -0.68456889517E+01  0.70171599961E+01  0.37651936095E+02  0.47000000000E+01 0.  1.
         13    1    6    6    0    0  0.32203028889E+02  0.44601613196E+02  0.20917261730E+03  0.21628574340E+03  0.00000000000E+00 0. -1.
        -14    1    6    6    0    0 -0.40149800352E+02  0.34604430157E+02  0.12049172616E+03  0.13163483250E+03  0.00000000000E+00 0.  1.
</event>
<event>
12    1  0.8196217E-002  0.1788850E+03  0.7818608E-02  0.1169317E+00
         21   -1    0    0  503  502  0.00000000000E+00  0.00000000000E+00  0.44744532704E+03  0.44744532704E+03  0.00000000000E+00 0. -1.
         21   -1    0    0  501  503 -0.00000000000E+00 -0.00000000000E+00 -0.71289447645E+02  0.71289447645E+02  0.00000000000E+00 0. -1.
          6    2    1    2  501    0 -0.44821785708E+02  0.31676165121E+02  0.16787943773E+03  0.24532295932E+03  0.17025709043E+03 0.  0.
         24    2    3    3    0    0 -0.20313226597E+02  0.43375432418E+02  0.18873960697E+03  0.21075738417E+03  0.80634858642E+02 0.  0.
         -6    2    1    2    0  502  0.44821785708E+02 -0.31676165121E+02  0.20827644166E+03  0.27341181536E+03  0.16841191383E+03 0.  0.
        -24    2    5    5    0    0 -0.28130340867E+00 -0.58806582471E+02  0.19590652287E+03  0.21913978680E+03  0.78642146352E+02 0.  0.
          5    1    3    3  501    0 -0.24508559111E+02 -0.11699267297E+02 -0.20860169237E+02  0.34565575152E+02  0.47000000000E+01 0. -1.
        -13    1    4    4    0    0  0.17569471645E+02  0.52039833217E+02  0.11090145240E+03  0.12375767742E+03  0.00000000000E+00 0.  1.
         14    1    4    4    0    0 -0.37882698242E+02 -0.86644007990E+01  0.77838154568E+02  0.86999706745E+02  0.00000000000E+00 0. -1.
         -5    1    5    5    0  502  0.45103089116E+02  0.27130417349E+02  0.12369918784E+02  0.54272028561E+02  0.47000000000E+01 0.  1.
         11    1    6    6    0    0  0.32582253401E+02 -0.33974806676E+01  0.81587485220E+02  0.87918506903E+02  0.00000000000E+00 0. -1.
        -12    1    6    6    0    0 -0.32863556810E+02 -0.55409101803E+02  0.11431903765E+03  0.13122127990E+03  0.00000000000E+00 0.  1.
</event>
<event>
12    1  0.8196217E-002  0.1915021E+03  0.7818608E-02  0.1157208E+00
         21   -1    0    0  501  502  0.00000000000E+00  0.00000000000E+00  0.50331021677E+03  0.50331021677E+03  0.00000000000E+00 0.  1.
         21   -1    0    0  502  503 -0.00000000000E+00 -0.00000000000E+00 -0.79954693718E+02  0.79954693718E+02  0.00000000000E+00 0. -1.
         -6    2    1    2    0  503 -0.29076722222E+02  0.75478845604E+02  0.12406127162E+03  0.22817590269E+03  0.17358148387E+03 0.  0.
        -24    2    3    3    0    0  0.32497707094E+02  0.39008684831E+02  0.11699038807E+02  0.94876073970E+02  0.79289491387E+02 0.  0.
          6    2    1    2  501    0  0.29076722222E+02 -0.75478845604E+02  0.29929425143E+03  0.35508900780E+03  0.17311453611E+03 0.  0.
         24    2    5    5    0    0  0.50499260907E+02 -0.11237496599E+03  0.21068053055E+03  0.25662718581E+03  0.79327915691E+02 0.  0.
          5    1    5    5  501    0 -0.21422538685E+02  0.36896120382E+02  0.88613720873E+02  0.98461821991E+02  0.47000000000E+01 0. -1.
        -13    1    6    6    0    0  0.53240242848E+02 -0.92539798680E+02  0.21114115019E+03  0.23659823140E+03  0.00000000000E+00 0.  1.
         14    1    6    6    0    0 -0.27409819411E+01 -0.19835167306E+02 -0.46061963818E+00  0.20028954404E+02  0.00000000000E+00 0. -1.
         -5    1    3    3    0  503 -0.61574429316E+02  0.36470160773E+02  0.11236223282E+03  0.13329982872E+03  0.47000000000E+01 0.  1.
         13    1    4    4    0    0 -0.72236599477E+01 -0.17077010903E+02 -0.12104970324E+02  0.22143528873E+02  0.00000000000E+00 0. -1.
        -14    1    4    4    0    0  0.39721367042E+02  0.56085695734E+02  0.23804009131E+02  0.72732545097E+02  0.00000000000E+00 0.  1.
</event>
<event>
12    1  0.8196217E-002  0.2140958E+03  0.7818608E-02  0.1138409E+00
         21   -1    0    0  503  502  0.00000000000E+00  0.00000000000E+00  0.14262129334E+04  0.14262129334E+04  0.00000000000E+00 0.  1.
         21   -1    0    0  501  503 -0.00000000000E+00 -0.00000000000E+00 -0.62393816691E+02  0.62393816691E+02  0.00000000000E+00 0. -1.
          6    2    1    2  501    0 -0.42929500767E+02 -0.12034241489E+03  0.16311897333E+03  0.26896835007E+03  0.17149616620E+03 0.  0.
         24    2    3    3    0    0 -0.87500761378E+02 -0.10464771815E+03  0.92006282128E+02  0.18345796691E+03  0.81142723127E+02 0.  0.
         -6    2    1    2    0  502  0.42929500767E+02  0.12034241489E+03  0.12007001434E+04  0.12196384000E+04  0.17178985312E+03 0.  0.
        -24    2    5    5    0    0  0.28981054353E+02  0.11959537037E+02  0.79489036783E+03  0.79934674973E+03  0.78240637802E+02 0.  0.
          5    1    3    3  501    0  0.44571260611E+02 -0.15694696746E+02  0.71112691198E+02  0.85510383158E+02  0.47000000000E+01 0. -1.
        -13    1    4    4    0    0 -0.48571885519E+01  0.10946908815E+02 -0.32207723988E+01  0.12401631670E+02  0.00000000000E+00 0.  1.
         14    1    4    4    0    0 -0.82643572826E+02 -0.11559462696E+03  0.95227054527E+02  0.17105633524E+03  0.00000000000E+00 0. -1.
         -5    1    5    5    0  502  0.13948446414E+02  0.10838287786E+03  0.40580977558E+03  0.42029165031E+03  0.47000000000E+01 0.  1.
         11    1    6    6    0    0 -0.23143094359E+02 -0.89622312809E+01  0.35828339599E+03  0.35914191658E+03  0.00000000000E+00 0. -1.
        -12    1    6    6    0    0  0.52124148712E+02  0.20921768318E+02  0.43660697184E+03  0.44020483315E+03  0.00000000000E+00 0.  1.
</event>
<event>
12    1  0.8196217E-002  0.1998737E+03  0.7818608E-02  0.1149917E+00
         21   -1    0    0  503  502  0.00000000000E+00  0.00000000000E+00  0.37414664657E+03  0.37414664657E+03  0.00000000000E+00 0. -1.
         21   -1    0    0  501  503 -0.00000000000E+00 -0.00000000000E+00 -0.11170099028E+03  0.11170099028E+03  0.00000000000E+00 0.  1.
          6    2    1    2  501    0 -0.63799977974E+02  0.77601244654E+02  0.79391565939E+02  0.21506398116E+03  0.17279208572E+03 0.  0.
         24    2    3    3    0    0 -0.55942200751E+02  0.99854719350E+01  0.10371214257E+03  0.14262629876E+03  0.79729625033E+02 0.  0.
         -6    2    1    2    0  502  0.63799977974E+02 -0.77601244654E+02  0.18305409035E+03  0.27078365570E+03  0.17240242991E+03 0.  0.
        -24    2    5    5    0    0 -0.22609979528E+02 -0.68541699540E+02  0.12838432581E+03  0.16802359892E+03  0.80871620062E+02 0.  0.
          5    1    3    3  501    0 -0.78577772229E+01  0.67615772720E+02 -0.24320576627E+02  0.72437682395E+02  0.47000000000E+01 0. -1.
        -11    1    4    4    0    0 -0.20526236581E+02  0.52853875029E+01 -0.99982232973E+01  0.23435575059E+02  0.00000000000E+00 0.  1.
         12    1    4    4    0    0 -0.35415964170E+02  0.47000844320E+01  0.11371036586E+03  0.11919072370E+03  0.00000000000E+00 0. -1.
         -5    1    5    5    0  502  0.86409957502E+02 -0.90595451148E+01  0.54669764535E+02  0.10276005677E+03  0.47000000000E+01 0.  1.
         11    1    6    6    0    0 -0.17205555793E+02 -0.16089238064E+02  0.10951372282E+03  0.11201852623E+03  0.00000000000E+00 0. -1.
        -12    1    6    6    0    0 -0.54044237354E+01 -0.52452461476E+02  0.18870602990E+02  0.56005072699E+02  0.00000000000E+00 0.  1.
</event>
<event>
12    1  0.8196217E-002  0.2360882E+03  0.7818608E-02  0.1122481E+00
         21   -1    0    0  503  502  0.00000000000E+00  0.00000000000E+00  0.25911791119E+02  0.25911791119E+02  0.00000000000E+00 0.  1.
         21   -1    0    0  501  503 -0.00000000000E+00 -0.00000000000E+00 -0.23830526059E+04  0.23830526059E+04  0.00000000000E+00 0.  1.
          6    2    1    2  501    0  0.15216620149E+03  0.54228412609E+02 -0.15574545359E+04  0.15752467402E+04  0.17216964761E+03 0.  0.
         24    2    3    3    0    0  0.11605207697E+03 -0.26041464280E+02 -0.80876266238E+03  0.82138395787E+03  0.80176803151E+02 0.  0.
         -6    2    1    2    0  502 -0.15216620149E+03 -0.54228412609E+02 -0.79968627894E+03  0.83371765686E+03  0.17173151437E+03 0.  0.
        -24    2    5    5    0    0 -0.61394221411E+02 -0.64518220897E+02 -0.62653434101E+03  0.63788835331E+03  0.80152476996E+02 0.  0.
          5    1    3    3  501    0  0.36114124517E+02  0.80269876889E+02 -0.74869187349E+03  0.75386278231E+03  0.47000000000E+01 0. -1.
        -11    1    4    4    0    0  0.23210448940E+02 -0.15404137107E+02 -0.44290775228E+03  0.44378293051E+03  0.00000000000E+00 0.  1.
         12    1    4    4    0    0  0.92841628030E+02 -0.10637327173E+02 -0.36585491009E+03  0.37760102736E+03  0.00000000000E+00 0. -1.
         -5    1    5    5    0  502 -0.90771980077E+02  0.10289808288E+02 -0.17315193793E+03  0.19582930355E+03  0.47000000000E+01 0.  1.
         13    1    6    6    0    0 -0.35351976361E+02  0.11396245475E+02 -0.26228986091E+03  0.26490679074E+03  0.00000000000E+00 0. -1.
        -14    1    6    6    0    0 -0.26042245051E+02 -0.75914466372E+02 -0.36424448010E+03  0.37298156257E+03  0.00000000000E+00 0.  1.
</event>
<event>
12    1  0.8196217E-002  0.2019829E+03  0.7818608E-02  0.1148852E+00
         21   -1    0    0  501  502  0.00000000000E+00  0.00000000000E+00  0.51280491688E+03  0.51280491688E+03  0.00000000000E+00 0.  1.
         21   -1    0    0  502  503 -0.00000000000E+00 -0.00000000000E+00 -0.14442958272E+03  0.14442958272E+03  0.00000000000E+00 0. -1.
         -6    2    1    2    0  503  0.59064800233E+02 -0.79179139785E+02 -0.37568086841E+02  0.20544693562E+03  0.17617915712E+03 0.  0.
        -24    2    3    3    0    0  0.13327648571E+02 -0.20298470670E+02 -0.86527656494E+02  0.11612756651E+03  0.73545375365E+02 0.  0.
          6    2    1    2  501    0 -0.59064800233E+02  0.79179139785E+02  0.40594342100E+03  0.45178756398E+03  0.17194172010E+03 0.  0.
         24    2    5    5    0    0 -0.86037432352E+02  0.66779239668E+02  0.18276278071E+03  0.22659216303E+03  0.77973506522E+02 0.  0.
          5    1    5    5  501    0  0.26972632119E+02  0.12399900118E+02  0.22318064029E+03  0.22519540095E+03  0.47000000000E+01 0. -1.
        -11    1    6    6    0    0 -0.42191064987E+01  0.17757875625E+02  0.95786543663E+02  0.97510024886E+02  0.00000000000E+00 0.  1.
         12    1    6    6    0    0 -0.81818325854E+02  0.49021364043E+02  0.86976237046E+02  0.12908213815E+03  0.00000000000E+00 0. -1.
         -5    1    3    3    0  503  0.45737151662E+02 -0.58880669115E+02  0.48959569652E+02  0.89319369110E+02  0.47000000000E+01 0.  1.
         11    1    4    4    0    0  0.33438597900E+02  0.14081875267E+02 -0.30584114749E+02  0.47453420483E+02  0.00000000000E+00 0. -1.
        -12    1    4    4    0    0 -0.20110949330E+02 -0.34380345938E+02 -0.55943541745E+02  0.68674146028E+02  0.00000000000E+00 0.  1.
</event>
<event>
12    1  0.8196217E-002  0.2922100E+03  0.7818608E-02  0.1089227E+00
         21   -1    0    0  501  502  0.00000000000E+00  0.00000000000E+00  0.15588913087E+03  0.15588913087E+03  0.00000000000E+00 0. -1.
         21   -1    0    0  502  503 -0.00000000000E+00 -0.00000000000E+00 -0.61742246722E+03  0.61742246722E+03  0.00000000000E+00 0. -1.
         -6    2    1    2    0  503 -0.23502267061E+03  0.22131386429E+02 -0.36109294110E+03  0.46451565026E+03  0.17222433991E+03 0.  0.
        -24    2    3    3    0    0 -0.21353250800E+03  0.78431583882E+01 -0.37184677247E+03  0.43616577480E+03  0.79453846993E+02 0.  0.
          6    2    1    2  501    0  0.23502267061E+03 -0.22131386429E+02 -0.10044039525E+03  0.30879594782E+03  0.17187556669E+03 0.  0.
         24    2    5    5    0    0  0.23550015827E+03  0.16764423401E+02 -0.71286249832E+02  0.25995778434E+03  0.82188501571E+02 0.  0.
          5    1    5    5  501    0 -0.47748765582E+00 -0.38895809830E+02 -0.29154145414E+02  0.48838163475E+02  0.47000000000E+01 0. -1.
        -11    1    6    6    0    0  0.10449151421E+03  0.35518123835E+02 -0.15706849182E+01  0.11037427560E+03  0.00000000000E+00 0.  1.
         12    1    6    6    0    0  0.13100864406E+03 -0.18753700434E+02 -0.69715564914E+02  0.14958350874E+03  0.00000000000E+00 0. -1.
         -5    1    3    3    0  503 -0.21490162608E+02  0.14288228041E+02  0.10753831370E+02  0.28349875460E+02  0.47000000000E+01 0.  1.
         11    1    4    4    0    0 -0.10324796720E+03 -0.18344424585E+02 -0.24236555339E+03  0.26407900733E+03  0.00000000000E+00 0. -1.
        -12    1    4    4    0    0 -0.11028454081E+03  0.26187582973E+02 -0.12948121908E+03  0.17208676747E+03  0.00000000000E+00 0.  1.
</event>
<event>
12    1  0.8196217E-002  0.1734587E+03  0.7818608E-02  0.1174507E+00
         21   -1    0    0  503  502  0.00000000000E+00  0.00000000000E+00  0.81126852138E+03  0.81126852138E+03  0.00000000000E+00 0. -1.
         21   -1    0    0  501  503 -0.00000000000E+00 -0.00000000000E+00 -0.50004715674E+02  0.50004715674E+02  0.00000000000E+00 0. -1.
          6    2    1    2  501    0  0.12142210080E+02 -0.39594082756E+01  0.16090985422E+03  0.23660072649E+03  0.17298789671E+03 0.  0.
         24    2    3    3    0    0 -0.17370008032E+00  0.65339992059E+02  0.10145593269E+03  0.14434593086E+03  0.79202883434E+02 0.  0.
         -6    2    1    2    0  502 -0.12142210080E+02  0.39594082756E+01  0.60035395149E+03  0.62467251057E+03  0.17212718617E+03 0.  0.
        -24    2    5    5    0    0  0.30201614459E+02  0.32494325329E+02  0.53251741255E+03  0.53963647713E+03  0.75264294937E+02 0.  0.
          5    1    3    3  501    0  0.12315910161E+02 -0.69299400335E+02  0.59453921529E+02  0.92254795621E+02  0.47000000000E+01 0. -1.
        -13    1    4    4    0    0 -0.31118558418E+02  0.27970542570E+01  0.43950056851E+02  0.53923980637E+02  0.00000000000E+00 0.  1.
         14    1    4    4    0    0  0.30944858337E+02  0.62542937802E+02  0.57505875843E+02  0.90421950228E+02  0.00000000000E+00 0. -1.
         -5    1    5    5    0  502 -0.42343824539E+02 -0.28534917054E+02  0.67836538939E+02  0.85036033439E+02  0.47000000000E+01 0.  1.
         11    1    6    6    0    0 -0.28809439804E+01  0.39497238408E+02  0.13514720013E+03  0.14083003012E+03  0.00000000000E+00 0. -1.
        -12    1    6    6    0    0  0.33082558439E+02 -0.70029130785E+01  0.39737021242E+03  0.39880644701E+03  0.00000000000E+00 0.  1.
</event>
<event>
12    1  0.8196217E-002  0.1899174E+03  0.7818608E-02  0.1158948E+00
         21   -1    0    0  501  502  0.00000000000E+00  0.00000000000E+00  0.27147506021E+03  0.27147506021E+03  0.00000000000E+00 0.  1.
         21   -1    0    0  502  503 -0.00000000000E+00 -0.00000000000E+00 -0.27741404600E+03  0.27741404600E+03  0.00000000000E+00 0. -1.
         -6    2    1    2    0  503 -0.12063401441E+02  0.77657822342E+02 -0.20193729249E+03  0.27597162132E+03  0.17089588249E+03 0.  0.
        -24    2    3    3    0    0 -0.25865597088E+02 -0.21418278899E+02 -0.95771553581E+02  0.13002701347E+03  0.81283835869E+02 0.  0.
          6    2    1    2  501    0  0.12063401441E+02 -0.77657822342E+02  0.19599830670E+03  0.27291748490E+03  0.17289405515E+03 0.  0.
         24    2    5    5    0    0  0.58862758669E+02 -0.16960175838E+02  0.15694391186E+03  0.18676808046E+03  0.80612979640E+02 0.  0.
          5    1    5    5  501    0 -0.46799357228E+02 -0.60697646504E+02  0.39054394836E+02  0.86149404433E+02  0.47000000000E+01 0. -1.
        -13    1    6    6    0    0  0.78915051674E+02 -0.14092697639E+02  0.11492134821E+03  0.14011818505E+03  0.00000000000E+00 0.  1.
         14    1    6    6    0    0 -0.20052293005E+02 -0.28674781998E+01  0.42022563658E+02  0.46649895417E+02  0.00000000000E+00 0. -1.
         -5    1    3    3    0  503  0.13802195647E+02  0.99076101241E+02 -0.10616573890E+03  0.14594460784E+03  0.47000000000E+01 0.  1.
         11    1    4    4    0    0  0.15717527514E+02  0.16012411581E+02 -0.58880897276E+02  0.63011094736E+02  0.00000000000E+00 0. -1.
        -12    1    4    4    0    0 -0.41583124602E+02 -0.37430690480E+02 -0.36890656305E+02  0.67015918736E+02  0.00000000000E+00 0.  1.
</event>
<event>
12    1  0.8196217E-002  0.1782518E+03  0.7818608E-02  0.1170931E+00
         21   -1    0    0  503  502  0.00000000000E+00  0.00000000000E+00  0.85904693008E+02  0.85904693008E+02  0.00000000000E+00 0. -1.
         21   -1    0    0  501  503 -0.00000000000E+00 -0.00000000000E+00 -0.36455351182E+03  0.36455351182E+03  0.00000000000E+00 0. -1.
          6    2    1    2  501    0 -0.17011587525E+02 -0.19252058177E+02 -0.10714115080E+03  0.20309494063E+03  0.17061152616E+03 0.  0.
         24    2    3    3    0    0 -0.54493486472E+02  0.16852143334E+02 -0.17897520640E+02  0.99678686388E+02  0.79762049073E+02 0.  0.
         -6    2    1    2    0  502  0.17011587525E+02  0.19252058177E+02 -0.17150766801E+03  0.24736326421E+03  0.17639066993E+03 0.  0.
        -24    2    5    5    0    0  0.61140090958E+02  0.55750254554E+02 -0.14280993629E+03  0.18313637762E+03  0.79360275335E+02 0.  0.
          5    1    3    3  501    0  0.37481898947E+02 -0.36104201511E+02 -0.89243630165E+02  0.10341625424E+03  0.47000000000E+01 0. -1.
        -11    1    4    4    0    0 -0.65268603331E+02 -0.94811180736E+00 -0.33783853616E+02  0.73499920149E+02  0.00000000000E+00 0.  1.
         12    1    4    4    0    0  0.10775116859E+02  0.17800255141E+02  0.15886332976E+02  0.26178766240E+02  0.00000000000E+00 0. -1.
         -5    1    5    5    0  502 -0.44128503433E+02 -0.36498196377E+02 -0.28697731723E+02  0.64226886582E+02  0.47000000000E+01 0.  1.
         11    1    6    6    0    0 -0.51465575073E+01  0.47406613709E+02 -0.54838787961E+02  0.72671636438E+02  0.00000000000E+00 0. -1.
        -12    1    6    6    0    0  0.66286648465E+02  0.83436408454E+01 -0.87971148327E+02  0.11046474119E+03  0.00000000000E+00 0.  1.
</event>
<event>
12    1  0.8196217E-002  0.1815590E+03  0.7818608E-02  0.1166796E+00
         21   -1    0    0  501  502  0.00000000000E+00  0.00000000000E+00  0.25619089191E+03  0.25619089191E+03  0.00000000000E+00 0.  1.
         21   -1    0    0  502  503 -0.00000000000E+00 -0.00000000000E+00 -0.19168935888E+03  0.19168935888E+03  0.00000000000E+00 0.  1.
         -6    2    1    2    0  503  0.52360970168E+02 -0.32314791512E+01 -0.97738769273E+02  0.20439390296E+03  0.17167378045E+03 0.  0.
        -24    2    3    3    0    0  0.91284384927E+02 -0.19579886801E+01 -0.11026855917E+03  0.16321454370E+03  0.78378310015E+02 0.  0.
          6    2    1    2  501    0 -0.52360970168E+02  0.32314791512E+01  0.16224030230E+03  0.24348634783E+03  0.17381476414E+03 0.  0.
         24    2    5    5    0    0 -0.52497588928E+02  0.44126008020E+02  0.17102908108E+03  0.20139461719E+03  0.81275727187E+02 0.  0.
          5    1    5    5  501    0  0.13661876017E+00 -0.40894528869E+02 -0.87887787757E+01  0.42091730642E+02  0.47000000000E+01 0. -1.
        -13    1    6    6    0    0  0.20945750945E+02  0.16668598013E+02  0.31443948273E+02  0.41295139246E+02  0.00000000000E+00 0.  1.
         14    1    6    6    0    0 -0.73443339874E+02  0.27457410007E+02  0.13958513281E+03  0.16009947794E+03  0.00000000000E+00 0. -1.
         -5    1    3    3    0  503 -0.38923414759E+02 -0.12734904711E+01  0.12529789901E+02  0.41179359265E+02  0.47000000000E+01 0.  1.
         13    1    4    4    0    0  0.83723793440E+02 -0.30587663237E+02 -0.93520957439E+02  0.12919538773E+03  0.00000000000E+00 0. -1.
        -14    1    4    4    0    0  0.75605914872E+01  0.28629674557E+02 -0.16747601735E+02  0.34019155968E+02  0.00000000000E+00 0.  1.
</event>
<event>
12    1  0.8196217E-002  0.2003455E+03  0.7818608E-02  0.1149484E+00
         21   -1    0    0  503  502  0.00000000000E+00  0.00000000000E+00  0.43168225003E+02  0.43168225003E+02  0.00000000000E+00 0.  1.
         21   -1    0    0  501  503 -0.00000000000E+00 -0.00000000000E+00 -0.13886853456E+04  0.13886853456E+04  0.00000000000E+00 0.  1.
          6    2    1    2  501    0 -0.61773312088E+02  0.76877594587E+02 -0.10848466648E+04  0.11031910951E+04  0.17439093909E+03 0.  0.
         24    2    3    3    0    0  0.30067504368E+02  0.98378266838E+01 -0.43333711352E+03  0.44181688075E+03  0.80126553108E+02 0.  0.
         -6    2    1    2    0  502  0.61773312088E+02 -0.76877594587E+02 -0.26067045587E+03  0.32866247554E+03  0.17419480367E+03 0.  0.
        -24    2    5    5    0    0 -0.27906886735E+02 -0.51935417614E+02 -0.95689389186E+02  0.13917502841E+03  0.82080127927E+02 0.  0.
          5    1    3    3  501    0 -0.91840816455E+02  0.67039767904E+02 -0.65150955124E+03  0.66137421435E+03  0.47000000000E+01 0. -1.
        -13    1    4    4    0    0  0.36510523994E+02  0.31769441584E+02 -0.15123629701E+03  0.15879147747E+03  0.00000000000E+00 0.  1.
         14    1    4    4    0    0 -0.64430196264E+01 -0.21931614901E+02 -0.28210081650E+03  0.28302540329E+03  0.00000000000E+00 0. -1.
         -5    1    5    5    0  502  0.89680198823E+02 -0.24942176974E+02 -0.16498106669E+03  0.18948744713E+03  0.47000000000E+01 0.  1.
         13    1    6    6    0    0 -0.48685731325E+02 -0.10581787818E+02 -0.27924739100E+02  0.57114496600E+02  0.00000000000E+00 0. -1.
        -14    1    6    6    0    0  0.20778844590E+02 -0.41353629795E+02 -0.67764650086E+02  0.82060531811E+02  0.00000000000E+00 0.  1.
</event>
<event>
12    1  0.8196217E-002  0.1909985E+03  0.7818608E-02  0.1158087E+00
         21   -1    0    0  501  502  0.00000000000E+00  0.00000000000E+00  0.65986276640E+02  0.65986276640E+02  0.00000000000E+00 0. -1.
         21   -1    0    0  502  503 -0.00000000000E+00 -0.00000000000E+00 -0.20395275468E+04  0.20395275468E+04  0.00000000000E+00 0.  1.
         -6    2    1    2    0  503 -0.75802858981E+02 -0.26168667415E+02 -0.18859912518E+04  0.18954056603E+04  0.17078859009E+03 0.  0.
        -24    2    3    3    0    0 -0.29027758000E+02 -0.34165927849E+02 -0.48852851440E+03  0.49712955782E+03  0.80422425439E+02 0.  0.
          6    2    1    2  501    0  0.75802858981E+02  0.26168667415E+02 -0.87550018289E+02  0.21010816311E+03  0.17334809465E+03 0.  0.
         24    2    5    5    0    0  0.52411206807E+02  0.52873669763E+02  0.72249082411E+01  0.10879329134E+03  0.79001401185E+02 0.  0.
          5    1    5    5  501    0  0.23391652174E+02 -0.26705002348E+02 -0.94774926530E+02  0.10131487176E+03  0.47000000000E+01 0. -1.
        -13    1    6    6    0    0  0.52345865918E+02  0.27458575431E+02 -0.27959580106E+02  0.65389610514E+02  0.00000000000E+00 0.  1.
         14    1    6    6    0    0  0.65340888547E-01  0.25415094331E+02  0.35184488347E+02  0.43403680830E+02  0.00000000000E+00 0. -1.
         -5    1    3    3    0  503 -0.46775100980E+02  0.79972604338E+01 -0.13974627374E+04  0.13982761025E+04  0.47000000000E+01 0.  1.
         11    1    4    4    0    0 -0.45577940828E+02  0.46839784387E+01 -0.32603237887E+03  0.32923608614E+03  0.00000000000E+00 0. -1.
        -12    1    4    4    0    0  0.16550182828E+02 -0.38849906288E+02 -0.16249613553E+03  0.16789347168E+03  0.00000000000E+00 0.  1.
</event>
<event>
12    1  0.8196217E-002  0.1911637E+03  0.7818608E-02  0.1158891E+00
         21   -1    0    0  501  502  0.00000000000E+00  0.00000000000E+00  0.50583332977E+02  0.50583332977E+02  0.00000000000E+00 0. -1.
         21   -1    0    0  502  503 -0.00000000000E+00 -0.00000000000E+00 -0.10696421178E+04  0.10696421178E+04  0.00000000000E+00 0. -1.
         -6    2    1    2    0  503 -0.51369404687E+02 -0.47418767317E+02 -0.84530240959E+03  0.86664856354E+03  0.17792193173E+03 0.  0.
        -24    2    3    3    0    0 -0.64275677538E+02 -0.84554700321E+02 -0.77340125768E+03  0.78456619610E+03  0.78190476429E+02 0.  0.
          6    2    1    2  501    0  0.51369404687E+02  0.47418767317E+02 -0.17375637521E+03  0.25357688722E+03  0.17094620374E+03 0.  0.
         24    2    5    5    0    0  0.66015653298E+02 -0.21962478994E+02 -0.65552689554E+02  0.12412265775E+03  0.79176145995E+02 0.  0.
          5    1    5    5  501    0 -0.14646248611E+02  0.69381246311E+02 -0.10820368566E+03  0.12945422947E+03  0.47000000000E+01 0. -1.
        -13    1    6    6    0    0  0.74873785258E+01 -0.29671549101E+02  0.61824328477E+01  0.31219931761E+02  0.00000000000E+00 0.  1.
         14    1    6    6    0    0  0.58528274772E+02  0.77090701072E+01 -0.71735122402E+02  0.92902725986E+02  0.00000000000E+00 0. -1.
         -5    1    3    3    0  503  0.12906272851E+02  0.37135933004E+02 -0.71901151906E+02  0.82082367439E+02  0.47000000000E+01 0.  1.
         13    1    4    4    0    0  0.12192878177E+02 -0.67521563272E+01 -0.22433999760E+03  0.22477253484E+03  0.00000000000E+00 0. -1.
        -14    1    4    4    0    0 -0.76468555715E+02 -0.77802543993E+02 -0.54906126008E+03  0.55979366126E+03  0.00000000000E+00 0.  1.
</event>
<event>
12    1  0.8196217E-002  0.1759984E+03  0.7818608E-02  0.1172282E+00
         21   -1    0    0  501  502  0.00000000000E+00  0.00000000000E+00  0.60029563157E+03  0.60029563157E+03  0.00000000000E+00 0. -1.
         21   -1    0    0  502  503 -0.00000000000E+00 -0.00000000000E+00 -0.56051322234E+02  0.56051322234E+02  0.00000000000E+00 0. -1.
         -6    2    1    2    0  503 -0.11814338209E+02 -0.30587966283E+02  0.17168058564E+03  0.24430427763E+03  0.17069022911E+03 0.  0.
        -24    2    3    3    0    0 -0.47549351895E+02  0.35141209529E+02  0.44330704048E+02  0.96529455359E+02  0.62103775713E+02 0.  0.
          6    2    1    2  501    0  0.11814338209E+02  0.30587966283E+02  0.37256372369E+03  0.41204267617E+03  0.17291684853E+03 0.  0.
         24    2    5    5    0    0  0.53963724903E+02  0.65589668176E+02  0.20990884404E+03  0.24034413276E+03  0.80557378118E+02 0.  0.
          5    1    5    5  501    0 -0.42149386694E+02 -0.35001701894E+02  0.16265487965E+03  0.17169854341E+03  0.47000000000E+01 0. -1.
        -11    1    6    6    0    0 -0.33623354385E+01  0.59037488310E+02  0.11376366408E+03  0.12821427998E+03  0.00000000000E+00 0.  1.
         12    1    6    6    0    0  0.57326060342E+02  0.65521798667E+01  0.96145179960E+02  0.11212985278E+03  0.00000000000E+00 0. -1.
         -5    1    3    3    0  503  0.35735013686E+02 -0.65729175812E+02  0.12734988159E+03  0.14777482227E+03  0.47000000000E+01 0.  1.
         11    1    4    4    0    0  0.10568491363E+01  0.24688172077E+02 -0.63710916563E+01  0.25518886721E+02  0.00000000000E+00 0. -1.
        -12    1    4    4    0    0 -0.48606201032E+02  0.10453037452E+02  0.50701795704E+02  0.71010568638E+02  0.00000000000E+00 0.  1.
</event>
<event>
12    1  0.8196217E-002  0.2003787E+03  0.7818608E-02  0.1151042E+00
         21   -1    0    0  503  502  0.00000000000E+00  0.00000000000E+00  0.37733264585E+03  0.37733264585E+03  0.00000000000E+00 0. -1.
         21   -1    0    0  501  503 -0.00000000000E+00 -0.00000000000E+00 -0.11620038699E+03  0.11620038699E+03  0.00000000000E+00 0.  1.
          6    2    1    2  501    0  0.36228679451E+02 -0.93972827271E+02  0.47860038481E+02  0.20601502541E+03  0.17322874452E+03 0.  0.
         24    2    3    3    0    0 -0.24405601395E+02 -0.24667285132E+02  0.70467642020E+02  0.11107837325E+03  0.78540486990E+02 0.  0.
         -6    2    1    2    0  502 -0.36228679451E+02  0.93972827271E+02  0.21327222038E+03  0.28751800743E+03  0.16443282863E+03 0.  0.
        -24    2    5    5    0    0 -0.38076882469E+01 -0.80224357480E+01  0.53528417110E+02  0.95178913559E+02  0.78197673769E+02 0.  0.
          5    1    3    3  501    0  0.60634280846E+02 -0.69305542139E+02 -0.22607603539E+02  0.94936652156E+02  0.47000000000E+01 0. -1.
        -13    1    4    4    0    0 -0.46399151423E+02 -0.23211372429E+02  0.19281608985E+02  0.55348256593E+02  0.00000000000E+00 0.  1.
         14    1    4    4    0    0  0.21993550028E+02 -0.14559127027E+01  0.51186033035E+02  0.55730116656E+02  0.00000000000E+00 0. -1.
         -5    1    5    5    0  502 -0.32420991204E+02  0.10199526302E+03  0.15974380327E+03  0.19233909387E+03  0.47000000000E+01 0.  1.
         13    1    6    6    0    0 -0.14740032555E+02  0.30749705296E+02  0.40272239706E+02  0.52769936767E+02  0.00000000000E+00 0. -1.
        -14    1    6    6    0    0  0.10932344308E+02 -0.38772141044E+02  0.13256177404E+02  0.42408976792E+02  0.00000000000E+00 0.  1.
</event>
<event>
12    1  0.8196217E-002  0.1995041E+03  0.7818608E-02  0.1151725E+00
         21   -1    0    0  503  502  0.00000000000E+00  0.00000000000E+00  0.14481187560E+03  0.14481187560E+03  0.00000000000E+00 0. -1.
         21   -1    0    0  501  503 -0.00000000000E+00 -0.00000000000E+00 -0.27184864269E+03  0.27184864269E+03  0.00000000000E+00 0. -1.
          6    2    1    2  501    0  0.77144020689E+02  0.65083699183E+02 -0.95569867827E+02  0.21469006044E+03  0.16361886991E+03 0.  0.
         24    2    3    3    0    0  0.45987123159E+02  0.19422537674E+02  0.88228741301E+01  0.96471497995E+02  0.82078354950E+02 0.  0.
         -6    2    1    2    0  502 -0.77144020689E+02 -0.65083699183E+02 -0.31466899260E+02  0.20197045785E+03  0.17208954723E+03 0.  0.
        -24    2    5    5    0    0 -0.94346450148E+02 -0.75622497065E+02  0.20133933602E+02  0.14636716845E+03  0.79987236477E+02 0.  0.
          5    1    3    3  501    0  0.31156897530E+02  0.45661161509E+02 -0.10439274196E+03  0.11821856245E+03  0.47000000000E+01 0. -1.
        -11    1    4    4    0    0  0.13533855677E+02  0.36123907017E+02 -0.25602749126E+02  0.46299056907E+02  0.00000000000E+00 0.  1.
         12    1    4    4    0    0  0.32453267481E+02 -0.16701369343E+02  0.34425623256E+02  0.50172441088E+02  0.00000000000E+00 0. -1.
         -5    1    5    5    0  502  0.17202429459E+02  0.10538797882E+02 -0.51600832862E+02  0.55603289401E+02  0.47000000000E+01 0.  1.
         11    1    6    6    0    0 -0.51797847507E+02 -0.30530545930E+02 -0.29477778360E+02  0.66963203763E+02  0.00000000000E+00 0. -1.
        -12    1    6    6    0    0 -0.42548602641E+02 -0.45091951135E+02  0.49611711962E+02  0.79403964685E+02  0.00000000000E+00 0.  1.
</event>
<event>
12    1  0.8196217E-002  0.1947306E+03  0.7818608E-02  0.1154868E+00
         21   -1    0    0  501  502  0.00000000000E+00  0.00000000000E+00  0.77323149727E+02  0.77323149727E+02  0.00000000000E+00 0. -1.
         21   -1    0    0  502  503 -0.00000000000E+00 -0.00000000000E+00 -0.87746890272E+03  0.87746890272E+03  0.00000000000E+00 0.  1.
         -6    2    1    2    0  503 -0.87170569863E+02 -0.15963460071E+01 -0.71838402895E+03  0.74359313716E+03  0.17103766841E+03 0.  0.
        -24    2    3    3    0    0 -0.38703585385E+02  0.55503334203E+02 -0.56976770348E+03  0.57710492659E+03  0.61937651983E+02 0.  0.
          6    2    1    2  501    0  0.87170569863E+02  0.15963460071E+01 -0.81761724046E+02  0.21119891529E+03  0.17412278923E+03 0.  0.
         24    2    5    5    0    0  0.18589597125E+01 -0.10697515074E+02 -0.94630960212E+02  0.12392396420E+03  0.79273184076E+02 0.  0.
          5    1    5    5  501    0  0.85311610151E+02  0.12293861081E+02  0.12869236165E+02  0.87274951082E+02  0.47000000000E+01 0. -1.
        -13    1    6    6    0    0 -0.82678199089E+01 -0.68897119952E+01  0.12359157460E+02  0.16388219871E+02  0.00000000000E+00 0.  1.
         14    1    6    6    0    0  0.10126779621E+02 -0.38078030792E+01 -0.10699011767E+03  0.10753574433E+03  0.00000000000E+00 0. -1.
         -5    1    3    3    0  503 -0.48466984479E+02 -0.57099680210E+02 -0.14861632546E+03  0.16648821057E+03  0.47000000000E+01 0.  1.
         13    1    4    4    0    0  0.16305527556E+02  0.20847526216E+02 -0.14616824922E+03  0.14854509975E+03  0.00000000000E+00 0. -1.
        -14    1    4    4    0    0 -0.55009112941E+02  0.34655807987E+02 -0.42359945426E+03  0.42855982684E+03  0.00000000000E+00 0.  1.
</event>
<event>
12    1  0.8196217E-002  0.1691516E+03  0.7818608E-02  0.1178920E+00
         21   -1    0    0  503  502  0.00000000000E+00  0.00000000000E+00  0.71029852092E+02  0.71029852092E+02  0.00000000000E+00 0.  1.
         21   -1    0    0  501  503 -0.00000000000E+00 -0.00000000000E+00 -0.40583045391E+03  0.40583045391E+03  0.00000000000E+00 0.  1.
          6    2    1    2  501    0  0.17915778026E+01  0.10466093515E+02 -0.19335003040E+03  0.25689782390E+03  0.16881797535E+03 0.  0.
         24    2    3    3    0    0  0.41215896930E+02 -0.48843681798E+02 -0.10558656607E+03  0.14377646403E+03  0.73747496662E+02 0.  0.
         -6    2    1    2    0  502 -0.17915778026E+01 -0.10466093515E+02 -0.14145057141E+03  0.21996248210E+03  0.16811448633E+03 0.  0.
        -24    2    5    5    0    0 -0.34616295002E+02  0.54030947461E+01 -0.88224156484E+01  0.82333957089E+02  0.73983539788E+02 0.  0.
          5    1    3    3  501    0 -0.39424319127E+02  0.59309775314E+02 -0.87763464333E+02  0.11312135987E+03  0.47000000000E+01 0. -1.
        -13    1    4    4    0    0 -0.23155183866E+01 -0.22934272873E+01 -0.71360112902E+02  0.71434495501E+02  0.00000000000E+00 0.  1.
         14    1    4    4    0    0  0.43531415316E+02 -0.46550254511E+02 -0.34226453166E+02  0.72341968530E+02  0.00000000000E+00 0. -1.
         -5    1    5    5    0  502  0.32824717200E+02 -0.15869188261E+02 -0.13262815577E+03  0.13762852501E+03  0.47000000000E+01 0.  1.
         13    1    6    6    0    0  0.11123653415E+02  0.27504410894E+02 -0.10594025296E+02  0.31503359439E+02  0.00000000000E+00 0. -1.
        -14    1    6    6    0    0 -0.45739948418E+02 -0.22101316148E+02  0.17716096478E+01  0.50830597650E+02  0.00000000000E+00 0.  1.
</event>
<event>
12    1  0.8196217E-002  0.2132641E+03  0.7818608E-02  0.1139091E+00
         21   -1    0    0  503  502  0.00000000000E+00  0.00000000000E+00  0.26682800089E+03  0.26682800089E+03  0.00000000000E+00 0.  1.
         21   -1    0    0  501  503 -0.00000000000E+00 -0.00000000000E+00 -0.18149705477E+03  0.18149705477E+03  0.00000000000E+00 0.  1.
          6    2    1    2  501    0  0.69289017813E+02 -0.10484052460E+03 -0.13451326488E+02  0.21368785525E+03  0.17230512967E+03 0.  0.
         24    2    3    3    0    0 -0.11814498219E+02 -0.13562041037E+02 -0.32859425259E+02  0.89961115330E+02  0.81790886521E+02 0.  0.
         -6    2    1    2    0  502 -0.69289017813E+02  0.10484052460E+03  0.98782272612E+02  0.23463720041E+03  0.17176779339E+03 0.  0.
        -24    2    5    5    0    0 -0.10083858078E+03  0.39160064650E+02  0.88702031443E+02  0.16092832031E+03  0.79548374338E+02 0.  0.
          5    1    3    3  501    0  0.81103516033E+02 -0.91278483560E+02  0.19408098771E+02  0.12372673992E+03  0.47000000000E+01 0. -1.
        -13    1    4    4    0    0  0.22266077473E+02 -0.34720521583E+02 -0.27300825833E+02  0.49463399764E+02  0.00000000000E+00 0.  1.
         14    1    4    4    0    0 -0.34080575692E+02  0.21158480546E+02 -0.55585994258E+01  0.40497715567E+02  0.00000000000E+00 0. -1.
         -5    1    5    5    0  502  0.31549562967E+02  0.65680459946E+02  0.10080241168E+02  0.73708880090E+02  0.47000000000E+01 0.  1.
         11    1    6    6    0    0 -0.31927638114E+02 -0.65428950160E+00 -0.10620019092E+02  0.33653929574E+02  0.00000000000E+00 0. -1.
        -12    1    6    6    0    0 -0.68910942667E+02  0.39814354152E+02  0.99322050536E+02  0.12727439074E+03  0.00000000000E+00 0.  1.
</event>
<event>
12    1  0.8196217E-002  0.2210659E+03  0.7818608E-02  0.1133205E+00
         21   -1    0    0  503  502  0.00000000000E+00  0.00000000000E+00  0.78926377884E+03  0.78926377884E+03  0.00000000000E+00 0.  1.
         21   -1    0    0  501  503 -0.00000000000E+00 -0.00000000000E+00 -0.12515998592E+03  0.12515998592E+03  0.00000000000E+00 0.  1.
          6    2    1    2  501    0 -0.12232696792E+03 -0.63462682447E+02  0.63800382737E+01  0.22054288380E+03  0.17206702055E+03 0.  0.
         24    2    3    3    0    0 -0.18049084456E+02 -0.77845465576E+02 -0.11978449166E+02  0.11358557694E+03  0.79828028181E+02 0.  0.
         -6    2    1    2    0  502  0.12232696792E+03  0.63462682447E+02  0.65772375465E+03  0.69388088096E+03  0.17285467999E+03 0.  0.
        -24    2    5    5    0    0  0.10683755105E+03  0.70833602365E+02  0.29049528374E+03  0.32622194616E+03  0.74843748849E+02 0.  0.
          5    1    3    3  501    0 -0.10427788346E+03  0.14382783130E+02  0.18358487440E+02  0.10695730686E+03  0.47000000000E+01 0. -1.
        -11    1    4    4    0    0  0.20288348661E+02 -0.14014614473E+02  0.20772942024E+02  0.32241923494E+02  0.00000000000E+00 0.  1.
         12    1    4    4    0    0 -0.38337433117E+02 -0.63830851104E+02 -0.32751391191E+02  0.81343653443E+02  0.00000000000E+00 0. -1.
         -5    1    5    5    0  502  0.15489416865E+02 -0.73709199187E+01  0.36722847090E+03  0.36765893480E+03  0.47000000000E+01 0.  1.
         13    1    6    6    0    0  0.26673340138E+02 -0.12590703324E+02  0.35135573646E+02  0.45874845175E+02  0.00000000000E+00 0. -1.
        -14    1    6    6    0    0  0.80164210914E+02  0.83424305690E+02  0.25535971009E+03  0.28034710099E+03  0.00000000000E+00 0.  1.
</event>
<event>
12    1  0.8196217E-002  0.2129027E+03  0.7818608E-02  0.1139357E+00
         21   -1    0    0  503  502  0.00000000000E+00  0.00000000000E+00  0.38386271653E+03  0.38386271653E+03  0.00000000000E+00 0.  1.
         21   -1    0    0  501  503 -0.00000000000E+00 -0.00000000000E+00 -0.12399976172E+03  0.12399976172E+03  0.00000000000E+00 0.  1.
          6    2    1    2  501    0  0.24761786982E+00 -0.12549482592E+03  0.73440846086E+02  0.22487702457E+03  0.17154330549E+03 0.  0.
         24    2    3    3    0    0 -0.86314967412E+01  0.57533697353E+01  0.24353015542E+02  0.84389898302E+02  0.80131027512E+02 0.  0.
         -6    2    1    2    0  502 -0.24761786982E+00  0.12549482592E+03  0.18642210872E+03  0.28298545367E+03  0.17198416125E+03 0.  0.
        -24    2    5    5    0    0 -0.46096614587E+02  0.32388887175E+02  0.13425392532E+03  0.16673376254E+03  0.81253265908E+02 0.  0.
          5    1    3    3  501    0  0.88791146111E+01 -0.13124819566E+03  0.49087830544E+02  0.14048712627E+03  0.47000000000E+01 0. -1.
        -13    1    4    4    0    0 -0.11356513739E+02 -0.36510281136E+02  0.85035163955E+01  0.39169896911E+02  0.00000000000E+00 0.  1.
         14    1    4    4    0    0  0.27250169978E+01  0.42263650871E+02  0.15849499146E+02  0.45220001391E+02  0.00000000000E+00 0. -1.
         -5    1    5    5    0  502  0.45848996717E+02  0.93105938749E+02  0.52168183410E+02  0.11625169113E+03  0.47000000000E+01 0.  1.
         11    1    6    6    0    0  0.13550886334E+02 -0.13917083130E+02  0.11383186573E+02  0.22514187968E+02  0.00000000000E+00 0. -1.
        -12    1    6    6    0    0 -0.59647500921E+02  0.46305970305E+02  0.12287073874E+03  0.14421957458E+03  0.00000000000E+00 0.  1.
</event>
<event>
12    1  0.8196217E-002  0.1864020E+03  0.7818608E-02  0.1162135E+00
         21   -1    0    0  501  502  0.00000000000E+00  0.00000000000E+00  0.39731329171E+02  0.39731329171E+02  0.00000000000E+00 0.  1.
         21   -1    0    0  502  503 -0.00000000000E+00 -0.00000000000E+00 -0.86751490012E+03  0.86751490012E+03  0.00000000000E+00 0.  1.
         -6    2    1    2    0  503  0.97917686819E+01 -0.68731076836E+02 -0.40192074689E+03  0.44304176941E+03  0.17299099111E+03 0.  0.
        -24    2    3    3    0    0  0.28653959015E+02  0.17832809508E+02 -0.28482004044E+03  0.29612766493E+03  0.73689076813E+02 0.  0.
          6    2    1    2  501    0 -0.97917686819E+01  0.68731076836E+02 -0.42586282406E+03  0.46420445988E+03  0.17119227786E+03 0.  0.
         24    2    5    5    0    0 -0.39421207402E+02 -0.11431862447E+02 -0.29105441095E+03  0.30451914835E+03  0.79589713572E+02 0.  0.
          5    1    5    5  501    0  0.29629438720E+02  0.80162939283E+02 -0.13480841312E+03  0.15968531154E+03  0.47000000000E+01 0. -1.
        -11    1    6    6    0    0 -0.38259734006E+02 -0.41925052968E+02 -0.15447496935E+03  0.16457227430E+03  0.00000000000E+00 0.  1.
         12    1    6    6    0    0 -0.11614733951E+01  0.30493190522E+02 -0.13657944160E+03  0.13994687405E+03  0.00000000000E+00 0. -1.
         -5    1    3    3    0  503 -0.18862190333E+02 -0.86563886343E+02 -0.11710070645E+03  0.14691410447E+03  0.47000000000E+01 0.  1.
         13    1    4    4    0    0 -0.16341109791E+01 -0.16022995635E+02 -0.19314061839E+03  0.19381100377E+03  0.00000000000E+00 0. -1.
        -14    1    4    4    0    0  0.30288069994E+02  0.33855805142E+02 -0.91679422045E+02  0.10231666117E+03  0.00000000000E+00 0.  1.
</event>
<event>
12    1  0.8196217E-002  0.1913075E+03  0.7818608E-02  0.1157973E+00
         21   -1    0    0  503  502  0.00000000000E+00  0.00000000000E+00  0.79215527457E+03  0.79215527457E+03  0.00000000000E+00 0.  1.
         21   -1    0    0  501  503 -0.00000000000E+00 -0.00000000000E+00 -0.63096540212E+02  0.63096540212E+02  0.00000000000E+00 0.  1.
          6    2    1    2  501    0 -0.16486276845E+02 -0.78514472334E+02  0.14061692426E+03  0.23742717859E+03  0.17367275565E+03 0.  0.
         24    2    3    3    0    0 -0.12143962443E+02 -0.10346972620E+03  0.15876632643E+03  0.20591351188E+03  0.79625171292E+02 0.  0.
         -6    2    1    2    0  502  0.16486276845E+02  0.78514472334E+02  0.58844181010E+03  0.61782463619E+03  0.17031499500E+03 0.  0.
        -24    2    5    5    0    0 -0.12958005037E+02  0.57918614014E+02  0.16247119095E+03  0.19031532226E+03  0.79376055938E+02 0.  0.
          5    1    3    3  501    0 -0.43423144022E+01  0.24955253869E+02 -0.18149402173E+02  0.31513666706E+02  0.47000000000E+01 0. -1.
        -13    1    4    4    0    0 -0.42838370037E+02 -0.49535350317E+02  0.57525482133E+02  0.87166839871E+02  0.00000000000E+00 0.  1.
         14    1    4    4    0    0  0.30694407594E+02 -0.53934375885E+02  0.10124084430E+03  0.11874667201E+03  0.00000000000E+00 0. -1.
         -5    1    5    5    0  502  0.29444281883E+02  0.20595858320E+02  0.42597061915E+03  0.42750931393E+03  0.47000000000E+01 0.  1.
         13    1    6    6    0    0 -0.40295903936E+02  0.24613582807E+02  0.45145345328E+02  0.65327563382E+02  0.00000000000E+00 0. -1.
        -14    1    6    6    0    0  0.27337898898E+02  0.33305031207E+02  0.11732584562E+03  0.12498775888E+03  0.00000000000E+00 0.  1.
</event>
<event>
12    1  0.8196217E-002  0.2741236E+03  0.7818608E-02  0.1099051E+00
         21   -1    0    0  503  502  0.00000000000E+00  0.00000000000E+00  0.47633554589E+03  0.47633554589E+03  0.00000000000E+00 0.  1.
         21   -1    0    0  501  503 -0.00000000000E+00 -0.00000000000E+00 -0.15740446216E+03  0.15740446216E+03  0.00000000000E+00 0.  1.
          6    2    1    2  501    0 -0.20311323697E+03  0.65077296212E+02  0.16752906833E+03  0.32126272892E+03  0.17220252827E+03 0.  0.
         24    2    3    3    0    0 -0.15696580358E+03  0.24568734278E+02  0.18542689456E+03  0.25713043299E+03  0.80566991654E+02 0.  0.
         -6    2    1    2    0  502  0.20311323697E+03 -0.65077296212E+02  0.15140201541E+03  0.31247727913E+03  0.17096619020E+03 0.  0.
        -24    2    5    5    0    0  0.21885132992E+03 -0.54786934334E+02  0.10440987623E+03  0.26164490498E+03  0.81603439055E+02 0.  0.
          5    1    3    3  501    0 -0.46147433382E+02  0.40508561934E+02 -0.17897826227E+02  0.64132295931E+02  0.47000000000E+01 0. -1.
        -13    1    4    4    0    0 -0.95112945926E+02 -0.55347946826E+01  0.55878935266E+02  0.11045162670E+03  0.00000000000E+00 0.  1.
         14    1    4    4    0    0 -0.61852857657E+02  0.30103528961E+02  0.12954795929E+03  0.14667880628E+03  0.00000000000E+00 0. -1.
         -5    1    5    5    0  502 -0.15738092956E+02 -0.10290361878E+02  0.46992139175E+02  0.50832374150E+02  0.47000000000E+01 0.  1.
         11    1    6    6    0    0  0.20137025555E+03 -0.65230936232E+02  0.72408886655E+02  0.22371433063E+03  0.00000000000E+00 0. -1.
        -12    1    6    6    0    0  0.17481074372E+02  0.10444001898E+02  0.32000989577E+02  0.37930574352E+02  0.00000000000E+00 0.  1.
</event>
<event>
12    1  0.8196217E-002  0.1826344E+03  0.7818608E-02  0.1165561E+00
         21   -1    0    0  501  502  0.00000000000E+00  0.00000000000E+00  0.22647556893E+04  0.22647556893E+04  0.00000000000E+00 0. -1.
         21   -1    0    0  502  503 -0.00000000000E+00 -0.00000000000E+00 -0.14802466487E+02  0.14802466487E+02  0.00000000000E+00 0. -1.
         -6    2    1    2    0  503 -0.43479311601E+02  0.43751516889E+02  0.12435562266E+04  0.12567237341E+04  0.17063941360E+03 0.  0.
        -24    2    3    3    0    0  0.37690787910E+02  0.10395268146E+02  0.48092816807E+03  0.48904875732E+03  0.79675134758E+02 0.  0.
          6    2    1    2  501    0  0.43479311601E+02 -0.43751516889E+02  0.10063969962E+04  0.10228344217E+04  0.17190315398E+03 0.  0.
         24    2    5    5    0    0  0.59770819543E+02 -0.87724322057E+02  0.65555854219E+03  0.66884468783E+03  0.79549397551E+02 0.  0.
          5    1    5    5  501    0 -0.16291507942E+02  0.43972805168E+02  0.35083845406E+03  0.35398973386E+03  0.47000000000E+01 0. -1.
        -13    1    6    6    0    0 -0.20288321577E+01 -0.60419796740E+02  0.22333133314E+03  0.23136886644E+03  0.00000000000E+00 0.  1.
         14    1    6    6    0    0  0.61799651701E+02 -0.27304525317E+02  0.43222720905E+03  0.43747582138E+03  0.00000000000E+00 0. -1.
         -5    1    3    3    0  503 -0.81170099511E+02  0.33356248743E+02  0.76262805851E+03  0.76767497680E+03  0.47000000000E+01 0.  1.
         13    1    4    4    0    0  0.35380261866E+02 -0.23756747725E+02  0.13835395006E+03  0.14476864815E+03  0.00000000000E+00 0. -1.
        -14    1    4    4    0    0  0.23105260440E+01  0.34152015871E+02  0.34257421802E+03  0.34428010917E+03  0.00000000000E+00 0.  1.
</event>
<event>
12    1  0.8196217E-002  0.2388023E+03  0.7818608E-02  0.1120781E+00
         21   -1    0    0  501  502  0.00000000000E+00  0.00000000000E+00  0.42011305856E+02  0.42011305856E+02  0.00000000000E+00 0. -1.
         21   -1    0    0  502  503 -0.00000000000E+00 -0.00000000000E+00 -0.20634958858E+04  0.20634958858E+04  0.00000000000E+00 0. -1.
         -6    2    1    2    0  503 -0.13750460832E+03 -0.94891551665E+02 -0.39371340897E+03  0.46047450333E+03  0.17062999715E+03 0.  0.
        -24    2    3    3    0    0 -0.15987076319E+03 -0.74216891697E+02 -0.38014317486E+03  0.42680066034E+03  0.81136689215E+02 0.  0.
          6    2    1    2  501    0  0.13750460832E+03  0.94891551665E+02 -0.16277711709E+04  0.16450326883E+04  0.16906104434E+03 0.  0.
         24    2    5    5    0    0  0.24333160895E+02  0.75104088296E+02 -0.10427350444E+04  0.10488039742E+04  0.80378333863E+02 0.  0.
          5    1    5    5  501    0  0.11317144743E+03  0.19787463368E+02 -0.58503612651E+03  0.59622871412E+03  0.47000000000E+01 0. -1.
        -11    1    6    6    0    0  0.22756139502E+02  0.27512056588E+00 -0.54481320055E+03  0.54528831004E+03  0.00000000000E+00 0.  1.
         12    1    6    6    0    0  0.15770213934E+01  0.74828967730E+02 -0.49792184387E+03  0.50351566411E+03  0.00000000000E+00 0. -1.
         -5    1    3    3    0  503  0.22366154866E+02 -0.20674659968E+02 -0.13570234113E+02  0.33673842996E+02  0.47000000000E+01 0.  1.
         13    1    4    4    0    0 -0.71025184010E+02  0.94377248468E+01 -0.12834481094E+03  0.14698992451E+03  0.00000000000E+00 0. -1.
        -14    1    4    4    0    0 -0.88845579180E+02 -0.83654616544E+02 -0.25179836392E+03  0.27981073582E+03  0.00000000000E+00 0.  1.
</event>
<event>
12    1  0.8196217E-002  0.2407377E+03  0.7818608E-02  0.1119625E+00
         21   -1    0    0  501  502  0.00000000000E+00  0.00000000000E+00  0.56011969511E+02  0.56011969511E+02  0.00000000000E+00 0. -1.
         21   -1    0    0  502  503 -0.00000000000E+00 -0.00000000000E+00 -0.11913521936E+04  0.11913521936E+04  0.00000000000E+00 0.  1.
         -6    2    1    2    0  503 -0.16519131232E+03  0.11929890775E+02 -0.80172421670E+03  0.83708802544E+03  0.17471162164E+03 0.  0.
        -24    2    3    3    0    0 -0.15700489772E+02  0.21228307080E+02 -0.31650503619E+03  0.32925566166E+03  0.86814206210E+02 0.  0.
          6    2    1    2  501    0  0.16519131232E+03 -0.11929890775E+02 -0.33361600737E+03  0.41027613765E+03  0.17203597529E+03 0.  0.
         24    2    5    5    0    0  0.13867402826E+03  0.51445114501E+01 -0.34163828041E+03  0.37739531605E+03  0.80334039002E+02 0.  0.
          5    1    5    5  501    0  0.26517284052E+02 -0.17074402225E+02  0.80222730333E+01  0.32880821605E+02  0.47000000000E+01 0. -1.
        -13    1    6    6    0    0  0.66616851436E+02 -0.26785057624E+02 -0.99128489598E+02  0.12239976167E+03  0.00000000000E+00 0.  1.
         14    1    6    6    0    0  0.72057176829E+02  0.31929569075E+02 -0.24250979081E+03  0.25499555438E+03  0.00000000000E+00 0. -1.
         -5    1    3    3    0  503 -0.14949082254E+03 -0.92984163050E+01 -0.48521918051E+03  0.50783236378E+03  0.47000000000E+01 0.  1.
         11    1    4    4    0    0 -0.98607978372E-02 -0.22231591468E+02 -0.22458933058E+02  0.31601383364E+02  0.00000000000E+00 0. -1.
        -12    1    4    4    0    0 -0.15690628974E+02  0.43459898548E+02 -0.29404610313E+03  0.29765427829E+03  0.00000000000E+00 0.  1.
</event>
<event>
12    1  0.8196217E-002  0.1871932E+03  0.7818608E-02  0.1161276E+00
         21   -1    0    0  501  502  0.00000000000E+00  0.00000000000E+00  0.21198547520E+03  0.21198547520E+03  0.00000000000E+00 0. -1.
         21   -1    0    0  502  503 -0.00000000000E+00 -0.00000000000E+00 -0.57910456694E+03  0.57910456694E+03  0.00000000000E+00 0. -1.
         -6    2    1    2    0  503 -0.16959827089E+02 -0.71118508213E+02 -0.51847509477E+03  0.55123291000E+03  0.17232474933E+03 0.  0.
        -24    2    3    3    0    0  0.13552327072E+02  0.26075338977E+02 -0.25376351812E+03  0.26755713682E+03  0.79544386724E+02 0.  0.
          6    2    1    2  501    0  0.16959827089E+02  0.71118508213E+02  0.15135600302E+03  0.23985713214E+03  0.17110618411E+03 0.  0.
         24    2    5    5    0    0 -0.26810458992E+02 -0.78939080013E+00  0.43614931367E+02  0.10304773039E+03  0.89426778158E+02 0.  0.
          5    1    5    5  501    0  0.43770286081E+02  0.71907899013E+02  0.10774107165E+03  0.13680940174E+03  0.47000000000E+01 0. -1.
        -13    1    6    6    0    0 -0.53021561938E+02  0.95338987894E+01  0.50723829056E+02  0.73993838193E+02  0.00000000000E+00 0.  1.
         14    1    6    6    0    0  0.26211102946E+02 -0.10323289590E+02 -0.71088976889E+01  0.29053892200E+02  0.00000000000E+00 0. -1.
         -5    1    3    3    0  503 -0.30512154161E+02 -0.97193847190E+02 -0.26471157664E+03  0.28367577318E+03  0.47000000000E+01 0.  1.
         13    1    4    4    0    0  0.21846125061E+01 -0.21500359353E+02 -0.22579483695E+02  0.31254936698E+02  0.00000000000E+00 0. -1.
        -14    1    4    4    0    0  0.11367714566E+02  0.47575698330E+02 -0.23118403443E+03  0.23630220012E+03  0.00000000000E+00 0.  1.
</event>
<event>
12    1  0.8196217E-002  0.2338858E+03  0.7818608E-02  0.1124074E+00
         21   -1    0    0  501  502  0.00000000000E+00  0.00000000000E+00  0.12126186426E+03  0.12126186426E+03  0.00000000000E+00 0.  1.
         21   -1    0    0  502  503 -0.00000000000E+00 -0.00000000000E+00 -0.50409416695E+03  0.50409416695E+03  0.00000000000E+00 0. -1.
         -6    2    1    2    0  503 -0.30530837760E+02 -0.15574336440E+03 -0.29397538828E+03  0.37515988819E+03  0.17069061247E+03 0.  0.
        -24    2    3    3    0    0 -0.54002201748E+02 -0.48073542799E+02 -0.76823478288E+02  0.13160139948E+03  0.78675143580E+02 0.  0.
          6    2    1    2  501    0  0.30530837760E+02  0.15574336440E+03 -0.88856914417E+02  0.25019614302E+03  0.17179764588E+03 0.  0.
         24    2    5    5    0    0  0.72176735805E+02  0.70182218560E+02 -0.87687639669E+02  0.15491472980E+03  0.78577518183E+02 0.  0.
          5    1    5    5  501    0 -0.41645898045E+02  0.85561145842E+02 -0.11692747472E+01  0.95281413220E+02  0.47000000000E+01 0. -1.
        -11    1    6    6    0    0  0.15954023316E+02  0.63981317144E+02 -0.68759557944E+02  0.95268130097E+02  0.00000000000E+00 0.  1.
         12    1    6    6    0    0  0.56222712489E+02  0.62009014152E+01 -0.18928081725E+02  0.59646599700E+02  0.00000000000E+00 0. -1.
         -5    1    3    3    0  503  0.23471363988E+02 -0.10766982160E+03 -0.21715190999E+03  0.24355848872E+03  0.47000000000E+01 0.  1.
         11    1    4    4    0    0  0.17722435532E+02 -0.10156170413E+02 -0.34503876115E+02  0.40096757794E+02  0.00000000000E+00 0. -1.
        -12    1    4    4    0    0 -0.71724637280E+02 -0.37917372385E+02 -0.42319602173E+02  0.91504641684E+02  0.00000000000E+00 0.  1.
</event>
<event>
12    1  0.8196217E-002  0.1855053E+03  0.7818608E-02  0.1164777E+00
         21   -1    0    0  501  502  0.00000000000E+00  0.00000000000E+00  0.19292707145E+03  0.19292707145E+03  0.00000000000E+00 0. -1.
         21   -1    0    0  502  503 -0.00000000000E+00 -0.00000000000E+00 -0.29148151291E+03  0.29148151291E+03  0.00000000000E+00 0. -1.
         -6    2    1    2    0  503 -0.27198990567E+02  0.29879278930E+01 -0.20511407165E+03  0.27047594191E+03  0.17417445267E+03 0.  0.
        -24    2    3    3    0    0 -0.75831199263E+02  0.32374358267E+02 -0.10573133788E+03  0.15589988951E+03  0.79543635095E+02 0.  0.
          6    2    1    2  501    0  0.27198990567E+02 -0.29879278930E+01  0.10655963019E+03  0.21393264245E+03  0.18347617807E+03 0.  0.
         24    2    5    5    0    0  0.76551116084E+02  0.26675629965E+02  0.28237692754E+02  0.11660857122E+03  0.78921030034E+02 0.  0.
          5    1    5    5  501    0 -0.49352125518E+02 -0.29663557858E+02  0.78321937432E+02  0.97324071231E+02  0.47000000000E+01 0. -1.
        -13    1    6    6    0    0  0.44727501744E+02 -0.93275897017E+01 -0.18762875987E+02  0.49392295524E+02  0.00000000000E+00 0.  1.
         14    1    6    6    0    0  0.31823614341E+02  0.36003219667E+02  0.47000568741E+02  0.67216275693E+02  0.00000000000E+00 0. -1.
         -5    1    3    3    0  503  0.48632208696E+02 -0.29386430374E+02 -0.99382733774E+02  0.11457605241E+03  0.47000000000E+01 0.  1.
         11    1    4    4    0    0 -0.67128221045E+02 -0.12797639765E+02 -0.67964886299E+02  0.96380513663E+02  0.00000000000E+00 0. -1.
        -12    1    4    4    0    0 -0.87029782174E+01  0.45171998032E+02 -0.37766451577E+02  0.59519375843E+02  0.00000000000E+00 0.  1.
</event>
<event>
12    1  0.8196217E-002  0.2091427E+03  0.7818608E-02  0.1142588E+00
         21   -1    0    0  503  502  0.00000000000E+00  0.00000000000E+00  0.56419473488E+03  0.56419473488E+03  0.00000000000E+00 0.  1.
         21   -1    0    0  501  503 -0.00000000000E+00 -0.00000000000E+00 -0.17570818189E+03  0.17570818189E+03  0.00000000000E+00 0. -1.
          6    2    1    2  501    0  0.29208171001E+02 -0.11295808782E+03 -0.83534981027E+02  0.22362296487E+03  0.17151236254E+03 0.  0.
         24    2    3    3    0    0  0.97089985523E+01 -0.13792256388E+03 -0.23644213636E+02  0.15570804155E+03  0.67594726747E+02 0.  0.
         -6    2    1    2    0  502 -0.29208171001E+02  0.11295808782E+03  0.47202153402E+03  0.51627995189E+03  0.17357422991E+03 0.  0.
        -24    2    5    5    0    0 -0.21331909401E+01  0.50647828586E+02  0.90891885583E+02  0.12911393857E+03  0.76415451478E+02 0.  0.
          5    1    3    3  501    0  0.19499172448E+02  0.24964476061E+02 -0.59890767391E+02  0.67914923322E+02  0.47000000000E+01 0. -1.
        -11    1    4    4    0    0  0.26952401403E+02 -0.62184701448E+02  0.14289281381E+02  0.69264367448E+02  0.00000000000E+00 0.  1.
         12    1    4    4    0    0 -0.17243402851E+02 -0.75737862436E+02 -0.37933495017E+02  0.86443674103E+02  0.00000000000E+00 0. -1.
         -5    1    5    5    0  502 -0.27074980061E+02  0.62310259237E+02  0.38112964844E+03  0.38716601332E+03  0.47000000000E+01 0.  1.
         11    1    6    6    0    0 -0.18975380026E+02 -0.14434032084E+02  0.30769756644E+02  0.38925367735E+02  0.00000000000E+00 0. -1.
        -12    1    6    6    0    0  0.16842189086E+02  0.65081860670E+02  0.60122128939E+02  0.90188570837E+02  0.00000000000E+00 0.  1.
</event>
<event>
12    1  0.8196217E-002  0.1932931E+03  0.7818608E-02  0.1155684E+00
         21   -1    0    0  503  502  0.00000000000E+00  0.00000000000E+00  0.17703915359E+03  0.17703915359E+03  0.00000000000E+00 0.  1.
         21   -1    0    0  501  503 -0.00000000000E+00 -0.00000000000E+00 -0.21398837417E+04  0.21398837417E+04  0.00000000000E+00 0.  1.
          6    2    1    2  501    0  0.74347728835E+02 -0.47257229653E+02 -0.20816808051E+04  0.20906355989E+04  0.17205058139E+03 0.  0.
         24    2    3    3    0    0  0.97572366100E+02 -0.90763079288E+01 -0.98330344232E+03  0.99133942061E+03  0.79154539836E+02 0.  0.
         -6    2    1    2    0  502 -0.74347728835E+02  0.47257229653E+02  0.11883621693E+03  0.22628729644E+03  0.17123978375E+03 0.  0.
        -24    2    5    5    0    0 -0.11203976095E+02  0.87899678192E+02  0.77814488780E+02  0.14059123869E+03  0.76543577305E+02 0.  0.
          5    1    3    3  501    0 -0.23224637265E+02 -0.38180921725E+02 -0.10983773628E+04  0.10992961783E+04  0.47000000000E+01 0. -1.
        -13    1    4    4    0    0  0.34289555785E+02 -0.40752878518E+02 -0.51021635152E+03  0.51298859257E+03  0.00000000000E+00 0.  1.
         14    1    4    4    0    0  0.63282810315E+02  0.31676570589E+02 -0.47308709080E+03  0.47835082804E+03  0.00000000000E+00 0. -1.
         -5    1    5    5    0  502 -0.63143752740E+02 -0.40642448539E+02  0.41021728150E+02  0.85696057749E+02  0.47000000000E+01 0.  1.
         13    1    6    6    0    0 -0.92925700681E+01 -0.11803046429E+02  0.16531280380E+01  0.15112795764E+02  0.00000000000E+00 0. -1.
        -14    1    6    6    0    0 -0.19114060267E+01  0.99702724622E+02  0.76161360742E+02  0.12547844293E+03  0.00000000000E+00 0.  1.
</event>
<event>
12    1  0.8196217E-002  0.1991235E+03  0.7818608E-02  0.1150776E+00
         21   -1    0    0  501  502  0.00000000000E+00  0.00000000000E+00  0.39288666210E+02  0.39288666210E+02  0.00000000000E+00 0.  1.
         21   -1    0    0  502  503 -0.00000000000E+00 -0.00000000000E+00 -0.10067474857E+04  0.10067474857E+04  0.00000000000E+00 0. -1.
         -6    2    1    2    0  503 -0.57483276655E+02  0.81023857563E+02 -0.45017970276E+03  0.49225188022E+03  0.17257159736E+03 0.  0.
        -24    2    3    3    0    0  0.20066233728E+02 -0.60872603610E+01 -0.19444761615E+03  0.21114111282E+03  0.79567490986E+02 0.  0.
          6    2    1    2  501    0  0.57483276655E+02 -0.81023857563E+02 -0.51727911674E+03  0.55378427169E+03  0.17096824962E+03 0.  0.
         24    2    5    5    0    0  0.98384581519E+02 -0.46888671286E+02 -0.28659111797E+03  0.31697808415E+03  0.80390071282E+02 0.  0.
          5    1    5    5  501    0 -0.40901304864E+02 -0.34135186277E+02 -0.23068799877E+03  0.23680618754E+03  0.47000000000E+01 0. -1.
        -13    1    6    6    0    0  0.84804040882E+02 -0.59958995050E+02 -0.27699792479E+03  0.29582876259E+03  0.00000000000E+00 0.  1.
         14    1    6    6    0    0  0.13580540638E+02  0.13070323763E+02 -0.95931931755E+01  0.21149321563E+02  0.00000000000E+00 0. -1.
         -5    1    3    3    0  503 -0.77549510384E+02  0.87111117924E+02 -0.25573208661E+03  0.28111076740E+03  0.47000000000E+01 0.  1.
         11    1    4    4    0    0 -0.22599380072E+02 -0.11532830725E+02 -0.13725268767E+03  0.13957807291E+03  0.00000000000E+00 0. -1.
        -12    1    4    4    0    0  0.42665613800E+02  0.54455703642E+01 -0.57194928475E+02  0.71563039908E+02  0.00000000000E+00 0.  1.
</event>
<event>
12    1  0.8196217E-002  0.1940875E+03  0.7818608E-02  0.1155114E+00
         21   -1    0    0  503  502  0.00000000000E+00  0.00000000000E+00  0.57932027501E+03  0.57932027501E+03  0.00000000000E+00 0. -1.
         21   -1    0    0  501  503 -0.00000000000E+00 -0.00000000000E+00 -0.82764543237E+02  0.82764543237E+02  0.00000000000E+00 0. -1.
          6    2    1    2  501    0  0.88806737435E+02  0.14433377665E+02  0.92475728597E+02  0.21380967209E+03  0.17049298078E+03 0.  0.
         24    2    3    3    0    0  0.87388139345E+01 -0.46435871718E+02  0.33275161683E+02  0.97007553032E+02  0.77913874945E+02 0.  0.
         -6    2    1    2    0  502 -0.88806737435E+02 -0.14433377665E+02  0.40408000318E+03  0.44827514616E+03  0.17197383141E+03 0.  0.
        -24    2    5    5    0    0 -0.68069191117E+01  0.25136272157E+02  0.30082966814E+03  0.31053463259E+03  0.72492085630E+02 0.  0.
          5    1    3    3  501    0  0.80067923500E+02  0.60869249383E+02  0.59200566914E+02  0.11680211906E+03  0.47000000000E+01 0. -1.
        -13    1    4    4    0    0 -0.24442994076E+02  0.93504227672E+01  0.10915117914E+02  0.28355425661E+02  0.00000000000E+00 0.  1.
         14    1    4    4    0    0  0.33181808011E+02 -0.55786294485E+02  0.22360043769E+02  0.68652127371E+02  0.00000000000E+00 0. -1.
         -5    1    5    5    0  502 -0.81999818323E+02 -0.39569649822E+02  0.10325033504E+03  0.13774051357E+03  0.47000000000E+01 0.  1.
         11    1    6    6    0    0  0.29184780166E+02 -0.52753141400E+01  0.12860788020E+03  0.13198320795E+03  0.00000000000E+00 0. -1.
        -12    1    6    6    0    0 -0.35991699277E+02  0.30411586297E+02  0.17222178794E+03  0.17855142463E+03  0.00000000000E+00 0.  1.
</event>
<event>
12    1  0.8196217E-002  0.2182091E+03  0.7818608E-02  0.1136704E+00
         21   -1    0    0  503  502  0.00000000000E+00  0.00000000000E+00  0.62691984254E+03  0.62691984254E+03  0.00000000000E+00 0.  1.
         21   -1    0    0  501  503 -0.00000000000E+00 -0.00000000000E+00 -0.28503958235E+03  0.28503958235E+03  0.00000000000E+00 0.  1.
          6    2    1    2  501    0 -0.69644928425E+02 -0.11451899219E+03 -0.22126066986E+03  0.31075955805E+03  0.17219234380E+03 0.  0.
         24    2    3    3    0    0 -0.11601373992E+03 -0.81765885025E+02 -0.16785638850E+03  0.23267665354E+03  0.76274570707E+02 0.  0.
         -6    2    1    2    0  502  0.69644928425E+02  0.11451899219E+03  0.56314093006E+03  0.60119986684E+03  0.16232238650E+03 0.  0.
        -24    2    5    5    0    0  0.30056691256E+02  0.10642193293E+03  0.24628392323E+03  0.28174213307E+03  0.80584280156E+02 0.  0.
          5    1    3    3  501    0  0.46368811499E+02 -0.32753107165E+02 -0.53404281361E+02  0.78082904509E+02  0.47000000000E+01 0. -1.
        -13    1    4    4    0    0 -0.22975195293E+02 -0.33031066144E+01 -0.78034502509E+02  0.81413473663E+02  0.00000000000E+00 0.  1.
         14    1    4    4    0    0 -0.93038544631E+02 -0.78462778410E+02 -0.89821885989E+02  0.15126317987E+03  0.00000000000E+00 0. -1.
         -5    1    5    5    0  502  0.39588237169E+02  0.80970592591E+01  0.31685700683E+03  0.31945773377E+03  0.47000000000E+01 0.  1.
         11    1    6    6    0    0 -0.14861448659E+02 -0.16704399608E+01  0.98163492077E+01  0.17888927795E+02  0.00000000000E+00 0. -1.
        -12    1    6    6    0    0  0.44918139914E+02  0.10809237289E+03  0.23646757402E+03  0.26385320528E+03  0.00000000000E+00 0.  1.
</event>
<event>
12    1  0.8196217E-002  0.1801239E+03  0.7818608E-02  0.1167842E+00
         21   -1    0    0  501  502  0.00000000000E+00  0.00000000000E+00  0.74865719914E+02  0.74865719914E+02  0.00000000000E+00 0.  1.
         21   -1    0    0  502  503 -0.00000000000E+00 -0.00000000000E+00 -0.49731268162E+03  0.49731268162E+03  0.00000000000E+00 0.  1.
         -6    2    1    2    0  503  0.51849682763E+02 -0.16288398542E+02 -0.31472801526E+03  0.36230223796E+03  0.17104235299E+03 0.  0.
        -24    2    3    3    0    0  0.31574545711E+02 -0.29480600574E+02 -0.32370073344E+03  0.33607791626E+03  0.79373441538E+02 0.  0.
          6    2    1    2  501    0 -0.51849682763E+02  0.16288398542E+02 -0.10771894645E+03  0.20987616357E+03  0.17172923770E+03 0.  0.
         24    2    5    5    0    0 -0.47714054068E+02  0.65454028240E+02 -0.11286509968E+03  0.16004710116E+03  0.79471272137E+02 0.  0.
          5    1    5    5  501    0 -0.41356286951E+01 -0.49165629699E+02  0.51461532231E+01  0.49829062417E+02  0.47000000000E+01 0. -1.
        -11    1    6    6    0    0 -0.66884589574E+01 -0.87765628027E+01  0.71055881106E+01  0.13124516001E+02  0.00000000000E+00 0.  1.
         12    1    6    6    0    0 -0.41025595111E+02  0.74230591043E+02 -0.11997068779E+03  0.14692258516E+03  0.00000000000E+00 0. -1.
         -5    1    3    3    0  503  0.20275137052E+02  0.13192202033E+02  0.89727181876E+01  0.26224321700E+02  0.47000000000E+01 0.  1.
         11    1    4    4    0    0 -0.22167364099E+02 -0.75864152265E+01 -0.17318902680E+03  0.17476665795E+03  0.00000000000E+00 0. -1.
        -12    1    4    4    0    0  0.53741909810E+02 -0.21894185348E+02 -0.15051170664E+03  0.16131125831E+03  0.00000000000E+00 0.  1.
</event>
<event>
12    1  0.8196217E-002  0.1797952E+03  0.7818608E-02  0.1170144E+00
         21   -1    0    0  503  502  0.00000000000E+00  0.00000000000E+00  0.57760736977E+03  0.57760736977E+03  0.00000000000E+00 0.  1.
         21   -1    0    0  501  503 -0.00000000000E+00 -0.00000000000E+00 -0.61664278660E+02  0.61664278660E+02  0.00000000000E+00 0.  1.
          6    2    1    2  501    0  0.34764512836E+02 -0.28960165559E+02  0.13492634749E+03  0.21796407547E+03  0.16509378064E+03 0.  0.
         24    2    3    3    0    0 -0.21004566198E+02 -0.26427234166E+02  0.13616701021E+03  0.16192627428E+03  0.80864535650E+02 0.  0.
         -6    2    1    2    0  502 -0.34764512836E+02  0.28960165559E+02  0.38101674362E+03  0.42130757296E+03  0.17400876292E+03 0.  0.
        -24    2    5    5    0    0 -0.28536537850E+02 -0.56499095772E+01  0.37618216199E+03  0.38550103511E+03  0.79068157954E+02 0.  0.
          5    1    3    3  501    0  0.55769079033E+02 -0.25329313935E+01 -0.12406627261E+01  0.56037801185E+02  0.47000000000E+01 0. -1.
        -13    1    4    4    0    0 -0.33694493903E+02 -0.49224161165E+02  0.78167577414E+02  0.98328567164E+02  0.00000000000E+00 0.  1.
         14    1    4    4    0    0  0.12689927705E+02  0.22796926999E+02  0.57999432798E+02  0.63597707118E+02  0.00000000000E+00 0. -1.
         -5    1    5    5    0  502 -0.62279749860E+01  0.34610075137E+02  0.48345816362E+01  0.35806537853E+02  0.47000000000E+01 0.  1.
         11    1    6    6    0    0 -0.11013116550E+02 -0.36676615051E+02  0.28570341647E+03  0.28825839972E+03  0.00000000000E+00 0. -1.
        -12    1    6    6    0    0 -0.17523421300E+02  0.31026705474E+02  0.90478745514E+02  0.97242635384E+02  0.00000000000E+00 0.  1.
</event>
<event>
12    1  0.8196217E-002  0.1941529E+03  0.7818608E-02  0.1154796E+00
         21   -1    0    0  501  502  0.00000000000E+00  0.00000000000E+00  0.10833355672E+03  0.10833355672E+03  0.00000000000E+00 0.  1.
         21   -1    0    0  502  503 -0.00000000000E+00 -0.00000000000E+00 -0.37618767302E+03  0.37618767302E+03  0.00000000000E+00 0.  1.
         -6    2    1    2    0  503 -0.78971628579E+02 -0.43008331740E+02 -0.20051792979E+03  0.27902304589E+03  0.17193075713E+03 0.  0.
        -24    2    3    3    0    0 -0.10029349339E+03 -0.75574634039E+02 -0.12618818597E+03  0.19498622788E+03  0.79535279315E+02 0.  0.
          6    2    1    2  501    0  0.78971628579E+02  0.43008331740E+02 -0.67336186503E+02  0.20549818385E+03  0.17207296950E+03 0.  0.
         24    2    5    5    0    0  0.31072030261E+02  0.16802535502E+02  0.29596270559E+02  0.94146908567E+02  0.82096923802E+02 0.  0.
          5    1    5    5  501    0  0.47899598317E+02  0.26205796238E+02 -0.96932457062E+02  0.11135127528E+03  0.47000000000E+01 0. -1.
        -13    1    6    6    0    0  0.45565184878E+02  0.22701222951E+02 -0.97240448590E+01  0.51827489278E+02  0.00000000000E+00 0.  1.
         14    1    6    6    0    0 -0.14493154616E+02 -0.58986874489E+01  0.39320315418E+02  0.42319419289E+02  0.00000000000E+00 0. -1.
         -5    1    3    3    0  503  0.21321864816E+02  0.32566302299E+02 -0.74329743820E+02  0.84036818009E+02  0.47000000000E+01 0.  1.
         11    1    4    4    0    0 -0.72744491148E+02 -0.43880320930E+02 -0.30111447491E+02  0.90132917557E+02  0.00000000000E+00 0. -1.
        -12    1    4    4    0    0 -0.27549002247E+02 -0.31694313109E+02 -0.96076738480E+02  0.10485331032E+03  0.00000000000E+00 0.  1.
</event>
<event>
12    1  0.8196217E-002  0.1989433E+03  0.7818608E-02  0.1150664E+00
         21   -1    0    0  503  502  0.00000000000E+00  0.00000000000E+00  0.18408605392E+03  0.18408605392E+03  0.00000000000E+00 0. -1.
         21   -1    0    0  501  503 -0.00000000000E+00 -0.00000000000E+00 -0.43729287506E+03  0.43729287506E+03  0.00000000000E+00 0. -1.
          6    2    1    2  501    0  0.82810537550E+02  0.54582111290E+02 -0.34821718263E+03  0.40104068955E+03  0.17245763651E+03 0.  0.
         24    2    3    3    0    0  0.37687143091E+02  0.94325346080E+02 -0.28938918769E+03  0.31678828051E+03  0.79316587495E+02 0.  0.
         -6    2    1    2    0  502 -0.82810537550E+02 -0.54582111290E+02  0.95010361499E+02  0.22033823943E+03  0.17229387384E+03 0.  0.
        -24    2    5    5    0    0 -0.21535629113E+02 -0.18672829994E+02  0.11822832181E+03  0.14546999137E+03  0.79819323530E+02 0.  0.
          5    1    3    3  501    0  0.45123394459E+02 -0.39743234790E+02 -0.58827994945E+02  0.84252409036E+02  0.47000000000E+01 0. -1.
        -11    1    4    4    0    0  0.42100810351E+01  0.77570498779E+02 -0.11742237414E+03  0.14079389551E+03  0.00000000000E+00 0.  1.
         12    1    4    4    0    0  0.33477062056E+02  0.16754847300E+02 -0.17196681354E+03  0.17599438500E+03  0.00000000000E+00 0. -1.
         -5    1    5    5    0  502 -0.61274908437E+02 -0.35909281296E+02 -0.23217960313E+02  0.74868248064E+02  0.47000000000E+01 0.  1.
         13    1    6    6    0    0 -0.22735051800E+02 -0.38742982937E+02  0.27786732586E+02  0.52820486698E+02  0.00000000000E+00 0. -1.
        -14    1    6    6    0    0  0.11994226868E+01  0.20070152943E+02  0.90441589226E+02  0.92649504671E+02  0.00000000000E+00 0.  1.
</event>
<event>
12    1  0.8196217E-002  0.1841756E+03  0.7818608E-02  0.1163933E+00
         21   -1    0    0  501  502  0.00000000000E+00  0.00000000000E+00  0.35186661302E+02  0.35186661302E+02  0.00000000000E+00 0. -1.
         21   -1    0    0  502  503 -0.00000000000E+00 -0.00000000000E+00 -0.10569333807E+04  0.10569333807E+04  0.00000000000E+00 0. -1.
         -6    2    1    2    0  503 -0.42406584706E+02  0.51726212989E+02 -0.34622533768E+03  0.39194165702E+03  0.17109166700E+03 0.  0.
        -24    2    3    3    0    0 -0.10397778114E+02 -0.26430947330E+02 -0.96966090773E+02  0.12872051885E+03  0.79748607808E+02 0.  0.
          6    2    1    2  501    0  0.42406584706E+02 -0.51726212989E+02 -0.67552138174E+03  0.70017838501E+03  0.17160044902E+03 0.  0.
         24    2    5    5    0    0  0.85944813213E+02 -0.15734219143E+01 -0.45044939199E+03  0.46546500583E+03  0.79774872821E+02 0.  0.
          5    1    5    5  501    0 -0.43538228507E+02 -0.50152791074E+02 -0.22507198975E+03  0.23471337917E+03  0.47000000000E+01 0. -1.
        -13    1    6    6    0    0  0.23519492246E+02  0.36438050520E+02 -0.14202944661E+03  0.14850340651E+03  0.00000000000E+00 0.  1.
         14    1    6    6    0    0  0.62425320967E+02 -0.38011472434E+02 -0.30841994538E+03  0.31696159932E+03  0.00000000000E+00 0. -1.
         -5    1    3    3    0  503 -0.32008806592E+02  0.78157160319E+02 -0.24925924691E+03  0.26322113817E+03  0.47000000000E+01 0.  1.
         13    1    4    4    0    0 -0.45350371426E+02 -0.17087562340E+02 -0.56625123658E+02  0.74532178316E+02  0.00000000000E+00 0. -1.
        -14    1    4    4    0    0  0.34952593312E+02 -0.93433849897E+01 -0.40340967115E+02  0.54188340537E+02  0.00000000000E+00 0.  1.
</event>
<event>
12    1  0.8196217E-002  0.1821337E+03  0.7818608E-02  0.1166824E+00
         21   -1    0    0  503  502  0.00000000000E+00  0.00000000000E+00  0.18465316220E+03  0.18465316220E+03  0.00000000000E+00 0.  1.
         21   -1    0    0  501  503 -0.00000000000E+00 -0.00000000000E+00 -0.26349792980E+03  0.26349792980E+03  0.00000000000E+00 0.  1.
          6    2    1    2  501    0  0.42283865283E+02 -0.25531226369E+02 -0.16872904239E+03  0.24504554664E+03  0.17069874457E+03 0.  0.
         24    2    3    3    0    0  0.50382272576E+01  0.38325064321E+02 -0.42068431716E+02  0.98314964588E+02  0.80011780544E+02 0.  0.
         -6    2    1    2    0  502 -0.42283865283E+02  0.25531226369E+02  0.89884274795E+02  0.20310554536E+03  0.17530804578E+03 0.  0.
        -24    2    5    5    0    0  0.40219651613E+02  0.73673394380E+01  0.73602053992E+02  0.11694315331E+03  0.81157505435E+02 0.  0.
          5    1    3    3  501    0  0.37245638025E+02 -0.63856290690E+02 -0.12666061068E+03  0.14673058206E+03  0.47000000000E+01 0. -1.
        -11    1    4    4    0    0 -0.61328148858E+01 -0.11844920978E+02 -0.44899068154E+02  0.46838444599E+02  0.00000000000E+00 0.  1.
         12    1    4    4    0    0  0.11171042143E+02  0.50169985300E+02  0.28306364382E+01  0.51476519989E+02  0.00000000000E+00 0. -1.
         -5    1    5    5    0  502 -0.82503516896E+02  0.18163886931E+02  0.16282220803E+02  0.86162392045E+02  0.47000000000E+01 0.  1.
         13    1    6    6    0    0 -0.11609825885E+02 -0.22945868539E+02  0.57719398354E+01  0.26355573026E+02  0.00000000000E+00 0. -1.
        -14    1    6    6    0    0  0.51829477498E+02  0.30313207977E+02  0.67830114157E+02  0.90587580286E+02  0.00000000000E+00 0.  1.
</event>
<event>
12    1  0.8196217E-002  0.1967690E+03  0.7818608E-02  0.1152573E+00
         21   -1    0    0  501  502  0.00000000000E+00  0.00000000000E+00  0.18440163238E+03  0.18440163238E+03  0.00000000000E+00 0.  1.
         21   -1    0    0  502  503 -0.00000000000E+00 -0.00000000000E+00 -0.28235151288E+03  0.28235151288E+03  0.00000000000E+00 0.  1.
         -6    2    1    2    0  503 -0.20684497433E+02 -0.92855553770E+02 -0.16742361455E+03  0.25807964483E+03  0.17182675597E+03 0.  0.
        -24    2    3    3    0    0 -0.43847333635E+02 -0.30722233890E+02 -0.16592050603E+03  0.19158591765E+03  0.79429875973E+02 0.  0.
          6    2    1    2  501    0  0.20684497433E+02  0.92855553770E+02  0.69473734050E+02  0.20867350042E+03  0.17224409353E+03 0.  0.
         24    2    5    5    0    0 -0.46204110471E+02  0.43174607932E+02  0.11227857036E+02  0.10690437723E+03  0.85461187109E+02 0.  0.
          5    1    5    5  501    0  0.66888607904E+02  0.49680945838E+02  0.58245877014E+02  0.10176912319E+03  0.47000000000E+01 0. -1.
        -11    1    6    6    0    0 -0.17853530785E+02 -0.94551240159E+01 -0.28640895902E+02  0.35049234652E+02  0.00000000000E+00 0.  1.
         12    1    6    6    0    0 -0.28350579686E+02  0.52629731948E+02  0.39868752938E+02  0.71855142574E+02  0.00000000000E+00 0. -1.
         -5    1    3    3    0  503  0.23162836203E+02 -0.62133319880E+02 -0.15031085227E+01  0.66493727189E+02  0.47000000000E+01 0.  1.
         13    1    4    4    0    0 -0.20668581640E+02 -0.35856860996E+02 -0.16239377674E+03  0.16758473519E+03  0.00000000000E+00 0. -1.
        -14    1    4    4    0    0 -0.23178751995E+02  0.51346271057E+01 -0.35267292931E+01  0.24001182452E+02  0.00000000000E+00 0.  1.
</event>
<event>
12    1  0.8196217E-002  0.2763524E+03  0.7818608E-02  0.1097807E+00
         21   -1    0    0  503  502  0.00000000000E+00  0.00000000000E+00  0.66684885054E+03  0.66684885054E+03  0.00000000000E+00 0.  1.
         21   -1    0    0  501  503 -0.00000000000E+00 -0.00000000000E+00 -0.13033215324E+03  0.13033215324E+03  0.00000000000E+00 0.  1.
          6    2    1    2  501    0  0.10347283774E+03 -0.18922241744E+03  0.40882811934E+03  0.49346841519E+03  0.17279726336E+03 0.  0.
         24    2    3    3    0    0  0.61270591926E+02 -0.19241736468E+03  0.39055955430E+03  0.44713195322E+03  0.81312302084E+02 0.  0.
         -6    2    1    2    0  502 -0.10347283774E+03  0.18922241744E+03  0.12768857796E+03  0.30371258859E+03  0.17153778627E+03 0.  0.
        -24    2    5    5    0    0 -0.34191377155E+02  0.14888505870E+03  0.25865791018E+02  0.17403223838E+03  0.79261402173E+02 0.  0.
          5    1    3    3  501    0  0.42202245812E+02  0.31949472443E+01  0.18268565033E+02  0.46336461970E+02  0.47000000000E+01 0. -1.
        -11    1    4    4    0    0  0.42740855939E+02 -0.80209544351E+02  0.25192428504E+03  0.26781746986E+03  0.00000000000E+00 0.  1.
         12    1    4    4    0    0  0.18529735986E+02 -0.11220782033E+03  0.13863526927E+03  0.17931448336E+03  0.00000000000E+00 0. -1.
         -5    1    5    5    0  502 -0.69281460583E+02  0.40337358734E+02  0.10182278694E+03  0.12968035021E+03  0.47000000000E+01 0.  1.
         13    1    6    6    0    0 -0.29146369312E+01 -0.60186711348E+01  0.14051339789E+02  0.15561480024E+02  0.00000000000E+00 0. -1.
        -14    1    6    6    0    0 -0.31276740224E+02  0.15490372984E+03  0.11814451229E+02  0.15847075836E+03  0.00000000000E+00 0.  1.
</event>
<event>
12    1  0.8196217E-002  0.2239469E+03  0.7818608E-02  0.1131059E+00
         21   -1    0    0  501  502  0.00000000000E+00  0.00000000000E+00  0.79765087050E+02  0.79765087050E+02  0.00000000000E+00 0.  1.
         21   -1    0    0  502  503 -0.00000000000E+00 -0.00000000000E+00 -0.68221251839E+03  0.68221251839E+03  0.00000000000E+00 0.  1.
         -6    2    1    2    0  503 -0.75238576838E+02  0.12067979054E+03 -0.40945964772E+03  0.46670056753E+03  0.17299642001E+03 0.  0.
        -24    2    3    3    0    0 -0.38836732131E+02  0.11423116146E+03 -0.40354722187E+03  0.42896827507E+03  0.81279583694E+02 0.  0.
          6    2    1    2  501    0  0.75238576838E+02 -0.12067979054E+03 -0.19298778362E+03  0.29527703791E+03  0.17239428413E+03 0.  0.
         24    2    5    5    0    0  0.54157894687E+01 -0.39905939212E+02 -0.15841891713E+03  0.18295280533E+03  0.82178834949E+02 0.  0.
          5    1    5    5  501    0  0.69822787369E+02 -0.80773851324E+02 -0.34568866488E+02  0.11232423258E+03  0.47000000000E+01 0. -1.
        -13    1    6    6    0    0 -0.15257168903E+02 -0.51421057792E+02 -0.14738817298E+03  0.15684444498E+03  0.00000000000E+00 0.  1.
         14    1    6    6    0    0  0.20672958372E+02  0.11515118580E+02 -0.11030744157E+02  0.26108360355E+02  0.00000000000E+00 0. -1.
         -5    1    3    3    0  503 -0.36401844707E+02  0.64486290789E+01 -0.59124258488E+01  0.37732292463E+02  0.47000000000E+01 0.  1.
         11    1    4    4    0    0 -0.37605287127E+02  0.91823174766E+02 -0.39071307743E+03  0.40311581701E+03  0.00000000000E+00 0. -1.
        -12    1    4    4    0    0 -0.12314450038E+01  0.22407986691E+02 -0.12834144436E+02  0.25852458060E+02  0.00000000000E+00 0.  1.
</event>
<event>
12    1  0.8196217E-002  0.1810938E+03  0.7818608E-02  0.1168282E+00
         21   -1    0    0  503  502  0.00000000000E+00  0.00000000000E+00  0.35887071384E+03  0.35887071384E+03  0.00000000000E+00 0. -1.
         21   -1    0    0  501  503 -0.00000000000E+00 -0.00000000000E+00 -0.26672107733E+03  0.26672107733E+03  0.00000000000E+00 0. -1.
          6    2    1    2  501    0  0.12723322932E+02  0.55848700494E+02 -0.21005055798E+03  0.27328521601E+03  0.16517448982E+03 0.  0.
         24    2    3    3    0    0  0.24912470981E+02  0.50768465489E+02 -0.22966949288E+03  0.24917346111E+03  0.78366252078E+02 0.  0.
         -6    2    1    2    0  502 -0.12723322932E+02 -0.55848700494E+02  0.30220019449E+03  0.35230657516E+03  0.17179640584E+03 0.  0.
        -24    2    5    5    0    0 -0.56841884509E+02 -0.83137045144E+02  0.23515752409E+03  0.26740715889E+03  0.77876565019E+02 0.  0.
          5    1    3    3  501    0 -0.12189148049E+02  0.50802350054E+01  0.19618934897E+02  0.24111754900E+02  0.47000000000E+01 0. -1.
        -11    1    4    4    0    0  0.87364753666E+01  0.51179368527E+02 -0.62630369979E+02  0.81352424723E+02  0.00000000000E+00 0.  1.
         12    1    4    4    0    0  0.16175995614E+02 -0.41090303812E+00 -0.16703912290E+03  0.16782103639E+03  0.00000000000E+00 0. -1.
         -5    1    5    5    0  502  0.44118561577E+02  0.27288344650E+02  0.67042670399E+02  0.84899416274E+02  0.47000000000E+01 0.  1.
         11    1    6    6    0    0  0.73889986456E+01 -0.47776225773E+02  0.56931483161E+02  0.74688411584E+02  0.00000000000E+00 0. -1.
        -12    1    6    6    0    0 -0.64230883155E+02 -0.35360819371E+02  0.17822604093E+03  0.19271874731E+03  0.00000000000E+00 0.  1.
</event>
<event>
12    1  0.8196217E-002  0.2480293E+03  0.7818608E-02  0.1114708E+00
         21   -1    0    0  503  502  0.00000000000E+00  0.00000000000E+00  0.17359341324E+03  0.17359341324E+03  0.00000000000E+00 0.  1.
         21   -1    0    0  501  503 -0.00000000000E+00 -0.00000000000E+00 -0.40394825885E+03  0.40394825885E+03  0.00000000000E+00 0.  1.
          6    2    1    2  501    0 -0.13032295486E+03  0.12203897130E+03 -0.12849567221E+02  0.24836194340E+03  0.17216550314E+03 0.  0.
         24    2    3    3    0    0 -0.24822498346E+02  0.92064910435E+02  0.35548352693E+02  0.12839011628E+03  0.78283027672E+02 0.  0.
         -6    2    1    2    0  502  0.13032295486E+03 -0.12203897130E+03 -0.21750527839E+03  0.32917972869E+03  0.17080153563E+03 0.  0.
        -24    2    5    5    0    0  0.12738717316E+03 -0.36758046582E+02 -0.17439422575E+03  0.23346082881E+03  0.80696757931E+02 0.  0.
          5    1    3    3  501    0 -0.10550045652E+03  0.29974060862E+02 -0.48397919914E+02  0.11997182712E+03  0.47000000000E+01 0. -1.
        -11    1    4    4    0    0 -0.53346342579E+02  0.56099048183E+02  0.20493895543E+02  0.80080804367E+02  0.00000000000E+00 0.  1.
         12    1    4    4    0    0  0.28523844233E+02  0.35965862252E+02  0.15054457150E+02  0.48309311912E+02  0.00000000000E+00 0. -1.
         -5    1    5    5    0  502  0.29357817048E+01 -0.85280924715E+02 -0.43111052643E+02  0.95718899881E+02  0.47000000000E+01 0.  1.
         13    1    6    6    0    0  0.18627391512E+02 -0.32532430088E+02 -0.14840314826E+02  0.40318403566E+02  0.00000000000E+00 0. -1.
        -14    1    6    6    0    0  0.10875978165E+03 -0.42256164938E+01 -0.15955391092E+03  0.19314242524E+03  0.00000000000E+00 0.  1.
</event>
<event>
12    1  0.8196217E-002  0.2256112E+03  0.7818608E-02  0.1130554E+00
         21   -1    0    0  501  502  0.00000000000E+00  0.00000000000E+00  0.61349713962E+03  0.61349713962E+03  0.00000000000E+00 0.  1.
         21   -1    0    0  502  503 -0.00000000000E+00 -0.00000000000E+00 -0.11773328102E+03  0.11773328102E+03  0.00000000000E+00 0.  1.
         -6    2    1    2    0  503  0.11675848083E+03  0.80904717892E+02  0.43095591378E+02  0.22545479437E+03  0.16968947548E+03 0.  0.
        -24    2    3    3    0    0  0.11710018179E+03  0.10575470362E+03  0.36463708046E+01  0.17859362117E+03  0.83581550528E+02 0.  0.
          6    2    1    2  501    0 -0.11675848083E+03 -0.80904717892E+02  0.45266826721E+03  0.50577562626E+03  0.17527780166E+03 0.  0.
         24    2    5    5    0    0 -0.49721896562E+02 -0.88579442219E+02  0.15895504808E+03  0.20437497908E+03  0.78637396859E+02 0.  0.
          5    1    5    5  501    0 -0.67036584267E+02  0.76747243277E+01  0.29371321914E+03  0.30140064718E+03  0.47000000000E+01 0. -1.
        -11    1    6    6    0    0 -0.62456873941E+02 -0.40395510440E+02  0.11972282153E+03  0.14094755181E+03  0.00000000000E+00 0.  1.
         12    1    6    6    0    0  0.12734977379E+02 -0.48183931779E+02  0.39232226541E+02  0.63427427269E+02  0.00000000000E+00 0. -1.
         -5    1    3    3    0  503 -0.34170096479E+00 -0.24849985729E+02  0.39449220573E+02  0.46861173204E+02  0.47000000000E+01 0.  1.
         11    1    4    4    0    0  0.83800173538E+02  0.48390574772E+02  0.37920089614E+02  0.10393291109E+03  0.00000000000E+00 0. -1.
        -12    1    4    4    0    0  0.33300008256E+02  0.57364128848E+02 -0.34273718809E+02  0.74660710078E+02  0.00000000000E+00 0.  1.
</event>
<event>
12    1  0.8196217E-002  0.1849993E+03  0.7818608E-02  0.1163188E+00
         21   -1    0    0  501  502  0.00000000000E+00  0.00000000000E+00  0.12951683903E+03  0.12951683903E+03  0.00000000000E+00 0. -1.
         21   -1    0    0  502  503 -0.00000000000E+00 -0.00000000000E+00 -0.11389224311E+04  0.11389224311E+04  0.00000000000E+00 0. -1.
         -6    2    1    2    0  503 -0.69190376130E+01  0.64474587495E+02 -0.10605795887E+04  0.10764926318E+04  0.17263393863E+03 0.  0.
        -24    2    3    3    0    0  0.19595097000E+02 -0.15023290779E+02 -0.75338136522E+03  0.75803423497E+03  0.80142079003E+02 0.  0.
          6    2    1    2  501    0  0.69190376130E+01 -0.64474587495E+02  0.51173996617E+02  0.19194663838E+03  0.17326248452E+03 0.  0.
         24    2    5    5    0    0  0.18159839020E+02 -0.75005296219E+02 -0.25434917933E+02  0.11366338838E+03  0.79478654955E+02 0.  0.
          5    1    5    5  501    0 -0.11240801407E+02  0.10530708724E+02  0.76608914550E+02  0.78283250003E+02  0.47000000000E+01 0. -1.
        -13    1    6    6    0    0 -0.29332125285E+02 -0.46816111015E+02 -0.84905898115E+01  0.55894650367E+02  0.00000000000E+00 0.  1.
         14    1    6    6    0    0  0.47491964305E+02 -0.28189185204E+02 -0.16944328121E+02  0.57768738012E+02  0.00000000000E+00 0. -1.
         -5    1    3    3    0  503 -0.26514134613E+02  0.79497878275E+02 -0.30719822351E+03  0.31845839683E+03  0.47000000000E+01 0.  1.
         11    1    4    4    0    0 -0.28397497538E+02  0.92489367965E+01 -0.24369076004E+03  0.24551404690E+03  0.00000000000E+00 0. -1.
        -12    1    4    4    0    0  0.47992594538E+02 -0.24272227576E+02 -0.50969060519E+03  0.51252018807E+03  0.00000000000E+00 0.  1.
</event>
<event>
12    1  0.8196217E-002  0.2342743E+03  0.7818608E-02  0.1123775E+00
         21   -1    0    0  503  502  0.00000000000E+00  0.00000000000E+00  0.31122872715E+04  0.31122872715E+04  0.00000000000E+00 0.  1.
         21   -1    0    0  501  503 -0.00000000000E+00 -0.00000000000E+00 -0.41072670594E+02  0.41072670594E+02  0.00000000000E+00 0.  1.
          6    2    1    2  501    0 -0.14652728857E+03  0.61252597380E+02  0.34248096919E+03  0.41458801022E+03  0.17137058375E+03 0.  0.
         24    2    3    3    0    0 -0.76849792358E+02  0.76666268777E+02  0.11405677711E+03  0.17523004342E+03  0.76896114050E+02 0.  0.
         -6    2    1    2    0  502  0.14652728857E+03 -0.61252597380E+02  0.27287336317E+04  0.27387719319E+04  0.17222756753E+03 0.  0.
        -24    2    5    5    0    0 -0.30507787024E+01 -0.19655635990E+02  0.11151842255E+04  0.11177637018E+04  0.73240597874E+02 0.  0.
          5    1    3    3  501    0 -0.69677496208E+02 -0.15413671396E+02  0.22842419208E+03  0.23935796680E+03  0.47000000000E+01 0. -1.
        -13    1    4    4    0    0 -0.55118327514E+02  0.44951003401E+01  0.64802827728E+02  0.85191797942E+02  0.00000000000E+00 0.  1.
         14    1    4    4    0    0 -0.21731464844E+02  0.72171168437E+02  0.49253949385E+02  0.90038245473E+02  0.00000000000E+00 0. -1.
         -5    1    5    5    0  502  0.14957806727E+03 -0.41596961390E+02  0.16135494062E+04  0.16210082300E+04  0.47000000000E+01 0.  1.
         13    1    6    6    0    0 -0.20905322188E+02 -0.36718356957E+02  0.41529089849E+03  0.41743478605E+03  0.00000000000E+00 0. -1.
        -14    1    6    6    0    0  0.17854543486E+02  0.17062720967E+02  0.69989332696E+03  0.70032891579E+03  0.00000000000E+00 0.  1.
</event>
<event>
12    1  0.8196217E-002  0.2228142E+03  0.7818608E-02  0.1131997E+00
         21   -1    0    0  501  502  0.00000000000E+00  0.00000000000E+00  0.79951773220E+02  0.79951773220E+02  0.00000000000E+00 0.  1.
         21   -1    0    0  502  503 -0.00000000000E+00 -0.00000000000E+00 -0.11026629952E+04  0.11026629952E+04  0.00000000000E+00 0. -1.
         -6    2    1    2    0  503  0.10287284869E+03 -0.97633946503E+02 -0.90269385193E+03  0.92953306606E+03  0.17047087751E+03 0.  0.
        -24    2    3    3    0    0  0.44994520746E+02  0.45145341941E+01 -0.16592556766E+03  0.18345411068E+03  0.63868840650E+02 0.  0.
          6    2    1    2  501    0 -0.10287284869E+03  0.97633946503E+02 -0.12001737001E+03  0.25308170233E+03  0.17184576934E+03 0.  0.
         24    2    5    5    0    0 -0.11648601639E+03  0.58029953032E+02 -0.32399506685E+02  0.15585632185E+03  0.79404014791E+02 0.  0.
          5    1    5    5  501    0  0.13613167699E+02  0.39603993470E+02 -0.87617863330E+02  0.97225380473E+02  0.47000000000E+01 0. -1.
        -13    1    6    6    0    0 -0.54010762013E+02  0.54398928073E+02  0.14032555500E+02  0.77931498142E+02  0.00000000000E+00 0.  1.
         14    1    6    6    0    0 -0.62475254376E+02  0.36310249588E+01 -0.46432062185E+02  0.77924823711E+02  0.00000000000E+00 0. -1.
         -5    1    3    3    0  503  0.57878327943E+02 -0.10214848070E+03 -0.73676828426E+03  0.74607895537E+03  0.47000000000E+01 0.  1.
         13    1    4    4    0    0  0.22068636121E+02 -0.27511514725E+02 -0.10626789653E+03  0.11196773631E+03  0.00000000000E+00 0. -1.
        -14    1    4    4    0    0  0.22925884625E+02  0.32026048919E+02 -0.59657671136E+02  0.71486374370E+02  0.00000000000E+00 0.  1.
</event>
<event>
12    1  0.8196217E-002  0.2405721E+03  0.7818608E-02  0.1119463E+00
         21   -1    0    0  501  502  0.00000000000E+00  0.00000000000E+00  0.33548967497E+03  0.33548967497E+03  0.00000000000E+00 0.  1.
         21   -1    0    0  502  503 -0.00000000000E+00 -0.00000000000E+00 -0.44992029152E+03  0.44992029152E+03  0.00000000000E+00 0. -1.
         -6    2    1    2    0  503  0.16549250806E+03  0.35601619673E+02 -0.36568399400E+03  0.43755485383E+03  0.17051164505E+03 0.  0.
        -24    2    3    3    0    0  0.47951595847E+02 -0.17595206195E+02 -0.23613021757E+03  0.25465586719E+03  0.80518222924E+02 0.  0.
          6    2    1    2  501    0 -0.16549250806E+03 -0.35601619673E+02  0.25125337745E+03  0.34785511266E+03  0.17093763241E+03 0.  0.
         24    2    5    5    0    0 -0.99292514028E+02 -0.86314433554E+01  0.24396358622E+03  0.27584774723E+03  0.81487686739E+02 0.  0.
          5    1    5    5  501    0 -0.66199994028E+02 -0.26970176318E+02  0.72897912289E+01  0.72007365429E+02  0.47000000000E+01 0. -1.
        -11    1    6    6    0    0 -0.64557965553E+01 -0.29447615446E+02  0.89427315617E+02  0.94372051705E+02  0.00000000000E+00 0.  1.
         12    1    6    6    0    0 -0.92836717473E+02  0.20816172091E+02  0.15453627061E+03  0.18147569552E+03  0.00000000000E+00 0. -1.
         -5    1    3    3    0  503  0.11754091221E+03  0.53196825868E+02 -0.12955377644E+03  0.18289898664E+03  0.47000000000E+01 0.  1.
         11    1    4    4    0    0  0.66481687763E+02 -0.58713865710E+01 -0.12832222275E+03  0.14464052282E+03  0.00000000000E+00 0. -1.
        -12    1    4    4    0    0 -0.18530091916E+02 -0.11723819624E+02 -0.10780799481E+03  0.11001534438E+03  0.00000000000E+00 0.  1.
</event>
<event>
12    1  0.8196217E-002  0.1914877E+03  0.7818608E-02  0.1157459E+00
         21   -1    0    0  503  502  0.00000000000E+00  0.00000000000E+00  0.10615592552E+04  0.10615592552E+04  0.00000000000E+00 0. -1.
         21   -1    0    0  501  503 -0.00000000000E+00 -0.00000000000E+00 -0.34488229941E+02  0.34488229941E+02  0.00000000000E+00 0. -1.
          6    2    1    2  501    0  0.25871934126E+02  0.77120023291E+02  0.47235121318E+03  0.50968933259E+03  0.17335135477E+03 0.  0.
         24    2    3    3    0    0  0.17724474056E+02  0.75456585697E+02  0.17438287000E+03  0.21156792835E+03  0.91344127629E+02 0.  0.
         -6    2    1    2    0  502 -0.25871934126E+02 -0.77120023291E+02  0.55471981210E+03  0.58635815257E+03  0.17171184635E+03 0.  0.
        -24    2    5    5    0    0  0.13904107987E+02 -0.50849065309E+02  0.14859881571E+03  0.17742215455E+03  0.81351467319E+02 0.  0.
          5    1    3    3  501    0  0.81474600702E+01  0.16634375933E+01  0.29796834318E+03  0.29812140424E+03  0.47000000000E+01 0. -1.
        -11    1    4    4    0    0  0.76308217574E+01 -0.60043906076E+01  0.10099570957E+03  0.10146139906E+03  0.00000000000E+00 0.  1.
         12    1    4    4    0    0  0.10093652298E+02  0.81460976305E+02  0.73387160427E+02  0.11010652929E+03  0.00000000000E+00 0. -1.
         -5    1    5    5    0  502 -0.39776042113E+02 -0.26270957982E+02  0.40612099640E+03  0.40893599802E+03  0.47000000000E+01 0.  1.
         13    1    6    6    0    0  0.31245082835E+02 -0.61680986495E+02  0.13809058809E+03  0.15443383637E+03  0.00000000000E+00 0. -1.
        -14    1    6    6    0    0 -0.17340974847E+02  0.10831921186E+02  0.10508227612E+02  0.22988318181E+02  0.00000000000E+00 0.  1.
</event>
<event>
12    1  0.8196217E-002  0.1975628E+03  0.7818608E-02  0.1152546E+00
         21   -1    0    0  503  502  0.00000000000E+00  0.00000000000E+00  0.69944332179E+02  0.69944332179E+02  0.00000000000E+00 0.  1.
         21   -1    0    0  501  503 -0.00000000000E+00 -0.00000000000E+00 -0.57215375997E+03  0.57215375997E+03  0.00000000000E+00 0.  1.
          6    2    1    2  501    0 -0.68798690450E+02 -0.69960745541E+02 -0.18371799919E+03  0.26730765951E+03  0.16755093519E+03 0.  0.
         24    2    3    3    0    0 -0.12808946663E+02 -0.58723404561E+02 -0.18499263947E+03  0.20999410135E+03  0.79137466389E+02 0.  0.
         -6    2    1    2    0  502  0.68798690450E+02  0.69960745541E+02 -0.31849142860E+03  0.37479043264E+03  0.17147394140E+03 0.  0.
        -24    2    5    5    0    0  0.33409654551E+02  0.91959499102E+02 -0.30348955797E+03  0.33025420982E+03  0.85960321165E+02 0.  0.
          5    1    3    3  501    0 -0.55989743787E+02 -0.11237340980E+02  0.12746402758E+01  0.57313558164E+02  0.47000000000E+01 0. -1.
        -13    1    4    4    0    0 -0.41902581403E+02 -0.18353450552E+02 -0.59921539607E+02  0.75387441821E+02  0.00000000000E+00 0.  1.
         14    1    4    4    0    0  0.29093634740E+02 -0.40369954009E+02 -0.12507109986E+03  0.13460665953E+03  0.00000000000E+00 0. -1.
         -5    1    5    5    0  502  0.35389035899E+02 -0.21998753561E+02 -0.15001870625E+02  0.44536222812E+02  0.47000000000E+01 0.  1.
         11    1    6    6    0    0 -0.40011637145E+01 -0.74062061624E+01  0.32210459915E+00  0.84240698099E+01  0.00000000000E+00 0. -1.
        -12    1    6    6    0    0  0.37410818265E+02  0.99365705264E+02 -0.30381166257E+03  0.32183014001E+03  0.00000000000E+00 0.  1.
</event>
<event>
12    1  0.8196217E-002  0.3111548E+03  0.7818608E-02  0.1079870E+00
         21   -1    0    0  503  502  0.00000000000E+00  0.00000000000E+00  0.90192414804E+03  0.90192414804E+03  0.00000000000E+00 0. -1.
         21   -1    0    0  501  503 -0.00000000000E+00 -0.00000000000E+00 -0.30996550153E+03  0.30996550153E+03  0.00000000000E+00 0.  1.
          6    2    1    2  501    0  0.25850123390E+03 -0.17641523017E+02 -0.19430372628E+03  0.36629764738E+03  0.17113128634E+03 0.  0.
         24    2    3    3    0    0  0.11442883431E+03  0.37904221386E+02 -0.14289550767E+03  0.20348769380E+03  0.80358119034E+02 0.  0.
         -6    2    1    2    0  502 -0.25850123390E+03  0.17641523017E+02  0.78626237280E+03  0.84559200219E+03  0.17228814245E+03 0.  0.
        -24    2    5    5    0    0 -0.47884590312E+02  0.57349595994E-01  0.32771515792E+03  0.34066011374E+03  0.79744285554E+02 0.  0.
          5    1    3    3  501    0  0.14407239959E+03 -0.55545744402E+02 -0.51408218617E+02  0.16280995358E+03  0.47000000000E+01 0. -1.
        -11    1    4    4    0    0 -0.56822004636E+01  0.76446172136E+01 -0.43907465458E+02  0.44928755796E+02  0.00000000000E+00 0.  1.
         12    1    4    4    0    0  0.12011103478E+03  0.30259604172E+02 -0.98988042208E+02  0.15855893800E+03  0.00000000000E+00 0. -1.
         -5    1    5    5    0  502 -0.21061664359E+03  0.17584173421E+02  0.45854721488E+03  0.50493188846E+03  0.47000000000E+01 0.  1.
         11    1    6    6    0    0 -0.53783062622E+02  0.22370403088E+02  0.29455176656E+03  0.30025621716E+03  0.00000000000E+00 0. -1.
        -12    1    6    6    0    0  0.58984723095E+01 -0.22313053492E+02  0.33163391364E+02  0.40403896576E+02  0.00000000000E+00 0.  1.
</event>
<event>
12    1  0.8196217E-002  0.1975652E+03  0.7818608E-02  0.1152305E+00
         21   -1    0    0  501  502  0.00000000000E+00  0.00000000000E+00  0.66985192676E+02  0.66985192676E+02  0.00000000000E+00 0. -1.
         21   -1    0    0  502  503 -0.00000000000E+00 -0.00000000000E+00 -0.97341558755E+03  0.97341558755E+03  0.00000000000E+00 0. -1.
         -6    2    1    2    0  503  0.59336221323E+01  0.96860525710E+02 -0.78719336904E+03  0.81160667472E+03  0.17208958389E+03 0.  0.
        -24    2    3    3    0    0  0.36406477831E+02  0.22142973355E+01 -0.49426307649E+03  0.50222543778E+03  0.81265409800E+02 0.  0.
          6    2    1    2  501    0 -0.59336221323E+01 -0.96860525710E+02 -0.11923702584E+03  0.22879410550E+03  0.16944646668E+03 0.  0.
         24    2    5    5    0    0  0.46487967055E+02 -0.96096906504E+02 -0.70638081677E+02  0.15715226368E+03  0.91166599557E+02 0.  0.
          5    1    5    5  501    0 -0.52421589187E+02 -0.76361920530E+00 -0.48598944159E+02  0.71641841828E+02  0.47000000000E+01 0. -1.
        -11    1    6    6    0    0  0.62673083396E+02 -0.27337948876E+02 -0.23814864497E+02  0.72404603459E+02  0.00000000000E+00 0.  1.
         12    1    6    6    0    0 -0.16185116341E+02 -0.68758957628E+02 -0.46823217180E+02  0.84747660216E+02  0.00000000000E+00 0. -1.
         -5    1    3    3    0  503 -0.30472855698E+02  0.94646228374E+02 -0.29293029255E+03  0.30938123694E+03  0.47000000000E+01 0.  1.
         11    1    4    4    0    0  0.46028309191E+02  0.27458530148E+02 -0.21190618051E+03  0.21857905998E+03  0.00000000000E+00 0. -1.
        -12    1    4    4    0    0 -0.96218313599E+01 -0.25244232812E+02 -0.28235689598E+03  0.28364637779E+03  0.00000000000E+00 0.  1.
</event>
<event>
12    1  0.8196217E-002  0.2034881E+03  0.7818608E-02  0.1147261E+00
         21   -1    0    0  503  502  0.00000000000E+00  0.00000000000E+00  0.49991153531E+03  0.49991153531E+03  0.00000000000E+00 0. -1.
         21   -1    0    0  501  503 -0.00000000000E+00 -0.00000000000E+00 -0.86084427376E+02  0.86084427376E+02  0.00000000000E+00 0.  1.
          6    2    1    2  501    0  0.10588802250E+03 -0.26750727040E+02  0.14397880190E+03  0.24927355888E+03  0.17169606010E+03 0.  0.
         24    2    3    3    0    0 -0.97342425638E+01  0.53812602338E+01  0.77868334116E+02  0.11218360033E+03  0.79987307026E+02 0.  0.
         -6    2    1    2    0  502 -0.10588802250E+03  0.26750727040E+02  0.26984830603E+03  0.33672240381E+03  0.16922173102E+03 0.  0.
        -24    2    5    5    0    0 -0.63333219299E+01  0.23531305064E+02  0.50833021815E+02  0.96074761383E+02  0.77798010150E+02 0.  0.
          5    1    3    3  501    0  0.11562226506E+03 -0.32131987274E+02  0.66110467782E+02  0.13708995855E+03  0.47000000000E+01 0. -1.
        -13    1    4    4    0    0  0.29914803418E+01  0.15321322407E+02  0.90403565235E+02  0.91741465446E+02  0.00000000000E+00 0.  1.
         14    1    4    4    0    0 -0.12725722906E+02 -0.99400621728E+01 -0.12535231119E+02  0.20442134885E+02  0.00000000000E+00 0. -1.
         -5    1    5    5    0  502 -0.99554700566E+02  0.32194219759E+01  0.21901528422E+03  0.24064764242E+03  0.47000000000E+01 0.  1.
         11    1    6    6    0    0 -0.21791960617E+00 -0.40385990931E+01  0.64552135354E+02  0.64678713270E+02  0.00000000000E+00 0. -1.
        -12    1    6    6    0    0 -0.61154023237E+01  0.27569904157E+02 -0.13719113539E+02  0.31396048113E+02  0.00000000000E+00 0.  1.
</event>
<event>
12    1  0.8196217E-002  0.2275652E+03  0.7818608E-02  0.1128758E+00
         21   -1    0    0  501  502  0.00000000000E+00  0.00000000000E+00  0.15887305161E+03  0.15887305161E+03  0.00000000000E+00 0. -1.
         21   -1    0    0  502  503 -0.00000000000E+00 -0.00000000000E+00 -0.34822263658E+03  0.34822263658E+03  0.00000000000E+00 0. -1.
         -6    2    1    2    0  503 -0.85657150549E+02  0.12064742425E+03 -0.16356554269E+03  0.28024922629E+03  0.17289590413E+03 0.  0.
        -24    2    3    3    0    0 -0.50401222310E+01  0.17895053854E+02 -0.12057928392E+03  0.14267356231E+03  0.73964490719E+02 0.  0.
          6    2    1    2  501    0  0.85657150549E+02 -0.12064742425E+03 -0.25784042286E+02  0.22684646190E+03  0.17000456470E+03 0.  0.
         24    2    5    5    0    0  0.62103392059E+02 -0.12260382243E+03 -0.72400616047E+02  0.17436978153E+03  0.79211381294E+02 0.  0.
          5    1    5    5  501    0  0.23553758490E+02  0.19563981855E+01  0.46616573761E+02  0.52476680364E+02  0.47000000000E+01 0. -1.
        -11    1    6    6    0    0  0.15643589544E+02 -0.10906131594E+03 -0.52457587036E+02  0.12202823839E+03  0.00000000000E+00 0.  1.
         12    1    6    6    0    0  0.46459802515E+02 -0.13542506498E+02 -0.19943029011E+02  0.52341543139E+02  0.00000000000E+00 0. -1.
         -5    1    3    3    0  503 -0.80617028318E+02  0.10275237039E+03 -0.42986258768E+02  0.13757566398E+03  0.47000000000E+01 0.  1.
         11    1    4    4    0    0 -0.29087348912E+02 -0.14193766273E+02 -0.32357676429E+02  0.45766320495E+02  0.00000000000E+00 0. -1.
        -12    1    4    4    0    0  0.24047226681E+02  0.32088820128E+02 -0.88221607488E+02  0.96907241814E+02  0.00000000000E+00 0.  1.
</event>
<event>
12    1  0.8196217E-002  0.2084811E+03  0.7818608E-02  0.1143270E+00
         21   -1    0    0  501  502  0.00000000000E+00  0.00000000000E+00  0.54850071495E+02  0.54850071495E+02  0.00000000000E+00 0. -1.
         21   -1    0    0  502  503 -0.00000000000E+00 -0.00000000000E+00 -0.79527799411E+03  0.79527799411E+03  0.00000000000E+00 0. -1.
         -6    2    1    2    0  503 -0.76255853351E+02 -0.89471472175E+02 -0.31539593763E+03  0.37671855611E+03  0.16918089000E+03 0.  0.
        -24    2    3    3    0    0 -0.76950604117E+02 -0.89359991773E+02 -0.13493139926E+03  0.19619145367E+03  0.79862384032E+02 0.  0.
          6    2    1    2  501    0  0.76255853351E+02  0.89471472175E+02 -0.42503198498E+03  0.47340950949E+03  0.17217513152E+03 0.  0.
         24    2    5    5    0    0  0.40720108761E+02  0.35119466815E+01 -0.32295016250E+03  0.33522623392E+03  0.80058475015E+02 0.  0.
          5    1    5    5  501    0  0.35535744590E+02  0.85959525494E+02 -0.10208182249E+03  0.13818327558E+03  0.47000000000E+01 0. -1.
        -11    1    6    6    0    0  0.50018960471E+02  0.25262932498E+02 -0.28537749068E+03  0.29082713827E+03  0.00000000000E+00 0.  1.
         12    1    6    6    0    0 -0.92988517101E+01 -0.21750985817E+02 -0.37572671819E+02  0.44399095652E+02  0.00000000000E+00 0. -1.
         -5    1    3    3    0  503  0.69475076606E+00 -0.11148040183E+00 -0.18046453837E+03  0.18052710244E+03  0.47000000000E+01 0.  1.
         13    1    4    4    0    0 -0.12124706008E+02 -0.61596753138E+02 -0.98528842015E+02  0.11682936789E+03  0.00000000000E+00 0. -1.
        -14    1    4    4    0    0 -0.64825898110E+02 -0.27763238635E+02 -0.36402557243E+02  0.79362085778E+02  0.00000000000E+00 0.  1.
</event>
<event>
12    1  0.8196217E-002  0.2148838E+03  0.7818608E-02  0.1138244E+00
         21   -1    0    0  501  502  0.00000000000E+00  0.00000000000E+00  0.26674890141E+03  0.26674890141E+03  0.00000000000E+00 0.  1.
         21   -1    0    0  502  503 -0.00000000000E+00 -0.00000000000E+00 -0.30635051282E+03  0.30635051282E+03  0.00000000000E+00 0.  1.
         -6    2    1    2    0  503  0.80597914617E+02 -0.91020111604E+02 -0.21014871179E+03  0.29876135567E+03  0.17411255560E+03 0.  0.
        -24    2    3    3    0    0  0.84792549437E+02 -0.12832703973E+03 -0.18444552179E+03  0.25302137509E+03  0.79637052806E+02 0.  0.
          6    2    1    2  501    0 -0.80597914617E+02  0.91020111604E+02  0.17054710037E+03  0.27433805856E+03  0.17718457148E+03 0.  0.
         24    2    5    5    0    0 -0.97229292009E+02  0.10722365295E+03  0.18442465255E+03  0.24688202241E+03  0.77381092946E+02 0.  0.
          5    1    5    5  501    0  0.16631377391E+02 -0.16203541346E+02 -0.13877552180E+02  0.27456036141E+02  0.47000000000E+01 0. -1.
        -13    1    6    6    0    0 -0.86627413330E+02  0.10121240362E+03  0.11379088818E+03  0.17520452512E+03  0.00000000000E+00 0.  1.
         14    1    6    6    0    0 -0.10601878678E+02  0.60112493278E+01  0.70633764370E+02  0.71677497300E+02  0.00000000000E+00 0. -1.
         -5    1    3    3    0  503 -0.41946348192E+01  0.37306928122E+02 -0.25703189996E+02  0.45739980577E+02  0.47000000000E+01 0.  1.
         13    1    4    4    0    0  0.32748461461E+02 -0.33507025859E+02 -0.10225814973E+02  0.47955706666E+02  0.00000000000E+00 0. -1.
        -14    1    4    4    0    0  0.52044087976E+02 -0.94820013867E+02 -0.17421970682E+03  0.20506566843E+03  0.00000000000E+00 0.  1.
</event>
<event>
12    1  0.8196217E-002  0.1881031E+03  0.7818608E-02  0.1160611E+00
         21   -1    0    0  503  502  0.00000000000E+00  0.00000000000E+00  0.20312768783E+03  0.20312768783E+03  0.00000000000E+00 0.  1.
         21   -1    0    0  501  503 -0.00000000000E+00 -0.00000000000E+00 -0.17362526254E+03  0.17362526254E+03  0.00000000000E+00 0. -1.
          6    2    1    2  501    0  0.39080844466E+02 -0.62397614337E+02 -0.53001099393E+00  0.18810380276E+03  0.17309530618E+03 0.  0.
         24    2    3    3    0    0 -0.32425106394E+02 -0.33967399297E+02  0.40604269682E+02  0.10072247076E+03  0.79316692185E+02 0.  0.
         -6    2    1    2    0  502 -0.39080844466E+02  0.62397614337E+02  0.30032436289E+02  0.18864914761E+03  0.17107243783E+03 0.  0.
        -24    2    5    5    0    0 -0.52472179621E+02  0.68943277374E+02 -0.34362272610E+02  0.12238496350E+03  0.79314616451E+02 0.  0.
          5    1    3    3  501    0  0.71505950860E+02 -0.28430215040E+02 -0.41134280676E+02  0.87381332002E+02  0.47000000000E+01 0. -1.
        -11    1    4    4    0    0 -0.33056399679E+01 -0.40706697071E+02 -0.99118841533E+01  0.42026276180E+02  0.00000000000E+00 0.  1.
         12    1    4    4    0    0 -0.29119466426E+02  0.67392977743E+01  0.50516153835E+02  0.58696194576E+02  0.00000000000E+00 0. -1.
         -5    1    5    5    0  502  0.13391335154E+02 -0.65456630372E+01  0.64394708899E+02  0.66264184112E+02  0.47000000000E+01 0.  1.
         11    1    6    6    0    0 -0.43394812491E+02  0.21925528411E+02  0.17614798107E+02  0.51711890891E+02  0.00000000000E+00 0. -1.
        -12    1    6    6    0    0 -0.90773671297E+01  0.47017748963E+02 -0.51977070717E+02  0.70673072609E+02  0.00000000000E+00 0.  1.
</event>
<event>
12    1  0.8196217E-002  0.1914420E+03  0.7818608E-02  0.1157469E+00
         21   -1    0    0  503  502  0.00000000000E+00  0.00000000000E+00  0.33141696428E+03  0.33141696428E+03  0.00000000000E+00 0. -1.
         21   -1    0    0  501  503 -0.00000000000E+00 -0.00000000000E+00 -0.11024531334E+03  0.11024531334E+03  0.00000000000E+00 0. -1.
          6    2    1    2  501    0 -0.19467072022E+02  0.82918591619E+02  0.12406643267E+03  0.22700103042E+03  0.16994860507E+03 0.  0.
         24    2    3    3    0    0  0.18479080132E+02  0.38528068665E+02  0.13920580971E+03  0.16648888512E+03  0.80711851263E+02 0.  0.
         -6    2    1    2    0  502  0.19467072022E+02 -0.82918591619E+02  0.97105218268E+02  0.21466124720E+03  0.17145135726E+03 0.  0.
        -24    2    5    5    0    0  0.10072369007E+02 -0.10442607109E+02 -0.15612550663E+02  0.80242445656E+02  0.77360181528E+02 0.  0.
          5    1    3    3  501    0 -0.37946152154E+02  0.44390522954E+02 -0.15139377038E+02  0.60512145297E+02  0.47000000000E+01 0. -1.
        -13    1    4    4    0    0 -0.14258222934E+02 -0.19754774516E+02  0.40954529836E+02  0.47653137897E+02  0.00000000000E+00 0.  1.
         14    1    4    4    0    0  0.32737303065E+02  0.58282843182E+02  0.98251279873E+02  0.11883574722E+03  0.00000000000E+00 0. -1.
         -5    1    5    5    0  502  0.93947030149E+01 -0.72475984510E+02  0.11271776893E+03  0.13441880154E+03  0.47000000000E+01 0.  1.
         13    1    6    6    0    0  0.28232613817E+02 -0.35271030637E+02  0.11840231606E+01  0.45194335884E+02  0.00000000000E+00 0. -1.
        -14    1    6    6    0    0 -0.18160244809E+02  0.24828423528E+02 -0.16796573824E+02  0.35048109773E+02  0.00000000000E+00 0.  1.
</event>
<event>
12    1  0.8196217E-002  0.2023207E+03  0.7818608E-02  0.1148115E+00
         21   -1    0    0  503  502  0.00000000000E+00  0.00000000000E+00  0.90500942805E+02  0.90500942805E+02  0.00000000000E+00 0.  1.
         21   -1    0    0  501  503 -0.00000000000E+00 -0.00000000000E+00 -0.52705989929E+03  0.52705989929E+03  0.00000000000E+00 0.  1.
          6    2    1    2  501    0 -0.84620173007E+02 -0.64040379677E+02 -0.33649032943E+03  0.39184558477E+03  0.17045667071E+03 0.  0.
         24    2    3    3    0    0 -0.39462253019E+02 -0.10589773677E+03 -0.23010339579E+03  0.26883523671E+03  0.80951909633E+02 0.  0.
         -6    2    1    2    0  502  0.84620173007E+02  0.64040379677E+02 -0.10006862705E+03  0.22571525733E+03  0.17225534349E+03 0.  0.
        -24    2    5    5    0    0  0.12034678114E+03  0.26493020694E+02 -0.91170064302E+02  0.17291876962E+03  0.80023074073E+02 0.  0.
          5    1    3    3  501    0 -0.45157919988E+02  0.41857357095E+02 -0.10638693364E+03  0.12301034806E+03  0.47000000000E+01 0. -1.
        -11    1    4    4    0    0 -0.53257073467E+02 -0.56532907809E+02 -0.18468415564E+03  0.20035099921E+03  0.00000000000E+00 0.  1.
         12    1    4    4    0    0  0.13794820449E+02 -0.49364828964E+02 -0.45419240159E+02  0.68484237503E+02  0.00000000000E+00 0. -1.
         -5    1    5    5    0  502 -0.35726608138E+02  0.37547358983E+02 -0.88985627524E+01  0.52796487712E+02  0.47000000000E+01 0.  1.
         11    1    6    6    0    0  0.11298201266E+01  0.27580031051E+02 -0.19755626429E+02  0.33944357144E+02  0.00000000000E+00 0. -1.
        -12    1    6    6    0    0  0.11921696102E+03 -0.10870103574E+01 -0.71414437874E+02  0.13897441247E+03  0.00000000000E+00 0.  1.
</event>
<event>
12    1  0.8196217E-002  0.2543731E+03  0.7818608E-02  0.1110735E+00
         21   -1    0    0  503  502  0.00000000000E+00  0.00000000000E+00  0.64937518070E+02  0.64937518070E+02  0.00000000000E+00 0. -1.
         21   -1    0    0  501  503 -0.00000000000E+00 -0.00000000000E+00 -0.13748967653E+04  0.13748967653E+04  0.00000000000E+00 0. -1.
          6    2    1    2  501    0 -0.18372714028E+03 -0.28005784015E+02 -0.10337644364E+04  0.10643489620E+04  0.17213313714E+03 0.  0.
         24    2    3    3    0    0 -0.77785243973E+02 -0.75834451095E+02 -0.59799357734E+03  0.61331725756E+03  0.82221236517E+02 0.  0.
         -6    2    1    2    0  502  0.18372714028E+03  0.28005784015E+02 -0.27619481081E+03  0.37548532136E+03  0.17368266186E+03 0.  0.
        -24    2    5    5    0    0  0.61305509296E+02 -0.16155766266E+02 -0.48196699727E+02  0.11291623158E+03  0.80048605453E+02 0.  0.
          5    1    3    3  501    0 -0.10594189630E+03  0.47828667080E+02 -0.43577085906E+03  0.45103170442E+03  0.47000000000E+01 0. -1.
        -13    1    4    4    0    0 -0.48779371905E+02 -0.16125387804E+02 -0.11724311246E+03  0.12800547908E+03  0.00000000000E+00 0.  1.
         14    1    4    4    0    0 -0.29005872069E+02 -0.59709063292E+02 -0.48075046488E+03  0.48531177849E+03  0.00000000000E+00 0. -1.
         -5    1    5    5    0  502  0.12242163098E+03  0.44161550281E+02 -0.22799811108E+03  0.26256908979E+03  0.47000000000E+01 0.  1.
         13    1    6    6    0    0 -0.18094193870E+02 -0.81344399901E+01 -0.20281491678E+02  0.28370898301E+02  0.00000000000E+00 0. -1.
        -14    1    6    6    0    0  0.79399703166E+02 -0.80213262761E+01 -0.27915208049E+02  0.84545333274E+02  0.00000000000E+00 0.  1.
</event>
<event>
12    1  0.8196217E-002  0.1828357E+03  0.7818608E-02  0.1165461E+00
         21   -1    0    0  503  502  0.00000000000E+00  0.00000000000E+00  0.81874959164E+03  0.81874959164E+03  0.00000000000E+00 0. -1.
         21   -1    0    0  501  503 -0.00000000000E+00 -0.00000000000E+00 -0.43035427715E+02  0.43035427715E+02  0.00000000000E+00 0. -1.
          6    2    1    2  501    0  0.51024779561E+02 -0.25466618859E+02  0.28440688282E+03  0.33810674953E+03  0.17371477276E+03 0.  0.
         24    2    3    3    0    0  0.89074847846E+01  0.80119376341E+01  0.27066839008E+03  0.28237958876E+03  0.79582160876E+02 0.  0.
         -6    2    1    2    0  502 -0.51024779561E+02  0.25466618859E+02  0.49130728111E+03  0.52367826983E+03  0.17205815592E+03 0.  0.
        -24    2    5    5    0    0  0.29106252474E+02  0.47587745662E+02  0.27288249277E+03  0.28992240422E+03  0.80488372692E+02 0.  0.
          5    1    3    3  501    0  0.42117294777E+02 -0.33478556493E+02  0.13738492736E+02  0.55727160764E+02  0.47000000000E+01 0. -1.
        -11    1    4    4    0    0 -0.30686925968E+02  0.15324300223E+02  0.73063099179E+02  0.80713927326E+02  0.00000000000E+00 0.  1.
         12    1    4    4    0    0  0.39594410753E+02 -0.73123625890E+01  0.19760529090E+03  0.20166566144E+03  0.00000000000E+00 0. -1.
         -5    1    5    5    0  502 -0.80131032035E+02 -0.22121126804E+02  0.21842478834E+03  0.23375586561E+03  0.47000000000E+01 0.  1.
         13    1    6    6    0    0 -0.22643322982E+02  0.14771700477E+02  0.15210858534E+03  0.15449254010E+03  0.00000000000E+00 0. -1.
        -14    1    6    6    0    0  0.51749575456E+02  0.32816045185E+02  0.12077390743E+03  0.13542986412E+03  0.00000000000E+00 0.  1.
</event>
<event>
12    1  0.8196217E-002  0.2870765E+03  0.7818608E-02  0.1092033E+00
         21   -1    0    0  503  502  0.00000000000E+00  0.00000000000E+00  0.17565136557E+03  0.17565136557E+03  0.00000000000E+00 0. -1.
         21   -1    0    0  501  503 -0.00000000000E+00 -0.00000000000E+00 -0.46740913147E+03  0.46740913147E+03  0.00000000000E+00 0. -1.
          6    2    1    2  501    0 -0.22842844181E+03 -0.27573039586E+01 -0.14308320512E+03  0.32075805619E+03  0.17385560465E+03 0.  0.
         24    2    3    3    0    0 -0.22467321365E+03 -0.38934204630E+02 -0.14884172000E+03  0.28363501248E+03  0.79379074476E+02 0.  0.
         -6    2    1    2    0  502  0.22842844181E+03  0.27573039586E+01 -0.14867456078E+03  0.32230244086E+03  0.17201041424E+03 0.  0.
        -24    2    5    5    0    0  0.16984010485E+03 -0.62247714747E+02 -0.88337659913E+02  0.21590282953E+03  0.78038775185E+02 0.  0.
          5    1    3    3  501    0 -0.37552281569E+01  0.36176900671E+02  0.57585148863E+01  0.37123043711E+02  0.47000000000E+01 0. -1.
        -11    1    4    4    0    0 -0.90932486690E+02 -0.52001577334E+02 -0.84817585432E+02  0.13478465780E+03  0.00000000000E+00 0.  1.
         12    1    4    4    0    0 -0.13374072696E+03  0.13067372704E+02 -0.64024134572E+02  0.14885035467E+03  0.00000000000E+00 0. -1.
         -5    1    5    5    0  502  0.58588336963E+02  0.65005018705E+02 -0.60336900868E+02  0.10639961133E+03  0.47000000000E+01 0.  1.
         11    1    6    6    0    0  0.14845491592E+03 -0.35919043067E+02 -0.96946657462E+02  0.18090797138E+03  0.00000000000E+00 0. -1.
        -12    1    6    6    0    0  0.21385188928E+02 -0.26328671679E+02  0.86089975486E+01  0.34994858146E+02  0.00000000000E+00 0.  1.
</event>
<event>
12    1  0.8196217E-002  0.1797273E+03  0.7818608E-02  0.1169169E+00
         21   -1    0    0  501  502  0.00000000000E+00  0.00000000000E+00  0.68116233861E+02  0.68116233861E+02  0.00000000000E+00 0. -1.
         21   -1    0    0  502  503 -0.00000000000E+00 -0.00000000000E+00 -0.66670257148E+03  0.66670257148E+03  0.00000000000E+00 0. -1.
         -6    2    1    2    0  503 -0.44128342246E+02 -0.25711932052E+02 -0.50001663780E+03  0.52983617065E+03  0.16763447022E+03 0.  0.
        -24    2    3    3    0    0 -0.44404182191E+02  0.36564462744E+02 -0.39884891377E+03  0.41094368214E+03  0.80532990415E+02 0.  0.
          6    2    1    2  501    0  0.44128342246E+02  0.25711932052E+02 -0.98569699818E+02  0.20498263470E+03  0.17231796414E+03 0.  0.
         24    2    5    5    0    0  0.92426180876E+02 -0.18178879132E+01 -0.72868046796E+02  0.14355595343E+03  0.82174545285E+02 0.  0.
          5    1    5    5  501    0 -0.48297838631E+02  0.27529819965E+02 -0.25701653022E+02  0.61426681269E+02  0.47000000000E+01 0. -1.
        -13    1    6    6    0    0  0.14672215336E+02  0.24215151654E+02 -0.51582038758E+02  0.58841772534E+02  0.00000000000E+00 0.  1.
         14    1    6    6    0    0  0.77753965540E+02 -0.26033039567E+02 -0.21286008038E+02  0.84714180894E+02  0.00000000000E+00 0. -1.
         -5    1    3    3    0  503  0.27583994520E+00 -0.62276394795E+02 -0.10116772403E+03  0.11889248850E+03  0.47000000000E+01 0.  1.
         11    1    4    4    0    0 -0.18843376892E+02 -0.21801324609E+02 -0.20185207963E+03  0.20389858424E+03  0.00000000000E+00 0. -1.
        -12    1    4    4    0    0 -0.25560805299E+02  0.58365787353E+02 -0.19699683415E+03  0.20704509790E+03  0.00000000000E+00 0.  1.
</event>
<event>
12    1  0.8196217E-002  0.1740633E+03  0.7818608E-02  0.1173918E+00
         21   -1    0    0  503  502  0.00000000000E+00  0.00000000000E+00  0.49955265972E+03  0.49955265972E+03  0.00000000000E+00 0. -1.
         21   -1    0    0  501  503 -0.00000000000E+00 -0.00000000000E+00 -0.80984831498E+02  0.80984831498E+02  0.00000000000E+00 0. -1.
          6    2    1    2  501    0  0.24158856116E+01  0.24569254741E+02  0.62216009746E+02  0.18394620811E+03  0.17133560876E+03 0.  0.
         24    2    3    3    0    0  0.59460074661E+01  0.80076054625E+02  0.22260863969E+02  0.11530241547E+03  0.79696746612E+02 0.  0.
         -6    2    1    2    0  502 -0.24158856116E+01 -0.24569254741E+02  0.35635181848E+03  0.39659128311E+03  0.17230363467E+03 0.  0.
        -24    2    5    5    0    0  0.57931251490E+02  0.16607819450E+02  0.18913062049E+03  0.21404718583E+03  0.80087181168E+02 0.  0.
          5    1    3    3  501    0 -0.35301218546E+01 -0.55506799883E+02  0.39955145777E+02  0.68643792638E+02  0.47000000000E+01 0. -1.
        -11    1    4    4    0    0 -0.55438332188E+01 -0.39166466564E+00  0.32863338693E+02  0.33329964267E+02  0.00000000000E+00 0.  1.
         12    1    4    4    0    0  0.11489840685E+02  0.80467719291E+02 -0.10602474724E+02  0.81972451208E+02  0.00000000000E+00 0. -1.
         -5    1    5    5    0  502 -0.60347137102E+02 -0.41177074191E+02  0.16722119799E+03  0.18254409728E+03  0.47000000000E+01 0.  1.
         11    1    6    6    0    0 -0.17734649291E+02 -0.94028263243E+01  0.42688979589E+02  0.47172872572E+02  0.00000000000E+00 0. -1.
        -12    1    6    6    0    0  0.75665900781E+02  0.26010645774E+02  0.14644164090E+03  0.16687431326E+03  0.00000000000E+00 0.  1.
</event>
<event>
12    1  0.8196217E-002  0.1850315E+03  0.7818608E-02  0.1163154E+00
         21   -1    0    0  503  502  0.00000000000E+00  0.00000000000E+00  0.56431066006E+03  0.56431066006E+03  0.00000000000E+00 0.  1.
         21   -1    0    0  501  503 -0.00000000000E+00 -0.00000000000E+00 -0.26103213650E+03  0.26103213650E+03  0.00000000000E+00 0.  1.
          6    2    1    2  501    0  0.41907808322E+02 -0.53570376045E+02 -0.21013108340E+03  0.27960833979E+03  0.17146341267E+03 0.  0.
         24    2    3    3    0    0 -0.34672934361E+02 -0.61434494538E+02 -0.12766789857E+03  0.16669810393E+03  0.80701648274E+02 0.  0.
         -6    2    1    2    0  502 -0.41907808322E+02  0.53570376045E+02  0.51340960696E+03  0.54573445676E+03  0.17207737561E+03 0.  0.
        -24    2    5    5    0    0 -0.19349478250E+02 -0.37651876727E+02  0.22856453827E+03  0.24575248929E+03  0.79752565521E+02 0.  0.
          5    1    3    3  501    0  0.76580742683E+02  0.78641184929E+01 -0.82463184828E+02  0.11291023586E+03  0.47000000000E+01 0. -1.
        -13    1    4    4    0    0 -0.46023717477E+02 -0.13979014342E+01 -0.57192370793E+02  0.73424137555E+02  0.00000000000E+00 0.  1.
         14    1    4    4    0    0  0.11350783116E+02 -0.60036593104E+02 -0.70475527775E+02  0.93273966379E+02  0.00000000000E+00 0. -1.
         -5    1    5    5    0  502 -0.22558330073E+02  0.91222252772E+02  0.28484506869E+03  0.29998196748E+03  0.47000000000E+01 0.  1.
         13    1    6    6    0    0  0.40593848739E+01 -0.31490966533E+02  0.24104605277E+02  0.39864665737E+02  0.00000000000E+00 0. -1.
        -14    1    6    6    0    0 -0.23408863124E+02 -0.61609101932E+01  0.20445993299E+03  0.20588782355E+03  0.00000000000E+00 0.  1.
</event>
<event>
12    1  0.8196217E-002  0.1932697E+03  0.7818608E-02  0.1155819E+00
         21   -1    0    0  503  502  0.00000000000E+00  0.00000000000E+00  0.57887409801E+03  0.57887409801E+03  0.00000000000E+00 0.  1.
         21   -1    0    0  501  503 -0.00000000000E+00 -0.00000000000E+00 -0.13024340351E+03  0.13024340351E+03  0.00000000000E+00 0.  1.
          6    2    1    2  501    0  0.83331804296E+02  0.26419976473E+02 -0.28682344740E+02  0.19416029228E+03  0.17097759337E+03 0.  0.
         24    2    3    3    0    0 -0.24244744456E+02  0.15571129047E+02 -0.19052006332E+02  0.85508349137E+02  0.78220401005E+02 0.  0.
         -6    2    1    2    0  502 -0.83331804296E+02 -0.26419976473E+02  0.47731303925E+03  0.51495720924E+03  0.17236874758E+03 0.  0.
        -24    2    5    5    0    0 -0.71264574040E+02 -0.68319209959E+02  0.22310952447E+03  0.25699852895E+03  0.80772705833E+02 0.  0.
          5    1    3    3  501    0  0.10757654875E+03  0.10848847426E+02 -0.96303384075E+01  0.10865194315E+03  0.47000000000E+01 0. -1.
        -13    1    4    4    0    0  0.25684339080E+02 -0.79032015870E+01 -0.13455299753E+02  0.30053135623E+02  0.00000000000E+00 0.  1.
         14    1    4    4    0    0 -0.49929083536E+02  0.23474330634E+02 -0.55967065793E+01  0.55455213515E+02  0.00000000000E+00 0. -1.
         -5    1    5    5    0  502 -0.12067230256E+02  0.41899233486E+02  0.25420351477E+03  0.25795868029E+03  0.47000000000E+01 0.  1.
         13    1    6    6    0    0  0.57520940353E+01 -0.43847154338E+01 -0.43841125422E+01  0.84577040625E+01  0.00000000000E+00 0. -1.
        -14    1    6    6    0    0 -0.77016668075E+02 -0.63934494525E+02  0.22749363702E+03  0.24854082488E+03  0.00000000000E+00 0.  1.
</event>
<event>
12    1  0.8196217E-002  0.1998514E+03  0.7818608E-02  0.1150041E+00
         21   -1    0    0  503  502  0.00000000000E+00  0.00000000000E+00  0.39364988210E+03  0.39364988210E+03  0.00000000000E+00 0.  1.
         21   -1    0    0  501  503 -0.00000000000E+00 -0.00000000000E+00 -0.14128380084E+03  0.14128380084E+03  0.00000000000E+00 0. -1.
          6    2    1    2  501    0  0.36567781670E+02 -0.93569877002E+02 -0.16758814661E+02  0.19971914065E+03  0.17179741772E+03 0.  0.
         24    2    3    3    0    0  0.10219917198E+02 -0.12085587592E+03 -0.45011724736E+02  0.15218964847E+03  0.80156373960E+02 0.  0.
         -6    2    1    2    0  502 -0.36567781670E+02  0.93569877002E+02  0.26912489592E+03  0.33521454229E+03  0.17276589716E+03 0.  0.
        -24    2    5    5    0    0  0.88511195378E+00 -0.62985936005E+01  0.65526404176E+02  0.10532137906E+03  0.82209655988E+02 0.  0.
          5    1    3    3  501    0  0.26347864472E+02  0.27285998918E+02  0.28252910075E+02  0.47529492180E+02  0.47000000000E+01 0. -1.
        -11    1    4    4    0    0  0.11312502395E+02 -0.12801012936E+03 -0.25011610022E+02  0.13092038254E+03  0.00000000000E+00 0.  1.
         12    1    4    4    0    0 -0.10925851966E+01  0.71542534387E+01 -0.20000114714E+02  0.21269265931E+02  0.00000000000E+00 0. -1.
         -5    1    5    5    0  502 -0.37452893624E+02  0.99868470603E+02  0.20359849175E+03  0.22989316324E+03  0.47000000000E+01 0.  1.
         13    1    6    6    0    0 -0.15307995514E+02 -0.26344165912E+01  0.81090216154E+02  0.82564508316E+02  0.00000000000E+00 0. -1.
        -14    1    6    6    0    0  0.16193107468E+02 -0.36641770093E+01 -0.15563811979E+02  0.22756870741E+02  0.00000000000E+00 0.  1.
</event>
<event>
12    1  0.8196217E-002  0.1882542E+03  0.7818608E-02  0.1161030E+00
         21   -1    0    0  501  502  0.00000000000E+00  0.00000000000E+00  0.28626537208E+03  0.28626537208E+03  0.00000000000E+00 0. -1.
         21   -1    0    0  502  503 -0.00000000000E+00 -0.00000000000E+00 -0.12169134344E+03  0.12169134344E+03  0.00000000000E+00 0. -1.
         -6    2    1    2    0  503  0.52267335050E+02  0.41080879709E+02  0.66125885521E+02  0.19551453755E+03  0.17156278345E+03 0.  0.
        -24    2    3    3    0    0  0.80670226022E+02  0.30981944717E+01  0.10520697671E+00  0.11408832193E+03  0.80615444909E+02 0.  0.
          6    2    1    2  501    0 -0.52267335050E+02 -0.41080879709E+02  0.98448143118E+02  0.21244217797E+03  0.17612532216E+03 0.  0.
         24    2    5    5    0    0 -0.22010197120E+02  0.28235664950E+02 -0.89342351222E+00  0.87497731837E+02  0.79833284528E+02 0.  0.
          5    1    5    5  501    0 -0.30257137929E+02 -0.69316544659E+02  0.99341566630E+02  0.12494444613E+03  0.47000000000E+01 0. -1.
        -11    1    6    6    0    0 -0.27328471923E+02  0.11322111420E+02  0.35982535609E+02  0.46580880772E+02  0.00000000000E+00 0.  1.
         12    1    6    6    0    0  0.53182748023E+01  0.16913553530E+02 -0.36875959122E+02  0.40916851064E+02  0.00000000000E+00 0. -1.
         -5    1    3    3    0  503 -0.28402890972E+02  0.37982685237E+02  0.66020678544E+02  0.81426215612E+02  0.47000000000E+01 0.  1.
         13    1    4    4    0    0  0.19405174805E+02  0.16469021260E+02 -0.34184012342E+02  0.42618495636E+02  0.00000000000E+00 0. -1.
        -14    1    4    4    0    0  0.61265051217E+02 -0.13370826788E+02  0.34289219319E+02  0.71469826298E+02  0.00000000000E+00 0.  1.
</event>
<event>
12    1  0.8196217E-002  0.2429508E+03  0.7818608E-02  0.1118222E+00
         21   -1    0    0  503  502  0.00000000000E+00  0.00000000000E+00  0.24362335032E+03  0.24362335032E+03  0.00000000000E+00 0.  1.
         21   -1    0    0  501  503 -0.00000000000E+00 -0.00000000000E+00 -0.47655612782E+03  0.47655612782E+03  0.00000000000E+00 0. -1.
          6    2    1    2  501    0  0.12965096081E+03 -0.10782742711E+03 -0.37044913876E+03  0.44300977964E+03  0.17489704048E+03 0.  0.
         24    2    3    3    0    0  0.11981879969E+03 -0.13575608482E+03 -0.25005845800E+03  0.31894251027E+03  0.80055187945E+02 0.  0.
         -6    2    1    2    0  502 -0.12965096081E+03  0.10782742711E+03  0.13751636126E+03  0.27716969851E+03  0.17168624430E+03 0.  0.
        -24    2    5    5    0    0 -0.35053775394E+02  0.11097046142E+03  0.56408389443E+02  0.15243358006E+03  0.80690020769E+02 0.  0.
          5    1    3    3  501    0  0.98321611246E+01  0.27928657709E+02 -0.12039068077E+03  0.12406726937E+03  0.47000000000E+01 0. -1.
        -11    1    4    4    0    0  0.56867570975E+01  0.91470340330E+01 -0.41472574781E+01  0.11541541599E+02  0.00000000000E+00 0.  1.
         12    1    4    4    0    0  0.11413204259E+03 -0.14490311885E+03 -0.24591120052E+03  0.30740096867E+03  0.00000000000E+00 0. -1.
         -5    1    5    5    0  502 -0.94597185419E+02 -0.31430343148E+01  0.81107971816E+02  0.12473611845E+03  0.47000000000E+01 0.  1.
         13    1    6    6    0    0 -0.10443891123E+02 -0.35353186716E+01 -0.12402354498E+02  0.16594931063E+02  0.00000000000E+00 0. -1.
        -14    1    6    6    0    0 -0.24609884271E+02  0.11450578009E+03  0.68810743941E+02  0.13583864899E+03  0.00000000000E+00 0.  1.
</event>
<event>
12    1  0.8196217E-002  0.2475539E+03  0.7818608E-02  0.1115525E+00
         21   -1    0    0  501  502  0.00000000000E+00  0.00000000000E+00  0.12547808861E+03  0.12547808861E+03  0.00000000000E+00 0. -1.
         21   -1    0    0  502  503 -0.00000000000E+00 -0.00000000000E+00 -0.65856820558E+03  0.65856820558E+03  0.00000000000E+00 0.  1.
         -6    2    1    2    0  503  0.64603659560E+01  0.17920666589E+03 -0.47212967750E+03  0.53309412073E+03  0.17066383258E+03 0.  0.
        -24    2    3    3    0    0  0.72952512797E+01  0.16548738510E+03 -0.48165126672E+03  0.51572557559E+03  0.80905075625E+02 0.  0.
          6    2    1    2  501    0 -0.64603659560E+01 -0.17920666589E+03 -0.60960439470E+02  0.25095217347E+03  0.16463308525E+03 0.  0.
         24    2    5    5    0    0 -0.51098342441E+02 -0.76848858980E+02 -0.65622860587E+02  0.13908842710E+03  0.80761643090E+02 0.  0.
          5    1    5    5  501    0  0.44637976485E+02 -0.10235780691E+03  0.46624211172E+01  0.11186374637E+03  0.47000000000E+01 0. -1.
        -11    1    6    6    0    0 -0.10072804848E+02 -0.54637346360E+02 -0.73125046428E+02  0.91836667132E+02  0.00000000000E+00 0.  1.
         12    1    6    6    0    0 -0.41025537593E+02 -0.22211512620E+02  0.75021858412E+01  0.47251759968E+02  0.00000000000E+00 0. -1.
         -5    1    3    3    0  503 -0.83488532375E+00  0.13719280795E+02  0.95215892217E+01  0.17368545142E+02  0.47000000000E+01 0.  1.
         11    1    4    4    0    0  0.97983475668E+01  0.63261171332E+02 -0.86828349305E+02  0.10787560269E+03  0.00000000000E+00 0. -1.
        -12    1    4    4    0    0 -0.25030962871E+01  0.10222621377E+03 -0.39482291742E+03  0.40784997289E+03  0.00000000000E+00 0.  1.
</event>
<event>
12    1  0.8196217E-002  0.1912457E+03  0.7818608E-02  0.1157869E+00
         21   -1    0    0  501  502  0.00000000000E+00  0.00000000000E+00  0.14341418292E+03  0.14341418292E+03  0.00000000000E+00 0.  1.
         21   -1    0    0  502  503 -0.00000000000E+00 -0.00000000000E+00 -0.54600769481E+03  0.54600769481E+03  0.00000000000E+00 0. -1.
         -6    2    1    2    0  503  0.75095032866E+02 -0.25841263214E+02 -0.45370708864E+03  0.49146348567E+03  0.17140361901E+03 0.  0.
        -24    2    3    3    0    0  0.94422185516E+02 -0.28148313394E+02 -0.19822013823E+03  0.23519305596E+03  0.79477504405E+02 0.  0.
          6    2    1    2  501    0 -0.75095032866E+02  0.25841263214E+02  0.51113576754E+02  0.19795839206E+03  0.17397670078E+03 0.  0.
         24    2    5    5    0    0 -0.19270603218E+02  0.19799820144E+02 -0.38423636926E+02  0.92166763785E+02  0.79088225710E+02 0.  0.
          5    1    5    5  501    0 -0.55824429649E+02  0.60414430697E+01  0.89537213680E+02  0.10579162828E+03  0.47000000000E+01 0. -1.
        -13    1    6    6    0    0  0.23938035992E+02  0.30711265532E+02 -0.14224428567E+02  0.41455346649E+02  0.00000000000E+00 0.  1.
         14    1    6    6    0    0 -0.43208639209E+02 -0.10911445388E+02 -0.24199208359E+02  0.50711417137E+02  0.00000000000E+00 0. -1.
         -5    1    3    3    0  503 -0.19327152649E+02  0.23070501807E+01 -0.25548695042E+03  0.25627042971E+03  0.47000000000E+01 0.  1.
         13    1    4    4    0    0  0.27992077934E+02 -0.16347711592E+02 -0.14686999792E+03  0.15040478845E+03  0.00000000000E+00 0. -1.
        -14    1    4    4    0    0  0.66430107582E+02 -0.11800601803E+02 -0.51350140311E+02  0.84788267503E+02  0.00000000000E+00 0.  1.
</event>
<event>
12    1  0.8196217E-002  0.1728313E+03  0.7818608E-02  0.1175090E+00
         21   -1    0    0  503  502  0.00000000000E+00  0.00000000000E+00  0.22672836874E+03  0.22672836874E+03  0.00000000000E+00 0. -1.
         21   -1    0    0  501  503 -0.00000000000E+00 -0.00000000000E+00 -0.23866772160E+03  0.23866772160E+03  0.00000000000E+00 0. -1.
          6    2    1    2  501    0  0.73672809691E+01 -0.24575734134E+02 -0.16206622883E+03  0.23646656758E+03  0.17027252133E+03 0.  0.
         24    2    3    3    0    0  0.41357302202E+01 -0.62218379951E+02 -0.39840866879E+02  0.10844883128E+03  0.79281922679E+02 0.  0.
         -6    2    1    2    0  502 -0.73672809691E+01  0.24575734134E+02  0.15012687596E+03  0.22892952276E+03  0.17091636542E+03 0.  0.
        -24    2    5    5    0    0 -0.69834135064E+02  0.25313379745E+02  0.80213189991E+02  0.13505372467E+03  0.79295517431E+02 0.  0.
          5    1    3    3  501    0  0.32315507489E+01  0.37642645817E+02 -0.12222536195E+03  0.12801773630E+03  0.47000000000E+01 0. -1.
        -11    1    4    4    0    0 -0.11219714940E+02  0.47709166501E+01  0.15845864578E+02  0.19993375734E+02  0.00000000000E+00 0.  1.
         12    1    4    4    0    0  0.15355445160E+02 -0.66989296601E+02 -0.55686731457E+02  0.88455455544E+02  0.00000000000E+00 0. -1.
         -5    1    5    5    0  502  0.62466854095E+02 -0.73764561132E+00  0.69913685968E+02  0.93875798091E+02  0.47000000000E+01 0.  1.
         13    1    6    6    0    0 -0.15939368191E+02 -0.24580798130E+02  0.46220344377E+01  0.29658764259E+02  0.00000000000E+00 0. -1.
        -14    1    6    6    0    0 -0.53894766873E+02  0.49894177876E+02  0.75591155553E+02  0.10539496041E+03  0.00000000000E+00 0.  1.
</event>
<event>
12    1  0.8196217E-002  0.1764036E+03  0.7818608E-02  0.1171756E+00
         21   -1    0    0  501  502  0.00000000000E+00  0.00000000000E+00  0.17291943011E+04  0.17291943011E+04  0.00000000000E+00 0. -1.
         21   -1    0    0  502  503 -0.00000000000E+00 -0.00000000000E+00 -0.21814955221E+02  0.21814955221E+02  0.00000000000E+00 0. -1.
         -6    2    1    2    0  503  0.12943626250E+02  0.31958685877E+02  0.47574510157E+03  0.50680624696E+03  0.17126083975E+03 0.  0.
        -24    2    3    3    0    0  0.18134923490E+01 -0.67766113444E+01  0.95079818049E+02  0.12398455060E+03  0.79264025704E+02 0.  0.
          6    2    1    2  501    0 -0.12943626250E+02 -0.31958685877E+02  0.12316342443E+04  0.12442030093E+04  0.17300092969E+03 0.  0.
         24    2    5    5    0    0  0.92339317481E+01  0.16885074333E+02  0.30360493866E+03  0.31461275600E+03  0.80217555617E+02 0.  0.
          5    1    5    5  501    0 -0.22177557998E+02 -0.48843760210E+02  0.92802930562E+03  0.92959025332E+03  0.47000000000E+01 0. -1.
        -11    1    6    6    0    0 -0.32782117017E+02 -0.30365773858E+01  0.85802099345E+02  0.91901513863E+02  0.00000000000E+00 0.  1.
         12    1    6    6    0    0  0.42016048765E+02  0.19921651719E+02  0.21780283931E+03  0.22271124214E+03  0.00000000000E+00 0. -1.
         -5    1    3    3    0  503  0.11130133901E+02  0.38735297221E+02  0.38066528352E+03  0.38282169636E+03  0.47000000000E+01 0.  1.
         11    1    4    4    0    0 -0.19442123367E+02 -0.28016863575E+02  0.12860710550E+02  0.36446380910E+02  0.00000000000E+00 0. -1.
        -12    1    4    4    0    0  0.21255615716E+02  0.21240252231E+02  0.82219107498E+02  0.87538169687E+02  0.00000000000E+00 0.  1.
</event>
<event>
12    1  0.8196217E-002  0.1907819E+03  0.7818608E-02  0.1158521E+00
         21   -1    0    0  503  502  0.00000000000E+00  0.00000000000E+00  0.49599919499E+03  0.49599919499E+03  0.00000000000E+00 0.  1.
         21   -1    0    0  501  503 -0.00000000000E+00 -0.00000000000E+00 -0.47274662729E+03  0.47274662729E+03  0.00000000000E+00 0.  1.
          6    2    1    2  501    0 -0.44769595487E+01 -0.74643082087E+02 -0.43429993422E+03  0.47301198501E+03  0.17184956278E+03 0.  0.
         24    2    3    3    0    0 -0.34004660057E+02 -0.57240890144E+02 -0.12869241602E+03  0.16545261422E+03  0.79874859624E+02 0.  0.
         -6    2    1    2    0  502  0.44769595487E+01  0.74643082087E+02  0.45755250192E+03  0.49573383727E+03  0.17551670157E+03 0.  0.
        -24    2    5    5    0    0  0.34721440559E+02  0.96759286211E+02  0.22154231392E+03  0.25672180000E+03  0.79102135494E+02 0.  0.
          5    1    3    3  501    0  0.29527700508E+02 -0.17402191943E+02 -0.30560751820E+03  0.30755937079E+03  0.47000000000E+01 0. -1.
        -13    1    4    4    0    0 -0.54809758074E+01 -0.40333567173E+02 -0.12573897652E+03  0.13216326249E+03  0.00000000000E+00 0.  1.
         14    1    4    4    0    0 -0.28523684249E+02 -0.16907322970E+02 -0.29534394993E+01  0.33289351722E+02  0.00000000000E+00 0. -1.
         -5    1    5    5    0  502 -0.30244481010E+02 -0.22116204124E+02  0.23601018800E+03  0.23901203726E+03  0.47000000000E+01 0.  1.
         11    1    6    6    0    0 -0.17472664773E+01  0.43274381064E+02  0.25479936138E+02  0.50248901900E+02  0.00000000000E+00 0. -1.
        -12    1    6    6    0    0  0.36468707036E+02  0.53484905147E+02  0.19606237778E+03  0.20647289810E+03  0.00000000000E+00 0.  1.
</event>
<event>
12    1  0.8196217E-002  0.1838093E+03  0.7818608E-02  0.1164525E+00
         21   -1    0    0  503  502  0.00000000000E+00  0.00000000000E+00  0.30842119214E+03  0.30842119214E+03  0.00000000000E+00 0. -1.
         21   -1    0    0  501  503 -0.00000000000E+00 -0.00000000000E+00 -0.91993076863E+03  0.91993076863E+03  0.00000000000E+00 0.  1.
          6    2    1    2  501    0 -0.64953068709E+02 -0.21932600162E+01 -0.88267358279E+03  0.90160884699E+03  0.17193646409E+03 0.  0.
         24    2    3    3    0    0 -0.91834964006E+02  0.42757769374E+02 -0.56661070110E+03  0.58120119021E+03  0.80531046476E+02 0.  0.
         -6    2    1    2    0  502  0.64953068709E+02  0.21932600162E+01  0.27116400630E+03  0.32674311378E+03  0.17031568503E+03 0.  0.
        -24    2    5    5    0    0  0.78761180987E+02 -0.34817956841E+02  0.26010197181E+03  0.28545204035E+03  0.80088812277E+02 0.  0.
          5    1    3    3  501    0  0.26881895298E+02 -0.44951029390E+02 -0.31606288169E+03  0.32040765677E+03  0.47000000000E+01 0. -1.
        -11    1    4    4    0    0 -0.40954295307E+02  0.33778693077E+02 -0.45644144779E+03  0.45951828002E+03  0.00000000000E+00 0.  1.
         12    1    4    4    0    0 -0.50880668699E+02  0.89790762972E+01 -0.11016925331E+03  0.12168291020E+03  0.00000000000E+00 0. -1.
         -5    1    5    5    0  502 -0.13808112278E+02  0.37011216857E+02  0.11062034492E+02  0.41291073430E+02  0.47000000000E+01 0.  1.
         11    1    6    6    0    0  0.88253511895E+02 -0.87911759676E+01  0.17936856942E+03  0.20009760326E+03  0.00000000000E+00 0. -1.
        -12    1    6    6    0    0 -0.94923309082E+01 -0.26026780873E+02  0.80733402392E+02  0.85354437087E+02  0.00000000000E+00 0.  1.
</event>
<event>
12    1  0.8196217E-002  0.1941268E+03  0.7818608E-02  0.1156839E+00
         21   -1    0    0  503  502  0.00000000000E+00  0.00000000000E+00  0.31720124432E+03  0.31720124432E+03  0.00000000000E+00 0. -1.
         21   -1    0    0  501  503 -0.00000000000E+00 -0.00000000000E+00 -0.20680421744E+03  0.20680421744E+03  0.00000000000E+00 0. -1.
          6    2    1    2  501    0  0.47483241227E+01  0.91311710899E+02 -0.12022236979E+03  0.22833881327E+03  0.17124491327E+03 0.  0.
         24    2    3    3    0    0 -0.21985995797E+02  0.49526249961E+01 -0.45003903490E+01  0.81416105347E+02  0.78105161104E+02 0.  0.
         -6    2    1    2    0  502 -0.47483241227E+01 -0.91311710899E+02  0.23061939667E+03  0.29566664848E+03  0.16085112923E+03 0.  0.
        -24    2    5    5    0    0 -0.29768127344E+02  0.68037792444E+01  0.12076970479E+03  0.14619529750E+03  0.76520001290E+02 0.  0.
          5    1    3    3  501    0  0.26734319919E+02  0.86359085903E+02 -0.11572197944E+03  0.14692270793E+03  0.47000000000E+01 0. -1.
        -13    1    4    4    0    0  0.11970753716E+02  0.30315504118E+02  0.13616298437E+02  0.35323254629E+02  0.00000000000E+00 0.  1.
         14    1    4    4    0    0 -0.33956749513E+02 -0.25362879121E+02 -0.18116688786E+02  0.46092850719E+02  0.00000000000E+00 0. -1.
         -5    1    5    5    0  502  0.25019803222E+02 -0.98115490144E+02  0.10984969187E+03  0.14947135098E+03  0.47000000000E+01 0.  1.
         13    1    6    6    0    0 -0.36858104761E+02 -0.28326026038E+02  0.71046415687E+02  0.84902749188E+02  0.00000000000E+00 0. -1.
        -14    1    6    6    0    0  0.70899774170E+01  0.35129805282E+02  0.49723289107E+02  0.61292548312E+02  0.00000000000E+00 0.  1.
</event>
<event>
12    1  0.8196217E-002  0.2607147E+03  0.7818608E-02  0.1106809E+00
         21   -1    0    0  501  502  0.00000000000E+00  0.00000000000E+00  0.24319051764E+03  0.24319051764E+03  0.00000000000E+00 0.  1.
         21   -1    0    0  502  503 -0.00000000000E+00 -0.00000000000E+00 -0.15814353649E+04  0.15814353649E+04  0.00000000000E+00 0. -1.
         -6    2    1    2    0  503 -0.18396202838E+03  0.68688853357E+02 -0.14969698191E+04  0.15193951799E+04  0.17053705451E+03 0.  0.
        -24    2    3    3    0    0 -0.17170148406E+03  0.99910466394E+00 -0.10036974571E+04  0.10213269756E+04  0.78853077721E+02 0.  0.
          6    2    1    2  501    0  0.18396202838E+03 -0.68688853357E+02  0.15872497175E+03  0.30523070273E+03  0.17149920923E+03 0.  0.
         24    2    5    5    0    0  0.13558275433E+03 -0.26751250544E+02  0.30885916465E+02  0.16217745829E+03  0.79052358999E+02 0.  0.
          5    1    5    5  501    0  0.48379274048E+02 -0.41937602813E+02  0.12783905529E+03  0.14305324444E+03  0.47000000000E+01 0. -1.
        -11    1    6    6    0    0  0.17459886802E+02  0.30522306493E+00  0.36924073271E+02  0.40845171014E+02  0.00000000000E+00 0.  1.
         12    1    6    6    0    0  0.11812286753E+03 -0.27056473609E+02 -0.60381568062E+01  0.12133228727E+03  0.00000000000E+00 0. -1.
         -5    1    3    3    0  503 -0.12260544323E+02  0.67689748693E+02 -0.49327236194E+03  0.49806820425E+03  0.47000000000E+01 0.  1.
         13    1    4    4    0    0 -0.13165392723E+03 -0.24791359144E+01 -0.53728241611E+03  0.55318287873E+03  0.00000000000E+00 0. -1.
        -14    1    4    4    0    0 -0.40047556830E+02  0.34782405783E+01 -0.46641504101E+03  0.46814409688E+03  0.00000000000E+00 0.  1.
</event>
<event>
12    1  0.8196217E-002  0.1965528E+03  0.7818608E-02  0.1153738E+00
         21   -1    0    0  503  502  0.00000000000E+00  0.00000000000E+00  0.77222421060E+03  0.77222421060E+03  0.00000000000E+00 0. -1.
         21   -1    0    0  501  503 -0.00000000000E+00 -0.00000000000E+00 -0.14044631156E+03  0.14044631156E+03  0.00000000000E+00 0.  1.
          6    2    1    2  501    0  0.82007300766E+02  0.46615396733E+02 -0.51350782187E+02  0.20314994228E+03  0.17243782539E+03 0.  0.
         24    2    3    3    0    0  0.58420260672E+02  0.42579980391E+02 -0.99117587439E+02  0.14951794875E+03  0.85471277472E+02 0.  0.
         -6    2    1    2    0  502 -0.82007300766E+02 -0.46615396733E+02  0.68312868123E+03  0.70952057988E+03  0.16690256307E+03 0.  0.
        -24    2    5    5    0    0  0.36512679449E+01 -0.38421989743E+02  0.49181640517E+03  0.49969446309E+03  0.79508483841E+02 0.  0.
          5    1    3    3  501    0  0.23587040094E+02  0.40354163421E+01  0.47766805252E+02  0.53631993525E+02  0.47000000000E+01 0. -1.
        -13    1    4    4    0    0  0.17911502530E+02 -0.26424027358E+02 -0.28912698326E+02  0.43069656014E+02  0.00000000000E+00 0.  1.
         14    1    4    4    0    0  0.40508758142E+02  0.69004007750E+02 -0.70204889113E+02  0.10644829274E+03  0.00000000000E+00 0. -1.
         -5    1    5    5    0  502 -0.85658568711E+02 -0.81934069905E+01  0.19131227607E+03  0.20982611679E+03  0.47000000000E+01 0.  1.
         11    1    6    6    0    0 -0.76369346120E+01 -0.40649813681E+02  0.48404724859E+03  0.48581114539E+03  0.00000000000E+00 0. -1.
        -12    1    6    6    0    0  0.11288202557E+02  0.22278239378E+01  0.77691565797E+01  0.13883317702E+02  0.00000000000E+00 0.  1.
</event>
<event>
12    1  0.8196217E-002  0.2222218E+03  0.7818608E-02  0.1132259E+00
         21   -1    0    0  503  502  0.00000000000E+00  0.00000000000E+00  0.26246552862E+03  0.26246552862E+03  0.00000000000E+00 0.  1.
         21   -1    0    0  501  503 -0.00000000000E+00 -0.00000000000E+00 -0.68852340395E+03  0.68852340395E+03  0.00000000000E+00 0.  1.
          6    2    1    2  501    0 -0.11949912554E+03  0.70882620143E+02 -0.61840681829E+03  0.65708305861E+03  0.17328233079E+03 0.  0.
         24    2    3    3    0    0 -0.92357086526E+02  0.96471353134E+02 -0.58946317086E+03  0.60963521078E+03  0.79697597239E+02 0.  0.
         -6    2    1    2    0  502  0.11949912554E+03 -0.70882620143E+02  0.19234894296E+03  0.29390587396E+03  0.17343056260E+03 0.  0.
        -24    2    5    5    0    0  0.84660452493E+01 -0.10236533325E+02  0.25154266896E+02  0.84185959617E+02  0.79234324108E+02 0.  0.
          5    1    3    3  501    0 -0.27142039016E+02 -0.25588732991E+02 -0.28943647425E+02  0.47447847836E+02  0.47000000000E+01 0. -1.
        -11    1    4    4    0    0 -0.98709572043E+01  0.39134315740E+02 -0.31096421483E+03  0.31357243719E+03  0.00000000000E+00 0.  1.
         12    1    4    4    0    0 -0.82486129321E+02  0.57337037394E+02 -0.27849895604E+03  0.29606277358E+03  0.00000000000E+00 0. -1.
         -5    1    5    5    0  502  0.11103308029E+03 -0.60646086818E+02  0.16719467607E+03  0.20971991434E+03  0.47000000000E+01 0.  1.
         13    1    6    6    0    0  0.52159987230E+01 -0.13437424000E+02  0.53534694086E+02  0.55441270524E+02  0.00000000000E+00 0. -1.
        -14    1    6    6    0    0  0.32500465264E+01  0.32008906748E+01 -0.28380427190E+02  0.28744689092E+02  0.00000000000E+00 0.  1.
</event>
<event>
12    1  0.8196217E-002  0.3626014E+03  0.7818608E-02  0.1057720E+00
         21   -1    0    0  503  502  0.00000000000E+00  0.00000000000E+00  0.22830846272E+03  0.22830846272E+03  0.00000000000E+00 0. -1.
         21   -1    0    0  501  503 -0.00000000000E+00 -0.00000000000E+00 -0.57389625636E+03  0.57389625636E+03  0.00000000000E+00 0.  1.
          6    2    1    2  501    0  0.30234235373E+03 -0.10117285338E+03 -0.16005505502E+03  0.39635510798E+03  0.17272204799E+03 0.  0.
         24    2    3    3    0    0  0.32375799248E+02 -0.31011526741E+02 -0.30696999985E+02  0.88848768696E+02  0.70298582652E+02 0.  0.
         -6    2    1    2    0  502 -0.30234235373E+03  0.10117285338E+03 -0.18553273862E+03  0.40584961110E+03  0.16924734744E+03 0.  0.
        -24    2    5    5    0    0 -0.17067202239E+03  0.46169016831E+02 -0.32915270946E+02  0.19685994717E+03  0.80061891056E+02 0.  0.
          5    1    3    3  501    0  0.26996655448E+03 -0.70161326638E+02 -0.12935805504E+03  0.30750633928E+03  0.47000000000E+01 0. -1.
        -11    1    4    4    0    0 -0.78092886147E+01 -0.32291499440E+02 -0.35187824086E+02  0.48393273176E+02  0.00000000000E+00 0.  1.
         12    1    4    4    0    0  0.40185087863E+02  0.12799726989E+01  0.44908241012E+01  0.40455495520E+02  0.00000000000E+00 0. -1.
         -5    1    5    5    0  502 -0.13167033135E+03  0.55003836548E+02 -0.15261746767E+03  0.20898966393E+03  0.47000000000E+01 0.  1.
         11    1    6    6    0    0 -0.13936334243E+03  0.36962557333E+02 -0.58292710410E+02  0.15551981206E+03  0.00000000000E+00 0. -1.
        -12    1    6    6    0    0 -0.31308679958E+02  0.92064594984E+01  0.25377439464E+02  0.41340135111E+02  0.00000000000E+00 0.  1.
</event>
<event>
12    1  0.8196217E-002  0.2465965E+03  0.7818608E-02  0.1115753E+00
         21   -1    0    0  501  502  0.00000000000E+00  0.00000000000E+00  0.16942537182E+03  0.16942537182E+03  0.00000000000E+00 0.  1.
         21   -1    0    0  502  503 -0.00000000000E+00 -0.00000000000E+00 -0.39675750085E+03  0.39675750085E+03  0.00000000000E+00 0. -1.
         -6    2    1    2    0  503 -0.95076225573E+02 -0.14654503730E+03 -0.20358142169E+03  0.31844529829E+03  0.17160150383E+03 0.  0.
        -24    2    3    3    0    0 -0.34789810571E+02 -0.24434946490E+02 -0.23743919194E+02  0.92815195209E+02  0.79015753071E+02 0.  0.
          6    2    1    2  501    0  0.95076225573E+02  0.14654503730E+03 -0.23750707344E+02  0.24773757438E+03  0.17405422440E+03 0.  0.
         24    2    5    5    0    0  0.38436946317E+02  0.13021955587E+03 -0.70540823440E+02  0.17233244018E+03  0.79296472783E+02 0.  0.
          5    1    5    5  501    0  0.56639279255E+02  0.16325481435E+02  0.46790116097E+02  0.75405134195E+02  0.47000000000E+01 0. -1.
        -11    1    6    6    0    0 -0.20727946968E+02  0.55759605249E+02 -0.12094292066E+02  0.60704639556E+02  0.00000000000E+00 0.  1.
         12    1    6    6    0    0  0.59164893285E+02  0.74459950618E+02 -0.58446531374E+02  0.11162780063E+03  0.00000000000E+00 0. -1.
         -5    1    3    3    0  503 -0.60286415002E+02 -0.12211009081E+03 -0.17983750250E+03  0.22563010308E+03  0.47000000000E+01 0.  1.
         11    1    4    4    0    0  0.15173195428E+02 -0.11732404368E+02 -0.35125812576E+02  0.40021217884E+02  0.00000000000E+00 0. -1.
        -12    1    4    4    0    0 -0.49963005999E+02 -0.12702542122E+02  0.11381893382E+02  0.52793977325E+02  0.00000000000E+00 0.  1.
</event>
<event>
12    1  0.8196217E-002  0.2518360E+03  0.7818608E-02  0.1112178E+00
         21   -1    0    0  503  502  0.00000000000E+00  0.00000000000E+00  0.33023070313E+03  0.33023070313E+03  0.00000000000E+00 0.  1.
         21   -1    0    0  501  503 -0.00000000000E+00 -0.00000000000E+00 -0.19519011345E+03  0.19519011345E+03  0.00000000000E+00 0. -1.
          6    2    1    2  501    0  0.15867263408E+03 -0.93469643693E+02  0.33473471924E+02  0.25387479297E+03  0.17151780690E+03 0.  0.
         24    2    3    3    0    0  0.45759476636E+02 -0.11522195862E+02 -0.33940101089E+02  0.98854003534E+02  0.79959319991E+02 0.  0.
         -6    2    1    2    0  502 -0.15867263408E+03  0.93469643693E+02  0.10156711776E+03  0.27154602362E+03  0.17177830024E+03 0.  0.
        -24    2    5    5    0    0 -0.12368820008E+03  0.40340519939E+02  0.19625623901E+01  0.15326765761E+03  0.80999968095E+02 0.  0.
          5    1    3    3  501    0  0.11291315744E+03 -0.81947447831E+02  0.67413573012E+02  0.15502078943E+03  0.47000000000E+01 0. -1.
        -11    1    4    4    0    0  0.65252617604E+02  0.26107510429E+01 -0.36206487405E+02  0.74670140320E+02  0.00000000000E+00 0.  1.
         12    1    4    4    0    0 -0.19493140968E+02 -0.14132946905E+02  0.22663863165E+01  0.24183863214E+02  0.00000000000E+00 0. -1.
         -5    1    5    5    0  502 -0.34984433998E+02  0.53129123754E+02  0.99604555372E+02  0.11827836600E+03  0.47000000000E+01 0.  1.
         13    1    6    6    0    0 -0.82413981085E+02  0.45502869760E+02 -0.32142944115E+02  0.99477355670E+02  0.00000000000E+00 0. -1.
        -14    1    6    6    0    0 -0.41274218995E+02 -0.51623498216E+01  0.34105506505E+02  0.53790301945E+02  0.00000000000E+00 0.  1.
</event>
<event>
12    1  0.8196217E-002  0.2959255E+03  0.7818608E-02  0.1087929E+00
         21   -1    0    0  503  502  0.00000000000E+00  0.00000000000E+00  0.17978791577E+03  0.17978791577E+03  0.00000000000E+00 0.  1.
         21   -1    0    0  501  503 -0.00000000000E+00 -0.00000000000E+00 -0.10609116154E+04  0.10609116154E+04  0.00000000000E+00 0.  1.
          6    2    1    2  501    0 -0.18263969287E+03  0.14822956336E+03 -0.90166894355E+03  0.94898829252E+03  0.17956234211E+03 0.  0.
         24    2    3    3    0    0 -0.10875242174E+03  0.85898588353E+02 -0.30587457310E+03  0.34538453082E+03  0.80780956545E+02 0.  0.
         -6    2    1    2    0  502  0.18263969287E+03 -0.14822956336E+03  0.20545243873E+02  0.29171123870E+03  0.17130113507E+03 0.  0.
        -24    2    5    5    0    0  0.66930308155E+02 -0.63029374907E+01  0.34150841228E+02  0.10802936393E+03  0.77360651138E+02 0.  0.
          5    1    3    3  501    0 -0.73887271124E+02  0.62330975002E+02 -0.59579437045E+03  0.60360376170E+03  0.47000000000E+01 0. -1.
        -11    1    4    4    0    0 -0.37784989437E+02 -0.11854735298E+02 -0.73799368365E+02  0.83753130967E+02  0.00000000000E+00 0.  1.
         12    1    4    4    0    0 -0.70967432307E+02  0.97753323651E+02 -0.23207520474E+03  0.26163139985E+03  0.00000000000E+00 0. -1.
         -5    1    5    5    0  502  0.11570938471E+03 -0.14192662586E+03 -0.13605597355E+02  0.18368187477E+03  0.47000000000E+01 0.  1.
         11    1    6    6    0    0  0.23014192179E+01  0.24573936816E+02  0.26149482428E+02  0.35957896661E+02  0.00000000000E+00 0. -1.
        -12    1    6    6    0    0  0.64628888937E+02 -0.30876874306E+02  0.80013588004E+01  0.72071467272E+02  0.00000000000E+00 0.  1.
</event>
<event>
12    1  0.8196217E-002  0.1790465E+03  0.7818608E-02  0.1168802E+00
         21   -1    0    0  501  502  0.00000000000E+00  0.00000000000E+00  0.46567694709E+03  0.46567694709E+03  0.00000000000E+00 0.  1.
         21   -1    0    0  502  503 -0.00000000000E+00 -0.00000000000E+00 -0.82243899644E+02  0.82243899644E+02  0.00000000000E+00 0.  1.
         -6    2    1    2    0  503  0.44124368952E+02 -0.24319508783E+02  0.80515310590E+02  0.19604472877E+03  0.17150050145E+03 0.  0.
        -24    2    3    3    0    0  0.41322268412E+02 -0.58273992140E+02 -0.16430281728E+01  0.10697822926E+03  0.79613151974E+02 0.  0.
          6    2    1    2  501    0 -0.44124368952E+02  0.24319508783E+02  0.30291773686E+03  0.35187611796E+03  0.17181166621E+03 0.  0.
         24    2    5    5    0    0 -0.26896115568E+02  0.29642976134E+02  0.32012164759E+03  0.32651440343E+03  0.50315795972E+02 0.  0.
          5    1    5    5  501    0 -0.17228253384E+02 -0.53234673507E+01 -0.17203910736E+02  0.25361714530E+02  0.47000000000E+01 0. -1.
        -11    1    6    6    0    0 -0.39816979201E+02  0.20950611855E+02  0.18033174391E+03  0.18585978003E+03  0.00000000000E+00 0.  1.
         12    1    6    6    0    0  0.12920863633E+02  0.86923642787E+01  0.13978990368E+03  0.14065462340E+03  0.00000000000E+00 0. -1.
         -5    1    3    3    0  503  0.28021005401E+01  0.33954483357E+02  0.82158338763E+02  0.89066499514E+02  0.47000000000E+01 0.  1.
         13    1    4    4    0    0 -0.11006897275E+02  0.11098104541E+01  0.21785365097E+02  0.24433288753E+02  0.00000000000E+00 0. -1.
        -14    1    4    4    0    0  0.52329165687E+02 -0.59383802594E+02 -0.23428393269E+02  0.82544940506E+02  0.00000000000E+00 0.  1.
</event>
<event>
12    1  0.8196217E-002  0.1805109E+03  0.7818608E-02  0.1167559E+00
         21   -1    0    0  501  502  0.00000000000E+00  0.00000000000E+00  0.28474936268E+02  0.28474936268E+02  0.00000000000E+00 0.  1.
         21   -1    0    0  502  503 -0.00000000000E+00 -0.00000000000E+00 -0.12207930606E+04  0.12207930606E+04  0.00000000000E+00 0.  1.
         -6    2    1    2    0  503 -0.19012372422E+01 -0.52575389140E+02 -0.43487443052E+03  0.47085023900E+03  0.17267423374E+03 0.  0.
        -24    2    3    3    0    0  0.51030556980E+02 -0.43123174269E+01 -0.15260482667E+03  0.17959550824E+03  0.79646717635E+02 0.  0.
          6    2    1    2  501    0  0.19012372422E+01  0.52575389140E+02 -0.75744369383E+03  0.77841775789E+03  0.17159682464E+03 0.  0.
         24    2    5    5    0    0  0.60814071820E+02  0.59423165755E+02 -0.42420158269E+03  0.43990629758E+03  0.79631048811E+02 0.  0.
          5    1    5    5  501    0 -0.58912834578E+02 -0.68477766150E+01 -0.33324211114E+03  0.33851146031E+03  0.47000000000E+01 0. -1.
        -13    1    6    6    0    0  0.33337688839E+02  0.72641999075E+02 -0.23393664718E+03  0.24721370597E+03  0.00000000000E+00 0.  1.
         14    1    6    6    0    0  0.27476382982E+02 -0.13218833320E+02 -0.19026493551E+03  0.19269259161E+03  0.00000000000E+00 0. -1.
         -5    1    3    3    0  503 -0.52931794222E+02 -0.48263071713E+02 -0.28226960385E+03  0.29125473075E+03  0.47000000000E+01 0.  1.
         13    1    4    4    0    0  0.50673969374E+02 -0.10656927102E+02 -0.36586818706E+02  0.63403600611E+02  0.00000000000E+00 0. -1.
        -14    1    4    4    0    0  0.35658760568E+00  0.63446096746E+01 -0.11601800797E+03  0.11619190763E+03  0.00000000000E+00 0.  1.
</event>
<event>
12    1  0.8196217E-002  0.2528873E+03  0.7818608E-02  0.1111597E+00
         21   -1    0    0  503  502  0.00000000000E+00  0.00000000000E+00  0.90449359415E+02  0.90449359415E+02  0.00000000000E+00 0.  1.
         21   -1    0    0  501  503 -0.00000000000E+00 -0.00000000000E+00 -0.95067152414E+03  0.95067152414E+03  0.00000000000E+00 0. -1.
          6    2    1    2  501    0  0.13475127350E+03  0.12669135663E+03 -0.69505697613E+03  0.73963247727E+03  0.17246273745E+03 0.  0.
         24    2    3    3    0    0  0.80635760138E+02  0.15074105921E+03 -0.46789437397E+03  0.50483082735E+03  0.81878118637E+02 0.  0.
         -6    2    1    2    0  502 -0.13475127350E+03 -0.12669135663E+03 -0.16516518859E+03  0.30148840628E+03  0.17148502572E+03 0.  0.
        -24    2    5    5    0    0 -0.14328197843E+03 -0.13285214820E+03 -0.18494371731E+03  0.27859717483E+03  0.72338016476E+02 0.  0.
          5    1    3    3  501    0  0.54115513361E+02 -0.24049702580E+02 -0.22716260217E+03  0.23480164992E+03  0.47000000000E+01 0. -1.
        -11    1    4    4    0    0  0.73595610667E+02  0.14675948521E+03 -0.34928989838E+03  0.38595089522E+03  0.00000000000E+00 0.  1.
         12    1    4    4    0    0  0.70401494711E+01  0.39815740073E+01 -0.11860447558E+03  0.11887993213E+03  0.00000000000E+00 0. -1.
         -5    1    5    5    0  502  0.85307049278E+01  0.61607915676E+01  0.19778528716E+02  0.22891231454E+02  0.47000000000E+01 0.  1.
         13    1    6    6    0    0 -0.10088281745E+03 -0.45959499518E+02 -0.11099719005E+03  0.15687572996E+03  0.00000000000E+00 0. -1.
        -14    1    6    6    0    0 -0.42399160977E+02 -0.86892648684E+02 -0.73946527260E+02  0.12172144487E+03  0.00000000000E+00 0.  1.
</event>
<event>
12    1  0.8196217E-002  0.1963411E+03  0.7818608E-02  0.1153136E+00
         21   -1    0    0  501  502  0.00000000000E+00  0.00000000000E+00  0.56708983234E+02  0.56708983234E+02  0.00000000000E+00 0.  1.
         21   -1    0    0  502  503 -0.00000000000E+00 -0.00000000000E+00 -0.67764354912E+03  0.67764354912E+03  0.00000000000E+00 0.  1.
         -6    2    1    2    0  503  0.72534308889E+02 -0.60675972823E+02 -0.33043656716E+03  0.38372605861E+03  0.17062990212E+03 0.  0.
        -24    2    3    3    0    0 -0.18349489598E+02 -0.55487264110E+01 -0.19477059113E+03  0.21131310905E+03  0.79687858255E+02 0.  0.
          6    2    1    2  501    0 -0.72534308889E+02  0.60675972823E+02 -0.29049799872E+03  0.35062647374E+03  0.17206695552E+03 0.  0.
         24    2    5    5    0    0 -0.10488935759E+01  0.51446596014E+02 -0.72210189851E+02  0.12069821645E+03  0.81889532399E+02 0.  0.
          5    1    5    5  501    0 -0.71485415313E+02  0.92293768086E+01 -0.21828780887E+03  0.22992825729E+03  0.47000000000E+01 0. -1.
        -11    1    6    6    0    0 -0.11625190222E+02  0.71956075988E+02 -0.60985659501E+02  0.95037216837E+02  0.00000000000E+00 0.  1.
         12    1    6    6    0    0  0.10576296646E+02 -0.20509479974E+02 -0.11224530350E+02  0.25660999613E+02  0.00000000000E+00 0. -1.
         -5    1    3    3    0  503  0.90883798488E+02 -0.55127246412E+02 -0.13566597603E+03  0.17241294956E+03  0.47000000000E+01 0.  1.
         13    1    4    4    0    0 -0.30632608842E+02  0.17558124328E+02 -0.36089046298E+02  0.50488253259E+02  0.00000000000E+00 0. -1.
        -14    1    4    4    0    0  0.12283119244E+02 -0.23106850739E+02 -0.15868154484E+03  0.16082485579E+03  0.00000000000E+00 0.  1.
</event>
<event>
12    1  0.8196217E-002  0.2722576E+03  0.7818608E-02  0.1100420E+00
         21   -1    0    0  501  502  0.00000000000E+00  0.00000000000E+00  0.45726116788E+03  0.45726116788E+03  0.00000000000E+00 0. -1.
         21   -1    0    0  502  503 -0.00000000000E+00 -0.00000000000E+00 -0.16473378440E+03  0.16473378440E+03  0.00000000000E+00 0.  1.
         -6    2    1    2    0  503  0.86815258121E+02  0.18830475363E+03  0.19631648271E+03  0.33323773605E+03  0.17178957495E+03 0.  0.
        -24    2    3    3    0    0  0.45803696577E+02  0.17752813023E+03  0.20732459652E+03  0.28917695574E+03  0.83818898615E+02 0.  0.
          6    2    1    2  501    0 -0.86815258121E+02 -0.18830475363E+03  0.96210900768E+02  0.28875721624E+03  0.17643305591E+03 0.  0.
         24    2    5    5    0    0 -0.10493388943E+03 -0.18757835091E+03  0.43749474627E+02  0.23305170758E+03  0.78754828417E+02 0.  0.
          5    1    5    5  501    0  0.18118631308E+02 -0.72640272733E+00  0.52461426141E+02  0.55705508651E+02  0.47000000000E+01 0. -1.
        -11    1    6    6    0    0 -0.25083506283E+02 -0.12007952233E+03  0.95455472982E+01  0.12304223439E+03  0.00000000000E+00 0.  1.
         12    1    6    6    0    0 -0.79850383145E+02 -0.67498828571E+02  0.34203927329E+02  0.11000947319E+03  0.00000000000E+00 0. -1.
         -5    1    3    3    0  503  0.41011561544E+02  0.10776623401E+02 -0.11008113806E+02  0.44060780313E+02  0.47000000000E+01 0.  1.
         11    1    4    4    0    0  0.46256909072E+02  0.34007182895E+02  0.48965435587E+02  0.75457299233E+02  0.00000000000E+00 0. -1.
        -12    1    4    4    0    0 -0.45321249428E+00  0.14352094734E+03  0.15835916093E+03  0.21371965650E+03  0.00000000000E+00 0.  1.
</event>
<event>
12    1  0.8196217E-002  0.1768648E+03  0.7818608E-02  0.1171536E+00
         21   -1    0    0  503  502  0.00000000000E+00  0.00000000000E+00  0.55056829994E+03  0.55056829994E+03  0.00000000000E+00 0. -1.
         21   -1    0    0  501  503 -0.00000000000E+00 -0.00000000000E+00 -0.86352124520E+02  0.86352124520E+02  0.00000000000E+00 0. -1.
          6    2    1    2  501    0  0.19670905243E+02  0.80759330947E+01  0.44338506438E+02  0.18233772646E+03  0.17558182745E+03 0.  0.
         24    2    3    3    0    0 -0.17378381359E+02 -0.37813036121E+02  0.74075253857E+02  0.11611981891E+03  0.79150712378E+02 0.  0.
         -6    2    1    2    0  502 -0.19670905243E+02 -0.80759330947E+01  0.41987766898E+03  0.45458269800E+03  0.17290461880E+03 0.  0.
        -24    2    5    5    0    0  0.36865628804E+02  0.36597008871E+02  0.22660915914E+03  0.24826532519E+03  0.87095034536E+02 0.  0.
          5    1    3    3  501    0  0.37049286602E+02  0.45888969216E+02 -0.29736747420E+02  0.66217907552E+02  0.47000000000E+01 0. -1.
        -11    1    4    4    0    0  0.11442948740E+02  0.87638393616E+01  0.56929859335E+02  0.58726100161E+02  0.00000000000E+00 0.  1.
         12    1    4    4    0    0 -0.28821330098E+02 -0.46576875483E+02  0.17145394523E+02  0.57393718748E+02  0.00000000000E+00 0. -1.
         -5    1    5    5    0  502 -0.56536534047E+02 -0.44672941966E+02  0.19326850984E+03  0.20631737281E+03  0.47000000000E+01 0.  1.
         13    1    6    6    0    0 -0.12797364556E+02  0.27890520763E+01  0.15158928398E+03  0.15215407444E+03  0.00000000000E+00 0. -1.
        -14    1    6    6    0    0  0.49662993360E+02  0.33807956795E+02  0.75019875161E+02  0.96111250753E+02  0.00000000000E+00 0.  1.
</event>
<event>
12    1  0.8196217E-002  0.1849129E+03  0.7818608E-02  0.1163443E+00
         21   -1    0    0  501  502  0.00000000000E+00  0.00000000000E+00  0.32291877933E+03  0.32291877933E+03  0.00000000000E+00 0. -1.
         21   -1    0    0  502  503 -0.00000000000E+00 -0.00000000000E+00 -0.17204325005E+03  0.17204325005E+03  0.00000000000E+00 0. -1.
         -6    2    1    2    0  503 -0.62844162838E+02  0.12866513162E+02 -0.78738862060E+02  0.20097909400E+03  0.17342967411E+03 0.  0.
        -24    2    3    3    0    0  0.33455695833E+02  0.12129995550E+02 -0.46301086203E+02  0.99251494298E+02  0.80253648896E+02 0.  0.
          6    2    1    2  501    0  0.62844162838E+02 -0.12866513162E+02  0.22961439135E+03  0.29398293538E+03  0.17201238798E+03 0.  0.
         24    2    5    5    0    0  0.83777925894E+02 -0.24536214417E+02  0.81648267626E+02  0.14401471164E+03  0.80330759222E+02 0.  0.
          5    1    5    5  501    0 -0.20933763056E+02  0.11669701255E+02  0.14796612372E+03  0.14996822374E+03  0.47000000000E+01 0. -1.
        -11    1    6    6    0    0  0.34434285727E+02 -0.23322765135E+02 -0.73612196428E+01  0.42235754541E+02  0.00000000000E+00 0.  1.
         12    1    6    6    0    0  0.49343640168E+02 -0.12134492823E+01  0.89009487268E+02  0.10177895710E+03  0.00000000000E+00 0. -1.
         -5    1    3    3    0  503 -0.96299858671E+02  0.73651761210E+00 -0.32437775857E+02  0.10172759970E+03  0.47000000000E+01 0.  1.
         11    1    4    4    0    0  0.18482340220E+02 -0.18113592865E+02  0.14535736576E+02  0.29681421534E+02  0.00000000000E+00 0. -1.
        -12    1    4    4    0    0  0.14973355613E+02  0.30243588415E+02 -0.60836822779E+02  0.69570072764E+02  0.00000000000E+00 0.  1.
</event>
<event>
12    1  0.8196217E-002  0.1914268E+03  0.7818608E-02  0.1157213E+00
         21   -1    0    0  503  502  0.00000000000E+00  0.00000000000E+00  0.17132745988E+03  0.17132745988E+03  0.00000000000E+00 0. -1.
         21   -1    0    0  501  503 -0.00000000000E+00 -0.00000000000E+00 -0.86930452661E+03  0.86930452661E+03  0.00000000000E+00 0. -1.
          6    2    1    2  501    0 -0.48465841376E+02  0.68823974295E+02 -0.80087054443E+03  0.82343054332E+03  0.17192601175E+03 0.  0.
         24    2    3    3    0    0 -0.97672076468E+01 -0.26775711717E+02 -0.41039959379E+03  0.41954127940E+03  0.82308696089E+02 0.  0.
         -6    2    1    2    0  502  0.48465841376E+02 -0.68823974295E+02  0.10289347770E+03  0.21720144318E+03  0.17176647504E+03 0.  0.
        -24    2    5    5    0    0 -0.78971701645E+01  0.61431659384E+01  0.29821939879E+01  0.80083917685E+02  0.79400482407E+02 0.  0.
          5    1    3    3  501    0 -0.38698633729E+02  0.95599686012E+02 -0.39047095064E+03  0.40388926392E+03  0.47000000000E+01 0. -1.
        -11    1    4    4    0    0 -0.34597033488E+01 -0.45036323443E+02 -0.11562871804E+03  0.12413798940E+03  0.00000000000E+00 0.  1.
         12    1    4    4    0    0 -0.63075042981E+01  0.18260611726E+02 -0.29477087575E+03  0.29540329000E+03  0.00000000000E+00 0. -1.
         -5    1    5    5    0  502  0.56363011541E+02 -0.74967140234E+02  0.99911283712E+02  0.13711752549E+03  0.47000000000E+01 0.  1.
         11    1    6    6    0    0 -0.82662683471E+01 -0.27090601873E+02  0.26958569786E+02  0.39102383395E+02  0.00000000000E+00 0. -1.
        -12    1    6    6    0    0  0.36909818257E+00  0.33233767811E+02 -0.23976375798E+02  0.40981534291E+02  0.00000000000E+00 0.  1.
</event>
<event>
12    1  0.8196217E-002  0.2253735E+03  0.7818608E-02  0.1130072E+00
         21   -1    0    0  503  502  0.00000000000E+00  0.00000000000E+00  0.38472639713E+02  0.38472639713E+02  0.00000000000E+00 0.  1.
         21   -1    0    0  501  503 -0.00000000000E+00 -0.00000000000E+00 -0.22945372762E+04  0.22945372762E+04  0.00000000000E+00 0. -1.
          6    2    1    2  501    0  0.11096356904E+03 -0.93662058186E+02 -0.18908799564E+04  0.19042636901E+04  0.17235921055E+03 0.  0.
         24    2    3    3    0    0  0.14769680419E+03 -0.77688643585E+02 -0.15305287225E+04  0.15416625563E+04  0.79720735895E+02 0.  0.
         -6    2    1    2    0  502 -0.11096356904E+03  0.93662058186E+02 -0.36518468015E+03  0.42874622578E+03  0.17140006042E+03 0.  0.
        -24    2    5    5    0    0 -0.73792384618E+02  0.12458213400E+03 -0.32772849356E+03  0.36740452746E+03  0.81327099831E+02 0.  0.
          5    1    3    3  501    0 -0.36733235148E+02 -0.15973414601E+02 -0.36035123382E+03  0.36260113383E+03  0.47000000000E+01 0. -1.
        -13    1    4    4    0    0  0.53853555285E+00  0.52993872762E+01 -0.70051720961E+01  0.88003387515E+01  0.00000000000E+00 0.  1.
         14    1    4    4    0    0  0.14715826864E+03 -0.82988030861E+02 -0.15235235504E+04  0.15328622176E+04  0.00000000000E+00 0. -1.
         -5    1    5    5    0  502 -0.37171184424E+02 -0.30920075814E+02 -0.37456186589E+02  0.61341698327E+02  0.47000000000E+01 0.  1.
         11    1    6    6    0    0  0.11182729507E+02  0.24170973018E+01 -0.59814681007E+01  0.12910219178E+02  0.00000000000E+00 0. -1.
        -12    1    6    6    0    0 -0.84975114124E+02  0.12216503670E+03 -0.32174702546E+03  0.35449430828E+03  0.00000000000E+00 0.  1.
</event>
<event>
12    1  0.8196217E-002  0.2439018E+03  0.7818608E-02  0.1117823E+00
         21   -1    0    0  503  502  0.00000000000E+00  0.00000000000E+00  0.27133100332E+03  0.27133100332E+03  0.00000000000E+00 0. -1.
         21   -1    0    0  501  503 -0.00000000000E+00 -0.00000000000E+00 -0.35781199793E+03  0.35781199793E+03  0.00000000000E+00 0.  1.
          6    2    1    2  501    0  0.14215992387E+03  0.99352824142E+02 -0.24149539104E+03  0.34323185716E+03  0.17148660664E+03 0.  0.
         24    2    3    3    0    0  0.16949284889E+03  0.78803533768E+02 -0.22974748370E+03  0.30677002160E+03  0.79913184931E+02 0.  0.
         -6    2    1    2    0  502 -0.14215992387E+03 -0.99352824142E+02  0.15501439642E+03  0.28591114409E+03  0.16623865855E+03 0.  0.
        -24    2    5    5    0    0 -0.16511079723E+03 -0.56853522455E+02  0.13331975414E+03  0.23275401158E+03  0.76852941954E+02 0.  0.
          5    1    3    3  501    0 -0.27332925026E+02  0.20549290373E+02 -0.11747907334E+02  0.36461835555E+02  0.47000000000E+01 0. -1.
        -13    1    4    4    0    0  0.73779460529E+02  0.23962035332E+02 -0.15557010297E+03  0.17383798455E+03  0.00000000000E+00 0.  1.
         14    1    4    4    0    0  0.95713388364E+02  0.54841498437E+02 -0.74177380727E+02  0.13293203705E+03  0.00000000000E+00 0. -1.
         -5    1    5    5    0  502  0.22950873367E+02 -0.42499301687E+02  0.21694642285E+02  0.53157132504E+02  0.47000000000E+01 0.  1.
         13    1    6    6    0    0 -0.10620588235E+03 -0.23394952131E+02  0.12307595706E+03  0.16423977727E+03  0.00000000000E+00 0. -1.
        -14    1    6    6    0    0 -0.58904914883E+02 -0.33458570324E+02  0.10243797079E+02  0.68514234318E+02  0.00000000000E+00 0.  1.
</event>
<event>
12    1  0.8196217E-002  0.1890165E+03  0.7818608E-02  0.1159388E+00
         21   -1    0    0  501  502  0.00000000000E+00  0.00000000000E+00  0.40416585871E+03  0.40416585871E+03  0.00000000000E+00 0.  1.
         21   -1    0    0  502  503 -0.00000000000E+00 -0.00000000000E+00 -0.13342451921E+03  0.13342451921E+03  0.00000000000E+00 0. -1.
         -6    2    1    2    0  503 -0.78285889482E+02 -0.10373560621E+02 -0.20870163813E+02  0.19016519320E+03  0.17172928031E+03 0.  0.
        -24    2    3    3    0    0 -0.76461317710E+02 -0.59054341731E+02  0.18166001182E+02  0.12756279956E+03  0.81292778588E+02 0.  0.
          6    2    1    2  501    0  0.78285889482E+02  0.10373560621E+02  0.29161150331E+03  0.34742518472E+03  0.17155377834E+03 0.  0.
         24    2    5    5    0    0 -0.94871269293E+00  0.14671382014E+02  0.23770248605E+03  0.25137902086E+03  0.80453655901E+02 0.  0.
          5    1    5    5  501    0  0.79234602175E+02 -0.42978213934E+01  0.53909017265E+02  0.96046163864E+02  0.47000000000E+01 0. -1.
        -11    1    6    6    0    0 -0.39073614409E+02 -0.36275057935E+01  0.12435375397E+03  0.13039847494E+03  0.00000000000E+00 0.  1.
         12    1    6    6    0    0  0.38124901716E+02  0.18298887808E+02  0.11334873208E+03  0.12098054592E+03  0.00000000000E+00 0. -1.
         -5    1    3    3    0  503 -0.18245717720E+01  0.48680781110E+02 -0.39036164995E+02  0.62602393638E+02  0.47000000000E+01 0.  1.
         11    1    4    4    0    0 -0.96553626353E+00 -0.50086391781E+02  0.10162865197E+02  0.51116168978E+02  0.00000000000E+00 0. -1.
        -12    1    4    4    0    0 -0.75495781446E+02 -0.89679499496E+01  0.80031359852E+01  0.76446630587E+02  0.00000000000E+00 0.  1.
</event>
<event>
12    1  0.8196217E-002  0.2652642E+03  0.7818608E-02  0.1104048E+00
         21   -1    0    0  501  502  0.00000000000E+00  0.00000000000E+00  0.12412507426E+04  0.12412507426E+04  0.00000000000E+00 0. -1.
         21   -1    0    0  502  503 -0.00000000000E+00 -0.00000000000E+00 -0.83417311572E+02  0.83417311572E+02  0.00000000000E+00 0. -1.
         -6    2    1    2    0  503  0.48931233677E+02 -0.19630288885E+03  0.20385803124E+03  0.33454923867E+03  0.17156924665E+03 0.  0.
        -24    2    3    3    0    0 -0.15998576078E+02 -0.28948686472E+02  0.66988005507E+02  0.10876437826E+03  0.79046291573E+02 0.  0.
          6    2    1    2  501    0 -0.48931233677E+02  0.19630288885E+03  0.95397539976E+03  0.99011881547E+03  0.17128080920E+03 0.  0.
         24    2    5    5    0    0 -0.76592695001E+02  0.20627484138E+03  0.86697305383E+03  0.89816179031E+03  0.81465172825E+02 0.  0.
          5    1    5    5  501    0  0.27661461323E+02 -0.99719525297E+01  0.87002345926E+02  0.91957025160E+02  0.47000000000E+01 0. -1.
        -11    1    6    6    0    0 -0.29372657560E+02  0.11360415694E+03  0.30799839599E+03  0.32959318776E+03  0.00000000000E+00 0.  1.
         12    1    6    6    0    0 -0.47220037440E+02  0.92670684433E+02  0.55897465784E+03  0.56856860254E+03  0.00000000000E+00 0. -1.
         -5    1    3    3    0  503  0.64929809755E+02 -0.16735420238E+03  0.13687002573E+03  0.22578486041E+03  0.47000000000E+01 0.  1.
         11    1    4    4    0    0 -0.52485945276E+01 -0.46765839029E+02  0.10019348476E+02  0.48114226467E+02  0.00000000000E+00 0. -1.
        -12    1    4    4    0    0 -0.10749981550E+02  0.17817152558E+02  0.56968657031E+02  0.60650151793E+02  0.00000000000E+00 0.  1.
</event>
<event>
12    1  0.8196217E-002  0.2015431E+03  0.7818608E-02  0.1148670E+00
         21   -1    0    0  501  502  0.00000000000E+00  0.00000000000E+00  0.21292080104E+02  0.21292080104E+02  0.00000000000E+00 0.  1.
         21   -1    0    0  502  503 -0.00000000000E+00 -0.00000000000E+00 -0.20364398847E+04  0.20364398847E+04  0.00000000000E+00 0.  1.
         -6    2    1    2    0  503  0.93662139975E+02 -0.44914844632E+02 -0.12737731013E+04  0.12894507079E+04  0.17145050301E+03 0.  0.
        -24    2    3    3    0    0  0.40580529200E+02  0.36374432329E+02 -0.80333011387E+03  0.80907138039E+03  0.79292799440E+02 0.  0.
          6    2    1    2  501    0 -0.93662139975E+02  0.44914844632E+02 -0.74137470334E+03  0.76828125687E+03  0.17271276492E+03 0.  0.
         24    2    5    5    0    0 -0.59311653304E+02  0.94750947778E+02 -0.42375965977E+03  0.44491613968E+03  0.76697508285E+02 0.  0.
          5    1    5    5  501    0 -0.34350486671E+02 -0.49836103146E+02 -0.31761504357E+03  0.32336511719E+03  0.47000000000E+01 0. -1.
        -13    1    6    6    0    0 -0.38360168715E+02  0.60937449557E+02 -0.37566125352E+03  0.38250000353E+03  0.00000000000E+00 0.  1.
         14    1    6    6    0    0 -0.20951484589E+02  0.33813498221E+02 -0.48098406249E+02  0.62416136152E+02  0.00000000000E+00 0. -1.
         -5    1    3    3    0  503  0.53081610775E+02 -0.81289276961E+02 -0.47044298740E+03  0.48037932755E+03  0.47000000000E+01 0.  1.
         13    1    4    4    0    0 -0.99944847686E+01 -0.16829538769E+02 -0.98278252492E+02  0.10020847276E+03  0.00000000000E+00 0. -1.
        -14    1    4    4    0    0  0.50575013968E+02  0.53203971098E+02 -0.70505186138E+03  0.70886290763E+03  0.00000000000E+00 0.  1.
</event>
<event>
12    1  0.8196217E-002  0.2082599E+03  0.7818608E-02  0.1143202E+00
         21   -1    0    0  503  502  0.00000000000E+00  0.00000000000E+00  0.17769102519E+03  0.17769102519E+03  0.00000000000E+00 0.  1.
         21   -1    0    0  501  503 -0.00000000000E+00 -0.00000000000E+00 -0.29530010552E+03  0.29530010552E+03  0.00000000000E+00 0.  1.
          6    2    1    2  501    0  0.29264892014E+02 -0.11415001082E+03 -0.15882867472E+03  0.26191360895E+03  0.17171351655E+03 0.  0.
         24    2    3    3    0    0 -0.34573994996E+02 -0.19094935423E+02 -0.97260775275E+02  0.13182299785E+03  0.79734977687E+02 0.  0.
         -6    2    1    2    0  502 -0.29264892014E+02  0.11415001082E+03  0.41219594391E+02  0.21107752176E+03  0.17019990116E+03 0.  0.
        -24    2    5    5    0    0  0.62649259549E+01 -0.23068497123E+02  0.10900232672E+02  0.66051177313E+02  0.60601469416E+02 0.  0.
          5    1    3    3  501    0  0.63838887011E+02 -0.95055075398E+02 -0.61567899443E+02  0.13009061110E+03  0.47000000000E+01 0. -1.
        -11    1    4    4    0    0 -0.86441065639E+00 -0.26246522699E+02 -0.93547589833E+02  0.97163669770E+02  0.00000000000E+00 0.  1.
         12    1    4    4    0    0 -0.33709584340E+02  0.71515872760E+01 -0.37131854413E+01  0.34659328082E+02  0.00000000000E+00 0. -1.
         -5    1    5    5    0  502 -0.35529817969E+02  0.13721850794E+03  0.30319361718E+02  0.14502634444E+03  0.47000000000E+01 0.  1.
         11    1    6    6    0    0  0.10657567532E+02  0.58850577196E+01 -0.20040816023E+02  0.23448922298E+02  0.00000000000E+00 0. -1.
        -12    1    6    6    0    0 -0.43926415774E+01 -0.28953554843E+02  0.30941048695E+02  0.42602255016E+02  0.00000000000E+00 0.  1.
</event>
<event>
12    1  0.8196217E-002  0.2310300E+03  0.7818608E-02  0.1126008E+00
         21   -1    0    0  501  502  0.00000000000E+00  0.00000000000E+00  0.41788748228E+02  0.41788748228E+02  0.00000000000E+00 0.  1.
         21   -1    0    0  502  503 -0.00000000000E+00 -0.00000000000E+00 -0.12860214336E+04  0.12860214336E+04  0.00000000000E+00 0. -1.
         -6    2    1    2    0  503 -0.11133373294E+03 -0.10687249315E+03 -0.55965325263E+03  0.60546398130E+03  0.17192422628E+03 0.  0.
        -24    2    3    3    0    0 -0.87431208467E+02 -0.46191183373E+00 -0.29955766619E+03  0.32338890870E+03  0.84859656621E+02 0.  0.
          6    2    1    2  501    0  0.11133373294E+03  0.10687249315E+03 -0.68457943275E+03  0.72234620055E+03  0.17122530132E+03 0.  0.
         24    2    5    5    0    0  0.10111994110E+03  0.13426513065E+03 -0.46874833379E+03  0.50449342592E+03  0.80847069026E+02 0.  0.
          5    1    5    5  501    0  0.10213791847E+02 -0.27392637499E+02 -0.21583109896E+03  0.21785277462E+03  0.47000000000E+01 0. -1.
        -13    1    6    6    0    0  0.85873075920E+02  0.47192225155E+02 -0.25593171799E+03  0.27404805337E+03  0.00000000000E+00 0.  1.
         14    1    6    6    0    0  0.15246865176E+02  0.87072905492E+02 -0.21281661581E+03  0.23044537256E+03  0.00000000000E+00 0. -1.
         -5    1    3    3    0  503 -0.23902524476E+02 -0.10641058131E+03 -0.26009558644E+03  0.28207507259E+03  0.47000000000E+01 0.  1.
         13    1    4    4    0    0 -0.25429041923E+02  0.32200329592E+02 -0.18165893284E+03  0.18623497330E+03  0.00000000000E+00 0. -1.
        -14    1    4    4    0    0 -0.62002166544E+02 -0.32662241426E+02 -0.11789873335E+03  0.13715393540E+03  0.00000000000E+00 0.  1.
</event>
<event>
12    1  0.8196217E-002  0.1781044E+03  0.7818608E-02  0.1169790E+00
         21   -1    0    0  501  502  0.00000000000E+00  0.00000000000E+00  0.83608286984E+02  0.83608286984E+02  0.00000000000E+00 0.  1.
         21   -1    0    0  502  503 -0.00000000000E+00 -0.00000000000E+00 -0.51773098504E+03  0.51773098504E+03  0.00000000000E+00 0.  1.
         -6    2    1    2    0  503  0.27034799442E+01 -0.41745508405E+02 -0.37290189590E+03  0.41300663794E+03  0.17253597521E+03 0.  0.
        -24    2    3    3    0    0 -0.51747473648E+02  0.84052870954E+01 -0.26652863239E+03  0.28332483573E+03  0.80541919359E+02 0.  0.
          6    2    1    2  501    0 -0.27034799442E+01  0.41745508405E+02 -0.61220802153E+02  0.18833263408E+03  0.17312191706E+03 0.  0.
         24    2    5    5    0    0 -0.52116307900E+02  0.39077063847E+02 -0.84612412509E+02  0.13339625635E+03  0.79951074976E+02 0.  0.
          5    1    5    5  501    0  0.49412827955E+02  0.26684445581E+01  0.23391610356E+02  0.54936377729E+02  0.47000000000E+01 0. -1.
        -11    1    6    6    0    0  0.55433217056E+01  0.35533727179E+02 -0.69898278794E+01  0.36636482862E+02  0.00000000000E+00 0.  1.
         12    1    6    6    0    0 -0.57659629605E+02  0.35433366683E+01 -0.77622584630E+02  0.96759773488E+02  0.00000000000E+00 0. -1.
         -5    1    3    3    0  503  0.54450953592E+02 -0.50150795500E+02 -0.10637326350E+03  0.12968180221E+03  0.47000000000E+01 0.  1.
         13    1    4    4    0    0 -0.31804617394E+02 -0.25982942926E+02 -0.58162722274E+02  0.71200767363E+02  0.00000000000E+00 0. -1.
        -14    1    4    4    0    0 -0.19942856254E+02  0.34388230022E+02 -0.20836591012E+03  0.21212406836E+03  0.00000000000E+00 0.  1.
</event>
<event>
12    1  0.8196217E-002  0.2157711E+03  0.7818608E-02  0.1137979E+00
         21   -1    0    0  503  502  0.00000000000E+00  0.00000000000E+00  0.13576455776E+03  0.13576455776E+03  0.00000000000E+00 0. -1.
         21   -1    0    0  501  503 -0.00000000000E+00 -0.00000000000E+00 -0.35990794142E+03  0.35990794142E+03  0.00000000000E+00 0. -1.
          6    2    1    2  501    0 -0.97747973931E+02 -0.73906453514E+02 -0.46449568913E+02  0.21615101591E+03  0.17189202701E+03 0.  0.
         24    2    3    3    0    0 -0.50305086008E+02 -0.28430039123E+02  0.40831882285E+02  0.10679346655E+03  0.79992081379E+02 0.  0.
         -6    2    1    2    0  502  0.97747973931E+02  0.73906453514E+02 -0.17769381475E+03  0.27952148327E+03  0.17759599525E+03 0.  0.
        -24    2    5    5    0    0  0.63646158209E+02  0.10563338585E+03 -0.70624559376E+02  0.16266495791E+03  0.79137945926E+02 0.  0.
          5    1    3    3  501    0 -0.47442887922E+02 -0.45476414390E+02 -0.87281451198E+02  0.10935754937E+03  0.47000000000E+01 0. -1.
        -13    1    4    4    0    0 -0.61451769175E+02 -0.29383670477E+02  0.39252569398E+01  0.68228496007E+02  0.00000000000E+00 0.  1.
         14    1    4    4    0    0  0.11146683166E+02  0.95363135342E+00  0.36906625346E+02  0.38564970540E+02  0.00000000000E+00 0. -1.
         -5    1    5    5    0  502  0.34101815722E+02 -0.31726932333E+02 -0.10706925538E+03  0.11685652535E+03  0.47000000000E+01 0.  1.
         13    1    6    6    0    0  0.47480510392E+02  0.15540924384E+02 -0.45923338161E+02  0.67859208554E+02  0.00000000000E+00 0. -1.
        -14    1    6    6    0    0  0.16165647817E+02  0.90092461463E+02 -0.24701221215E+02  0.94805749358E+02  0.00000000000E+00 0.  1.
</event>
<event>
12    1  0.8196217E-002  0.2758414E+03  0.7818608E-02  0.1098030E+00
         21   -1    0    0  501  502  0.00000000000E+00  0.00000000000E+00  0.75737244396E+02  0.75737244396E+02  0.00000000000E+00 0. -1.
         21   -1    0    0  502  503 -0.00000000000E+00 -0.00000000000E+00 -0.12742966181E+04  0.12742966181E+04  0.00000000000E+00 0.  1.
         -6    2    1    2    0  503  0.19662816781E+03  0.88861559103E+02 -0.91080332003E+03  0.95165707035E+03  0.17184143479E+03 0.  0.
        -24    2    3    3    0    0  0.72646920980E+02  0.97261560666E+02 -0.58645246184E+03  0.60428482218E+03  0.80599441734E+02 0.  0.
          6    2    1    2  501    0 -0.19662816781E+03 -0.88861559103E+02 -0.28775605367E+03  0.39837679214E+03  0.17129363394E+03 0.  0.
         24    2    5    5    0    0 -0.47069111352E+02 -0.59191497830E+01 -0.15793740087E+03  0.18361569872E+03  0.80746298024E+02 0.  0.
          5    1    5    5  501    0 -0.14955905646E+03 -0.82942409320E+02 -0.12981865280E+03  0.21476109342E+03  0.47000000000E+01 0. -1.
        -11    1    6    6    0    0 -0.18760639022E+02 -0.42773705701E+02 -0.69959532860E+02  0.84118295952E+02  0.00000000000E+00 0.  1.
         12    1    6    6    0    0 -0.28308472330E+02  0.36854555918E+02 -0.87977868007E+02  0.99497402764E+02  0.00000000000E+00 0. -1.
         -5    1    3    3    0  503  0.12398124683E+03 -0.84000015631E+01 -0.32435085819E+03  0.34737224818E+03  0.47000000000E+01 0.  1.
         11    1    4    4    0    0  0.47302826465E+00  0.34987609795E+02 -0.61587260407E+02  0.70833235415E+02  0.00000000000E+00 0. -1.
        -12    1    4    4    0    0  0.72173892715E+02  0.62273950871E+02 -0.52486520143E+03  0.53345158676E+03  0.00000000000E+00 0.  1.
</event>
<event>
12    1  0.8196217E-002  0.1745306E+03  0.7818608E-02  0.1173627E+00
         21   -1    0    0  503  502  0.00000000000E+00  0.00000000000E+00  0.16956997820E+04  0.16956997820E+04  0.00000000000E+00 0.  1.
         21   -1    0    0  501  503 -0.00000000000E+00 -0.00000000000E+00 -0.22409553019E+02  0.22409553019E+02  0.00000000000E+00 0.  1.
          6    2    1    2  501    0 -0.44024472886E+01 -0.17482183629E+02  0.44989557552E+03  0.48256288926E+03  0.17359696117E+03 0.  0.
         24    2    3    3    0    0  0.31716720747E+02 -0.52727999678E+02  0.16464675633E+03  0.19284606078E+03  0.79340131493E+02 0.  0.
         -6    2    1    2    0  502  0.44024472886E+01  0.17482183629E+02  0.12233946534E+04  0.12355464457E+04  0.17191722787E+03 0.  0.
        -24    2    5    5    0    0 -0.46233339558E+02  0.51703446466E+02  0.90979309143E+03  0.91601067712E+03  0.80878447723E+02 0.  0.
          5    1    3    3  501    0 -0.36119168036E+02  0.35245816050E+02  0.28524881919E+03  0.28971682847E+03  0.47000000000E+01 0. -1.
        -13    1    4    4    0    0 -0.26373025808E+02 -0.23122692610E+02  0.52951416983E+02  0.63514155622E+02  0.00000000000E+00 0.  1.
         14    1    4    4    0    0  0.58089746555E+02 -0.29605307069E+02  0.11169533934E+03  0.12933190516E+03  0.00000000000E+00 0. -1.
         -5    1    5    5    0  502  0.50635786847E+02 -0.34221262837E+02  0.31360156200E+03  0.31953576863E+03  0.47000000000E+01 0.  1.
         13    1    6    6    0    0 -0.32223727163E+02  0.57340965322E+02  0.88140494210E+03  0.88385577265E+03  0.00000000000E+00 0. -1.
        -14    1    6    6    0    0 -0.14009612395E+02 -0.56375188563E+01  0.28388149334E+02  0.32154904462E+02  0.00000000000E+00 0.  1.
</event>
<event>
12    1  0.8196217E-002  0.2112014E+03  0.7818608E-02  0.1140641E+00
         21   -1    0    0  501  502  0.00000000000E+00  0.00000000000E+00  0.89653210120E+03  0.89653210120E+03  0.00000000000E+00 0.  1.
         21   -1    0    0  502  503 -0.00000000000E+00 -0.00000000000E+00 -0.86543226683E+02  0.86543226683E+02  0.00000000000E+00 0. -1.
         -6    2    1    2    0  503  0.37409435409E+02  0.11761867523E+03  0.84458734821E+02  0.22746272122E+03  0.17138375954E+03 0.  0.
        -24    2    3    3    0    0  0.32600914321E+02 -0.54745625730E+01  0.53701405678E+02  0.10040694463E+03  0.78134007371E+02 0.  0.
          6    2    1    2  501    0 -0.37409435409E+02 -0.11761867523E+03  0.72553013970E+03  0.75561260667E+03  0.17123904089E+03 0.  0.
         24    2    5    5    0    0  0.12111468579E+01 -0.84994189484E+01  0.43853666993E+03  0.44611962911E+03  0.81453088384E+02 0.  0.
          5    1    5    5  501    0 -0.38620582267E+02 -0.10911925628E+03  0.28699346977E+03  0.30949297756E+03  0.47000000000E+01 0. -1.
        -13    1    6    6    0    0  0.20965199215E+02 -0.32227888045E+02  0.35471459177E+03  0.35679212150E+03  0.00000000000E+00 0.  1.
         14    1    6    6    0    0 -0.19754052357E+02  0.23728469096E+02  0.83822078152E+02  0.89327507610E+02  0.00000000000E+00 0. -1.
         -5    1    3    3    0  503  0.48085210882E+01  0.12309323781E+03  0.30757329143E+02  0.12705577659E+03  0.47000000000E+01 0.  1.
         11    1    4    4    0    0  0.38089054887E+02 -0.13800664325E+02  0.70245130174E+02  0.81090151999E+02  0.00000000000E+00 0. -1.
        -12    1    4    4    0    0 -0.54881405667E+01  0.83261017516E+01 -0.16543724496E+02  0.19316792629E+02  0.00000000000E+00 0.  1.
</event>
<event>
12    1  0.8196217E-002  0.1865674E+03  0.7818608E-02  0.1161898E+00
         21   -1    0    0  503  502  0.00000000000E+00  0.00000000000E+00  0.48972300011E+02  0.48972300011E+02  0.00000000000E+00 0. -1.
         21   -1    0    0  501  503 -0.00000000000E+00 -0.00000000000E+00 -0.73664477108E+03  0.73664477108E+03  0.00000000000E+00 0. -1.
          6    2    1    2  501    0 -0.24761563412E+02  0.66621474650E+02 -0.42541937891E+03  0.46453099799E+03  0.17249882384E+03 0.  0.
         24    2    3    3    0    0 -0.69236818470E+02  0.41262491751E+02 -0.38135863977E+03  0.39682158165E+03  0.74408502750E+02 0.  0.
         -6    2    1    2    0  502  0.24761563412E+02 -0.66621474650E+02 -0.26225309216E+03  0.32108607311E+03  0.17107900541E+03 0.  0.
        -24    2    5    5    0    0 -0.82905141973E+01 -0.57014830702E+02 -0.26925100923E+03  0.28564896988E+03  0.76025025331E+02 0.  0.
          5    1    3    3  501    0  0.44475255059E+02  0.25358982899E+02 -0.44060739146E+02  0.67709416334E+02  0.47000000000E+01 0. -1.
        -13    1    4    4    0    0 -0.57747002833E+02  0.20798870989E+01 -0.13132542512E+03  0.14347616369E+03  0.00000000000E+00 0.  1.
         14    1    4    4    0    0 -0.11489815637E+02  0.39182604652E+02 -0.25003321465E+03  0.25334541796E+03  0.00000000000E+00 0. -1.
         -5    1    5    5    0  502  0.33052077609E+02 -0.96066439476E+01  0.69979170680E+01  0.35437103232E+02  0.47000000000E+01 0.  1.
         13    1    6    6    0    0 -0.17714936939E+02  0.14140595198E+02 -0.83208046748E+02  0.86240097790E+02  0.00000000000E+00 0. -1.
        -14    1    6    6    0    0  0.94244227415E+01 -0.71155425899E+02 -0.18604296248E+03  0.19940887209E+03  0.00000000000E+00 0.  1.
</event>
<event>
12    1  0.8196217E-002  0.2078966E+03  0.7818608E-02  0.1144671E+00
         21   -1    0    0  503  502  0.00000000000E+00  0.00000000000E+00  0.27177403754E+03  0.27177403754E+03  0.00000000000E+00 0. -1.
         21   -1    0    0  501  503 -0.00000000000E+00 -0.00000000000E+00 -0.17006760496E+03  0.17006760496E+03  0.00000000000E+00 0. -1.
          6    2    1    2  501    0 -0.14568355400E+02 -0.11346354579E+03 -0.16828633142E+02  0.20857661239E+03  0.17359374165E+03 0.  0.
         24    2    3    3    0    0 -0.38885251199E+02 -0.10973555175E+01  0.11448719412E+02  0.90089605482E+02  0.80447479077E+02 0.  0.
         -6    2    1    2    0  502  0.14568355400E+02  0.11346354579E+03  0.11853506572E+03  0.23326503012E+03  0.16515386543E+03 0.  0.
        -24    2    5    5    0    0  0.19423869151E+02  0.11457301581E+03  0.14338409732E+03  0.20748962888E+03  0.94808670935E+02 0.  0.
          5    1    3    3  501    0  0.24316895799E+02 -0.11236619027E+03 -0.28277352554E+02  0.11848700690E+03  0.47000000000E+01 0. -1.
        -13    1    4    4    0    0 -0.70821771555E+00  0.24439877845E+02 -0.22300571816E+02  0.33092668444E+02  0.00000000000E+00 0.  1.
         14    1    4    4    0    0 -0.38177033483E+02 -0.25537233362E+02  0.33749291228E+02  0.56996937038E+02  0.00000000000E+00 0. -1.
         -5    1    5    5    0  502 -0.48555137519E+01 -0.11094700223E+01 -0.24849031597E+02  0.25775401235E+02  0.47000000000E+01 0.  1.
         13    1    6    6    0    0  0.51455811940E+01  0.12512133442E+03  0.98826284948E+02  0.15952573438E+03  0.00000000000E+00 0. -1.
        -14    1    6    6    0    0  0.14278287958E+02 -0.10548318608E+02  0.44557812372E+02  0.47963894502E+02  0.00000000000E+00 0.  1.
</event>
<event>
12    1  0.8196217E-002  0.2399442E+03  0.7818608E-02  0.1121475E+00
         21   -1    0    0  501  502  0.00000000000E+00  0.00000000000E+00  0.79652573838E+03  0.79652573838E+03  0.00000000000E+00 0.  1.
         21   -1    0    0  502  503 -0.00000000000E+00 -0.00000000000E+00 -0.74275447391E+02  0.74275447391E+02  0.00000000000E+00 0. -1.
         -6    2    1    2    0  503 -0.15330745689E+03  0.31138491116E+01  0.24266326401E+03  0.33453917431E+03  0.17180840216E+03 0.  0.
        -24    2    3    3    0    0 -0.18776087491E+02 -0.12901004683E+02  0.39106405554E+02  0.89972926599E+02  0.77761424769E+02 0.  0.
          6    2    1    2  501    0  0.15330745689E+03 -0.31138491116E+01  0.47958702698E+03  0.53626201146E+03  0.18455448003E+03 0.  0.
         24    2    5    5    0    0  0.12781318656E+03  0.31268129984E+01  0.48606008795E+03  0.50882309382E+03  0.79375966706E+02 0.  0.
          5    1    5    5  501    0  0.25494270328E+02 -0.62406621100E+01 -0.64730609701E+01  0.27438917644E+02  0.47000000000E+01 0. -1.
        -11    1    6    6    0    0  0.10759217993E+03  0.19689343097E+00  0.47178561583E+03  0.48389852578E+03  0.00000000000E+00 0.  1.
         12    1    6    6    0    0  0.20221006624E+02  0.29299195674E+01  0.14274472116E+02  0.24924568035E+02  0.00000000000E+00 0. -1.
         -5    1    3    3    0  503 -0.13453136940E+03  0.16014853794E+02  0.20355685846E+03  0.24456624771E+03  0.47000000000E+01 0.  1.
         13    1    4    4    0    0  0.54641382741E-01 -0.42107881971E+02  0.70490930052E+01  0.42693868669E+02  0.00000000000E+00 0. -1.
        -14    1    4    4    0    0 -0.18830728873E+02  0.29206877288E+02  0.32057312549E+02  0.47279057929E+02  0.00000000000E+00 0.  1.
</event>
<event>
12    1  0.8196217E-002  0.1839053E+03  0.7818608E-02  0.1169003E+00
         21   -1    0    0  503  502  0.00000000000E+00  0.00000000000E+00  0.10988409309E+03  0.10988409309E+03  0.00000000000E+00 0. -1.
         21   -1    0    0  501  503 -0.00000000000E+00 -0.00000000000E+00 -0.32750965111E+03  0.32750965111E+03  0.00000000000E+00 0. -1.
          6    2    1    2  501    0 -0.35566731824E+01  0.66858546232E+02 -0.19050785373E+03  0.25149988246E+03  0.14992075713E+03 0.  0.
         24    2    3    3    0    0 -0.34196507513E+02  0.54047584317E+02 -0.65674038434E+02  0.12223855169E+03  0.80861868007E+02 0.  0.
         -6    2    1    2    0  502  0.35566731824E+01 -0.66858546232E+02 -0.27117704296E+02  0.18589386174E+03  0.17128468354E+03 0.  0.
        -24    2    5    5    0    0  0.38966058192E+02  0.16767251039E+02 -0.23621322988E+02  0.94891591444E+02  0.81528846604E+02 0.  0.
          5    1    3    3  501    0  0.30639834331E+02  0.12810961916E+02 -0.12483381530E+03  0.12926133078E+03  0.47000000000E+01 0. -1.
        -13    1    4    4    0    0  0.39588705870E+01  0.23468651340E+02  0.14834223446E+02  0.28044686435E+02  0.00000000000E+00 0.  1.
         14    1    4    4    0    0 -0.38155378100E+02  0.30578932977E+02 -0.80508261880E+02  0.94193865251E+02  0.00000000000E+00 0. -1.
         -5    1    5    5    0  502 -0.35409385009E+02 -0.83625797271E+02 -0.34963813082E+01  0.91002270292E+02  0.47000000000E+01 0.  1.
         13    1    6    6    0    0 -0.19532146447E+02 -0.15642351672E+02 -0.60081716703E+01  0.25734918641E+02  0.00000000000E+00 0. -1.
        -14    1    6    6    0    0  0.58498204639E+02  0.32409602710E+02 -0.17613151318E+02  0.69156672803E+02  0.00000000000E+00 0.  1.
</event>
<event>
12    1  0.8196217E-002  0.1790992E+03  0.7818608E-02  0.1168755E+00
         21   -1    0    0  503  502  0.00000000000E+00  0.00000000000E+00  0.29528632159E+03  0.29528632159E+03  0.00000000000E+00 0.  1.
         21   -1    0    0  501  503 -0.00000000000E+00 -0.00000000000E+00 -0.12359165842E+03  0.12359165842E+03  0.00000000000E+00 0.  1.
          6    2    1    2  501    0 -0.12747223037E+02  0.47144771398E+02  0.12440014381E+02  0.17921450566E+03  0.17198245235E+03 0.  0.
         24    2    3    3    0    0 -0.27014133678E+02 -0.32581026458E+02 -0.10071520989E+02  0.95020641227E+02  0.84476032226E+02 0.  0.
         -6    2    1    2    0  502  0.12747223037E+02 -0.47144771398E+02  0.15925464879E+03  0.23966347434E+03  0.17231197465E+03 0.  0.
        -24    2    5    5    0    0 -0.35727633129E+01  0.28403683846E+01  0.10668790941E+02  0.81978017480E+02  0.81152571860E+02 0.  0.
          5    1    3    3  501    0  0.14266910641E+02  0.79725797857E+02  0.22511535370E+02  0.84193864431E+02  0.47000000000E+01 0. -1.
        -11    1    4    4    0    0 -0.52100086480E+02 -0.15601473964E+02  0.14194384464E+02  0.56207700107E+02  0.00000000000E+00 0.  1.
         12    1    4    4    0    0  0.25085952802E+02 -0.16979552495E+02 -0.24265905453E+02  0.38812941119E+02  0.00000000000E+00 0. -1.
         -5    1    5    5    0  502  0.16319986350E+02 -0.49985139783E+02  0.14858585785E+03  0.15768545686E+03  0.47000000000E+01 0.  1.
         11    1    6    6    0    0 -0.14642345091E+02 -0.36844792013E+02  0.10082221946E+01  0.39660477559E+02  0.00000000000E+00 0. -1.
        -12    1    6    6    0    0  0.11069581778E+02  0.39685160397E+02  0.96605687465E+01  0.42317539921E+02  0.00000000000E+00 0.  1.
</event>
<event>
12    1  0.8196217E-002  0.2473577E+03  0.7818608E-02  0.1115011E+00
         21   -1    0    0  501  502  0.00000000000E+00  0.00000000000E+00  0.62058760419E+02  0.62058760419E+02  0.00000000000E+00 0. -1.
         21   -1    0    0  502  503 -0.00000000000E+00 -0.00000000000E+00 -0.10067150479E+04  0.10067150479E+04  0.00000000000E+00 0.  1.
         -6    2    1    2    0  503  0.17801887900E+02 -0.17738707911E+03 -0.55038936336E+03  0.60341883744E+03  0.17147232728E+03 0.  0.
        -24    2    3    3    0    0 -0.19025353320E+02 -0.16999634139E+03 -0.52505348804E+03  0.55786814833E+03  0.79214805825E+02 0.  0.
          6    2    1    2  501    0 -0.17801887900E+02  0.17738707911E+03 -0.39426692410E+03  0.46535497086E+03  0.17124765230E+03 0.  0.
         24    2    5    5    0    0 -0.11020510853E+02  0.76614153710E+02 -0.32404018406E+03  0.34224910348E+03  0.78365985823E+02 0.  0.
          5    1    5    5  501    0 -0.67813770461E+01  0.10077292540E+03 -0.70226740034E+02  0.12310586739E+03  0.47000000000E+01 0. -1.
        -13    1    6    6    0    0 -0.27357979211E+02 -0.31382160019E+01 -0.10562702370E+03  0.10915757217E+03  0.00000000000E+00 0.  1.
         14    1    6    6    0    0  0.16337468357E+02  0.79752369711E+02 -0.21841316037E+03  0.23309153131E+03  0.00000000000E+00 0. -1.
         -5    1    3    3    0  503  0.36827241219E+02 -0.73907377220E+01 -0.25335875325E+02  0.45550689109E+02  0.47000000000E+01 0.  1.
         11    1    4    4    0    0 -0.29830006999E+02 -0.22586378225E+02 -0.69431574408E+02  0.78871524162E+02  0.00000000000E+00 0. -1.
        -12    1    4    4    0    0  0.10804653679E+02 -0.14740996317E+03 -0.45562191363E+03  0.47899662416E+03  0.00000000000E+00 0.  1.
</event>
<event>
12    1  0.8196217E-002  0.2099310E+03  0.7818608E-02  0.1141768E+00
         21   -1    0    0  501  502  0.00000000000E+00  0.00000000000E+00  0.77950090024E+03  0.77950090024E+03  0.00000000000E+00 0. -1.
         21   -1    0    0  502  503 -0.00000000000E+00 -0.00000000000E+00 -0.60767423661E+02  0.60767423661E+02  0.00000000000E+00 0.  1.
         -6    2    1    2    0  503 -0.98170320846E+02 -0.69821108807E+02  0.24534891489E+03  0.32242281001E+03  0.17102040595E+03 0.  0.
        -24    2    3    3    0    0 -0.62751051842E+02 -0.74990294597E+01  0.54122840673E+02  0.11814831907E+03  0.83879755997E+02 0.  0.
          6    2    1    2  501    0  0.98170320846E+02  0.69821108807E+02  0.47338456169E+03  0.51784551389E+03  0.17192624545E+03 0.  0.
         24    2    5    5    0    0  0.74115284498E+02  0.30310164142E+02  0.13567585451E+03  0.17695107212E+03  0.80572718590E+02 0.  0.
          5    1    5    5  501    0  0.24055036348E+02  0.39510944665E+02  0.33770870718E+03  0.34089444177E+03  0.47000000000E+01 0. -1.
        -13    1    6    6    0    0  0.36549727598E+02  0.54279034591E+02  0.10161983426E+03  0.12086640103E+03  0.00000000000E+00 0.  1.
         14    1    6    6    0    0  0.37565556900E+02 -0.23968870448E+02  0.34056020252E+02  0.56084671090E+02  0.00000000000E+00 0. -1.
         -5    1    3    3    0  503 -0.35419269004E+02 -0.62322079347E+02  0.19122607421E+03  0.20427449094E+03  0.47000000000E+01 0.  1.
         11    1    4    4    0    0 -0.63252206818E+02 -0.13585573168E+02  0.73450090885E+02  0.97879136269E+02  0.00000000000E+00 0. -1.
        -12    1    4    4    0    0  0.50115497603E+00  0.60865437086E+01 -0.19327250212E+02  0.20269182800E+02  0.00000000000E+00 0.  1.
</event>
<event>
12    1  0.8196217E-002  0.1854741E+03  0.7818608E-02  0.1162721E+00
         21   -1    0    0  503  502  0.00000000000E+00  0.00000000000E+00  0.10991202307E+03  0.10991202307E+03  0.00000000000E+00 0. -1.
         21   -1    0    0  501  503 -0.00000000000E+00 -0.00000000000E+00 -0.48740273216E+03  0.48740273216E+03  0.00000000000E+00 0. -1.
          6    2    1    2  501    0  0.12069453957E+02  0.68500025586E+02 -0.36798191244E+03  0.41208168043E+03  0.17193806513E+03 0.  0.
         24    2    3    3    0    0 -0.52552620804E+02  0.39916095389E+02 -0.28500395474E+03  0.30299233596E+03  0.78879837807E+02 0.  0.
         -6    2    1    2    0  502 -0.12069453957E+02 -0.68500025586E+02 -0.95087966483E+01  0.18523307479E+03  0.17141455468E+03 0.  0.
        -24    2    5    5    0    0 -0.26264834078E+02 -0.78359035322E+02  0.47644937653E+02  0.12533859896E+03  0.81300334443E+02 0.  0.
          5    1    3    3  501    0  0.64622074761E+02  0.28583930197E+02 -0.82977957708E+02  0.10908934447E+03  0.47000000000E+01 0. -1.
        -11    1    4    4    0    0 -0.42625259046E+01 -0.21889781996E+02 -0.40737900453E+02  0.46442525946E+02  0.00000000000E+00 0.  1.
         12    1    4    4    0    0 -0.48290094899E+02  0.61805877385E+02 -0.24426605428E+03  0.25654981002E+03  0.00000000000E+00 0. -1.
         -5    1    5    5    0  502  0.14195380121E+02  0.98590097358E+01 -0.57153734301E+02  0.59894475825E+02  0.47000000000E+01 0.  1.
         13    1    6    6    0    0 -0.20144301219E+02 -0.95535561300E+02  0.41589087467E+02  0.10612487240E+03  0.00000000000E+00 0. -1.
        -14    1    6    6    0    0 -0.61205328588E+01  0.17176525979E+02  0.60558501860E+01  0.19213726568E+02  0.00000000000E+00 0.  1.
</event>
<event>
12    1  0.8196217E-002  0.2144955E+03  0.7818608E-02  0.1139892E+00
         21   -1    0    0  503  502  0.00000000000E+00  0.00000000000E+00  0.61515405882E+03  0.61515405882E+03  0.00000000000E+00 0. -1.
         21   -1    0    0  501  503 -0.00000000000E+00 -0.00000000000E+00 -0.44832670213E+03  0.44832670213E+03  0.00000000000E+00 0.  1.
          6    2    1    2  501    0  0.24105199377E+02 -0.11149869799E+03 -0.40371875485E+03  0.45716207941E+03  0.18164612173E+03 0.  0.
         24    2    3    3    0    0 -0.47217751981E+02 -0.38271967699E+02 -0.27575692405E+03  0.29331630570E+03  0.79361920428E+02 0.  0.
         -6    2    1    2    0  502 -0.24105199377E+02  0.11149869799E+03  0.57054611155E+03  0.60631868153E+03  0.17054752383E+03 0.  0.
        -24    2    5    5    0    0 -0.15647391734E+02  0.14688669938E+03  0.46816203942E+03  0.49756008014E+03  0.81054271159E+02 0.  0.
          5    1    3    3  501    0  0.71322951358E+02 -0.73226730294E+02 -0.12796183080E+03  0.16384577371E+03  0.47000000000E+01 0. -1.
        -11    1    4    4    0    0  0.18355134666E+02 -0.24722521716E+02 -0.60487120878E+02  0.67873454610E+02  0.00000000000E+00 0.  1.
         12    1    4    4    0    0 -0.65572886647E+02 -0.13549445983E+02 -0.21526980318E+03  0.22544285109E+03  0.00000000000E+00 0. -1.
         -5    1    5    5    0  502 -0.84578076432E+01 -0.35388001384E+02  0.10238407212E+03  0.10875860139E+03  0.47000000000E+01 0.  1.
         13    1    6    6    0    0 -0.25846708548E+02  0.85111290055E+01  0.11365425522E+03  0.11686651098E+03  0.00000000000E+00 0. -1.
        -14    1    6    6    0    0  0.10199316814E+02  0.13837557037E+03  0.35450778421E+03  0.38069356916E+03  0.00000000000E+00 0.  1.
</event>
<event>
12    1  0.8196217E-002  0.2354570E+03  0.7818608E-02  0.1122926E+00
         21   -1    0    0  503  502  0.00000000000E+00  0.00000000000E+00  0.35085768545E+03  0.35085768545E+03  0.00000000000E+00 0.  1.
         21   -1    0    0  501  503 -0.00000000000E+00 -0.00000000000E+00 -0.30979808214E+03  0.30979808214E+03  0.00000000000E+00 0.  1.
          6    2    1    2  501    0 -0.15985324091E+03 -0.19198798250E+02 -0.21088595535E+03  0.31609002198E+03  0.17180908983E+03 0.  0.
         24    2    3    3    0    0 -0.10973323704E+03  0.54510602483E+02 -0.12399662260E+03  0.19152302519E+03  0.79329172860E+02 0.  0.
         -6    2    1    2    0  502  0.15985324091E+03  0.19198798250E+02  0.25194555866E+03  0.34456574561E+03  0.17125225848E+03 0.  0.
        -24    2    5    5    0    0  0.17534202051E+03  0.50644813190E+02  0.22231204400E+03  0.29842477314E+03  0.79529736961E+02 0.  0.
          5    1    3    3  501    0 -0.50120003870E+02 -0.73709400732E+02 -0.86889332751E+02  0.12456699679E+03  0.47000000000E+01 0. -1.
        -11    1    4    4    0    0 -0.96044658718E+02  0.82259989102E+01 -0.94310666452E+02  0.13485824162E+03  0.00000000000E+00 0.  1.
         12    1    4    4    0    0 -0.13688578323E+02  0.46284603572E+02 -0.29685956144E+02  0.56664783566E+02  0.00000000000E+00 0. -1.
         -5    1    5    5    0  502 -0.15488779594E+02 -0.31446014940E+02  0.29633514664E+02  0.46140972467E+02  0.47000000000E+01 0.  1.
         13    1    6    6    0    0  0.20579540493E+02  0.38309564235E+02  0.56118047003E+02  0.70995601260E+02  0.00000000000E+00 0. -1.
        -14    1    6    6    0    0  0.15476248001E+03  0.12335248954E+02  0.16619399699E+03  0.22742917188E+03  0.00000000000E+00 0.  1.
</event>
<event>
12    1  0.8196217E-002  0.2933200E+03  0.7818608E-02  0.1088689E+00
         21   -1    0    0  503  502  0.00000000000E+00  0.00000000000E+00  0.13728096658E+03  0.13728096658E+03  0.00000000000E+00 0.  1.
         21   -1    0    0  501  503 -0.00000000000E+00 -0.00000000000E+00 -0.12316704738E+04  0.12316704738E+04  0.00000000000E+00 0. -1.
          6    2    1    2  501    0  0.58066891881E+02  0.23015328006E+03 -0.10275227829E+04  0.10685690031E+04  0.17232048264E+03 0.  0.
         24    2    3    3    0    0  0.75551721924E+02  0.19558326604E+03 -0.62163591449E+03  0.66081044083E+03  0.79236051696E+02 0.  0.
         -6    2    1    2    0  502 -0.58066891881E+02 -0.23015328006E+03 -0.66866724343E+02  0.30038243731E+03  0.17151138028E+03 0.  0.
        -24    2    5    5    0    0  0.19035533265E+02 -0.17745543494E+03 -0.65604684004E+02  0.20686490104E+03  0.81463671678E+02 0.  0.
          5    1    3    3  501    0 -0.17484830043E+02  0.34570014022E+02 -0.40588686837E+03  0.40775856222E+03  0.47000000000E+01 0. -1.
        -11    1    4    4    0    0  0.74117176345E+02  0.83823746855E+02 -0.33261252994E+03  0.35092858453E+03  0.00000000000E+00 0.  1.
         12    1    4    4    0    0  0.14345455783E+01  0.11175951918E+03 -0.28902338455E+03  0.30988185630E+03  0.00000000000E+00 0. -1.
         -5    1    5    5    0  502 -0.77102425145E+02 -0.52697845118E+02 -0.12620403388E+01  0.93517536266E+02  0.47000000000E+01 0.  1.
         11    1    6    6    0    0  0.30325493851E+02 -0.41123273854E+02 -0.45842207838E+02  0.68645955811E+02  0.00000000000E+00 0. -1.
        -12    1    6    6    0    0 -0.11289960586E+02 -0.13633216108E+03 -0.19762476166E+02  0.13821894523E+03  0.00000000000E+00 0.  1.
</event>
<event>
12    1  0.8196217E-002  0.2106943E+03  0.7818608E-02  0.1141254E+00
         21   -1    0    0  501  502  0.00000000000E+00  0.00000000000E+00  0.11276243347E+04  0.11276243347E+04  0.00000000000E+00 0. -1.
         21   -1    0    0  502  503 -0.00000000000E+00 -0.00000000000E+00 -0.93009546134E+02  0.93009546134E+02  0.00000000000E+00 0. -1.
         -6    2    1    2    0  503  0.12012496695E+03  0.63194057072E+00  0.52231965915E+02  0.21591097467E+03  0.17163613748E+03 0.  0.
        -24    2    3    3    0    0  0.14912903666E+03 -0.52081776059E+01  0.18371725577E+02  0.17070092141E+03  0.80837426864E+02 0.  0.
          6    2    1    2  501    0 -0.12012496695E+03 -0.63194057072E+00  0.98238282262E+03  0.10047229061E+04  0.17309448544E+03 0.  0.
         24    2    5    5    0    0 -0.15360203992E+02  0.40192242212E+02  0.57715474593E+03  0.58415881637E+03  0.79262663301E+02 0.  0.
          5    1    5    5  501    0 -0.10476476296E+03 -0.40824182783E+02  0.40522807670E+03  0.42056408976E+03  0.47000000000E+01 0. -1.
        -11    1    6    6    0    0 -0.21098309240E+02  0.37372532848E+02  0.12886608653E+03  0.13582456745E+03  0.00000000000E+00 0.  1.
         12    1    6    6    0    0  0.57381052487E+01  0.28197093649E+01  0.44828865940E+03  0.44833424892E+03  0.00000000000E+00 0. -1.
         -5    1    3    3    0  503 -0.29004069710E+02  0.58401181766E+01  0.33860240338E+02  0.45210053260E+02  0.47000000000E+01 0.  1.
         13    1    4    4    0    0  0.12852167920E+03  0.25068337348E+02  0.25463290501E+02  0.13339648693E+03  0.00000000000E+00 0. -1.
        -14    1    4    4    0    0  0.20607357459E+02 -0.30276514954E+02 -0.70915649240E+01  0.37304434486E+02  0.00000000000E+00 0.  1.
</event>
<event>
12    1  0.8196217E-002  0.1972699E+03  0.7818608E-02  0.1152470E+00
         21   -1    0    0  501  502  0.00000000000E+00  0.00000000000E+00  0.25498708003E+03  0.25498708003E+03  0.00000000000E+00 0. -1.
         21   -1    0    0  502  503 -0.00000000000E+00 -0.00000000000E+00 -0.32455635886E+03  0.32455635886E+03  0.00000000000E+00 0. -1.
         -6    2    1    2    0  503 -0.31860788351E+01  0.92896702122E+02 -0.24666250466E+03  0.31584457424E+03  0.17399843536E+03 0.  0.
        -24    2    3    3    0    0  0.49457700785E+01  0.12053315296E+03 -0.24699943958E+03  0.28665375536E+03  0.81295453194E+02 0.  0.
          6    2    1    2  501    0  0.31860788351E+01 -0.92896702122E+02  0.17709322583E+03  0.26369886465E+03  0.17185788378E+03 0.  0.
         24    2    5    5    0    0  0.62270175076E+01  0.49851727599E+01  0.13521680326E+03  0.15708820146E+03  0.79558101155E+02 0.  0.
          5    1    5    5  501    0 -0.30409386725E+01 -0.97881874882E+02  0.41876422569E+02  0.10661066319E+03  0.47000000000E+01 0. -1.
        -11    1    6    6    0    0  0.36790297520E+02  0.91515503082E+01  0.11267892558E+03  0.11888573142E+03  0.00000000000E+00 0.  1.
         12    1    6    6    0    0 -0.30563280013E+02 -0.41663775483E+01  0.22537877681E+02  0.38202470043E+02  0.00000000000E+00 0. -1.
         -5    1    3    3    0  503 -0.81318489136E+01 -0.27636450834E+02  0.33693491395E+00  0.29190818875E+02  0.47000000000E+01 0.  1.
         11    1    4    4    0    0  0.18777824781E+02  0.53277814325E+02 -0.41806695477E+02  0.70277535454E+02  0.00000000000E+00 0. -1.
        -12    1    4    4    0    0 -0.13832054702E+02  0.67255338631E+02 -0.20519274410E+03  0.21637621991E+03  0.00000000000E+00 0.  1.
</event>
<event>
12    1  0.8196217E-002  0.1875043E+03  0.7818608E-02  0.1160780E+00
         21   -1    0    0  503  502  0.00000000000E+00  0.00000000000E+00  0.74838159716E+03  0.74838159716E+03  0.00000000000E+00 0. -1.
         21   -1    0    0  501  503 -0.00000000000E+00 -0.00000000000E+00 -0.10482806752E+03  0.10482806752E+03  0.00000000000E+00 0. -1.
          6    2    1    2  501    0  0.47606968430E+02  0.58096072768E+02  0.46425604687E+01  0.18735301850E+03  0.17157512366E+03 0.  0.
         24    2    3    3    0    0  0.74010741266E+02  0.81108686045E+02 -0.27557016200E+02  0.13954462669E+03  0.81591083586E+02 0.  0.
         -6    2    1    2    0  502 -0.47606968430E+02 -0.58096072768E+02  0.63891096918E+03  0.66585664618E+03  0.17180299654E+03 0.  0.
        -24    2    5    5    0    0  0.19977512364E+02 -0.23746712163E+02  0.50303475143E+03  0.51019040974E+03  0.79292406384E+02 0.  0.
          5    1    3    3  501    0 -0.26403772836E+02 -0.23012613277E+02  0.32199576669E+02  0.47808391810E+02  0.47000000000E+01 0. -1.
        -13    1    4    4    0    0  0.79493604368E+02  0.64788569690E+02  0.50455552886E+01  0.10267545727E+03  0.00000000000E+00 0.  1.
         14    1    4    4    0    0 -0.54828631026E+01  0.16320116355E+02 -0.32602571489E+02  0.36869169415E+02  0.00000000000E+00 0. -1.
         -5    1    5    5    0  502 -0.67584480794E+02 -0.34349360605E+02  0.13587621775E+03  0.15566623644E+03  0.47000000000E+01 0.  1.
         11    1    6    6    0    0 -0.12169267122E+02 -0.20667040113E+02  0.42581390456E+03  0.42648880282E+03  0.00000000000E+00 0. -1.
        -12    1    6    6    0    0  0.32146779486E+02 -0.30796720503E+01  0.77220846861E+02  0.83701606922E+02  0.00000000000E+00 0.  1.
</event>
<event>
12    1  0.8196217E-002  0.1782415E+03  0.7818608E-02  0.1171115E+00
         21   -1    0    0  503  502  0.00000000000E+00  0.00000000000E+00  0.10609894743E+03  0.10609894743E+03  0.00000000000E+00 0. -1.
         21   -1    0    0  501  503 -0.00000000000E+00 -0.00000000000E+00 -0.78188577637E+03  0.78188577637E+03  0.00000000000E+00 0. -1.
          6    2    1    2  501    0  0.27729457241E+01 -0.62516987947E+01 -0.69274429106E+03  0.71530741359E+03  0.17811027530E+03 0.  0.
         24    2    3    3    0    0  0.35861171102E+02  0.58088953208E+02 -0.39402592976E+03  0.40791629540E+03  0.80491742779E+02 0.  0.
         -6    2    1    2    0  502 -0.27729457241E+01  0.62516987947E+01  0.16957462117E+02  0.17267731021E+03  0.17170650825E+03 0.  0.
        -24    2    5    5    0    0  0.31106965751E+02 -0.26148413222E+02  0.60570619135E+02  0.10847596190E+03  0.80292288393E+02 0.  0.
          5    1    3    3  501    0 -0.33088225378E+02 -0.64340652003E+02 -0.29871836131E+03  0.30739111819E+03  0.47000000000E+01 0. -1.
        -13    1    4    4    0    0  0.15288961810E+02  0.70447835621E+00 -0.83155570244E+01  0.17418298758E+02  0.00000000000E+00 0.  1.
         14    1    4    4    0    0  0.20572209292E+02  0.57384474852E+02 -0.38571037273E+03  0.39049799664E+03  0.00000000000E+00 0. -1.
         -5    1    5    5    0  502 -0.33879911475E+02  0.32400112016E+02 -0.43613157018E+02  0.64201348314E+02  0.47000000000E+01 0.  1.
         13    1    6    6    0    0  0.37814662976E+02  0.11420824433E+01 -0.40118340815E+01  0.38044025825E+02  0.00000000000E+00 0. -1.
        -14    1    6    6    0    0 -0.67076972247E+01 -0.27290495665E+02  0.64582453217E+02  0.70431936074E+02  0.00000000000E+00 0.  1.
</event>
<event>
12    1  0.8196217E-002  0.2106358E+03  0.7818608E-02  0.1141536E+00
         21   -1    0    0  501  502  0.00000000000E+00  0.00000000000E+00  0.13709036686E+03  0.13709036686E+03  0.00000000000E+00 0.  1.
         21   -1    0    0  502  503 -0.00000000000E+00 -0.00000000000E+00 -0.41802858584E+03  0.41802858584E+03  0.00000000000E+00 0.  1.
         -6    2    1    2    0  503  0.41104728101E+02  0.11907574425E+03 -0.27427235011E+03  0.34437766085E+03  0.16583732909E+03 0.  0.
        -24    2    3    3    0    0  0.13164714135E+02  0.22921677500E+02 -0.20183807402E+03  0.22070444918E+03  0.85282663926E+02 0.  0.
          6    2    1    2  501    0 -0.41104728101E+02 -0.11907574425E+03 -0.66658688746E+01  0.21074129186E+03  0.16881595525E+03 0.  0.
         24    2    5    5    0    0 -0.34424088799E+02 -0.26600349828E+02 -0.56128181748E+02  0.10555127375E+03  0.78090345776E+02 0.  0.
          5    1    5    5  501    0 -0.66806393016E+01 -0.92475394419E+02  0.49462312873E+02  0.10519001811E+03  0.47000000000E+01 0. -1.
        -13    1    6    6    0    0 -0.34572515575E+02 -0.51168567822E+02 -0.51804345125E+02  0.80605032970E+02  0.00000000000E+00 0.  1.
         14    1    6    6    0    0  0.14842677606E+00  0.24568217995E+02 -0.43238366225E+01  0.24946240781E+02  0.00000000000E+00 0. -1.
         -5    1    3    3    0  503  0.27940013965E+02  0.96154066747E+02 -0.72434276084E+02  0.12367321167E+03  0.47000000000E+01 0.  1.
         13    1    4    4    0    0 -0.10178915189E+02 -0.11785887724E+02 -0.10526010757E+01  0.15608505146E+02  0.00000000000E+00 0. -1.
        -14    1    4    4    0    0  0.23343629325E+02  0.34707565224E+02 -0.20078547295E+03  0.20509594404E+03  0.00000000000E+00 0.  1.
</event>
<event>
12    1  0.8196217E-002  0.1770758E+03  0.7818608E-02  0.1170672E+00
         21   -1    0    0  501  502  0.00000000000E+00  0.00000000000E+00  0.10728159850E+03  0.10728159850E+03  0.00000000000E+00 0. -1.
         21   -1    0    0  502  503 -0.00000000000E+00 -0.00000000000E+00 -0.35162183919E+03  0.35162183919E+03  0.00000000000E+00 0.  1.
         -6    2    1    2    0  503 -0.41075329415E+02 -0.14121446009E+02 -0.21649189525E+03  0.27968659098E+03  0.17166610190E+03 0.  0.
        -24    2    3    3    0    0 -0.15280075254E+02 -0.55351901138E+02 -0.57626688595E+02  0.11347711636E+03  0.79113254514E+02 0.  0.
          6    2    1    2  501    0  0.41075329415E+02  0.14121446009E+02 -0.27848345440E+02  0.17921684671E+03  0.17162910556E+03 0.  0.
         24    2    5    5    0    0  0.35475623974E+02  0.14400999134E+01 -0.84245254702E+02  0.12095129416E+03  0.79191911421E+02 0.  0.
          5    1    5    5  501    0  0.55997054403E+01  0.12681346095E+02  0.56396909262E+02  0.58265552551E+02  0.47000000000E+01 0. -1.
        -13    1    6    6    0    0  0.25803958232E+02 -0.34519157294E+02 -0.21926284394E+02  0.48354714642E+02  0.00000000000E+00 0.  1.
         14    1    6    6    0    0  0.96716657423E+01  0.35959257208E+02 -0.62318970308E+02  0.72596579516E+02  0.00000000000E+00 0. -1.
         -5    1    3    3    0  503 -0.25795254161E+02  0.41230455129E+02 -0.15886520666E+03  0.16620947462E+03  0.47000000000E+01 0.  1.
         13    1    4    4    0    0  0.14380826466E+02 -0.10355594124E+02  0.14876680100E+02  0.23137893385E+02  0.00000000000E+00 0. -1.
        -14    1    4    4    0    0 -0.29660901720E+02 -0.44996307014E+02 -0.72503368695E+02  0.90339222976E+02  0.00000000000E+00 0.  1.
</event>
<event>
12    1  0.8196217E-002  0.2013029E+03  0.7818608E-02  0.1148977E+00
         21   -1    0    0  503  502  0.00000000000E+00  0.00000000000E+00  0.11766663446E+03  0.11766663446E+03  0.00000000000E+00 0. -1.
         21   -1    0    0  501  503 -0.00000000000E+00 -0.00000000000E+00 -0.44211708511E+03  0.44211708511E+03  0.00000000000E+00 0. -1.
          6    2    1    2  501    0 -0.77508847566E+02  0.66265920366E+02 -0.29611963422E+03  0.35806384205E+03  0.17356290951E+03 0.  0.
         24    2    3    3    0    0 -0.66843460437E+02  0.86990598407E+02 -0.30422903799E+03  0.33294183592E+03  0.79117293538E+02 0.  0.
         -6    2    1    2    0  502  0.77508847566E+02 -0.66265920366E+02 -0.28330816430E+02  0.20171987752E+03  0.17172501324E+03 0.  0.
        -24    2    5    5    0    0  0.74996792692E+02  0.14832599255E+01 -0.62417991673E+02  0.12569167639E+03  0.79219144503E+02 0.  0.
          5    1    3    3  501    0 -0.10665387128E+02 -0.20724678041E+02  0.81094037650E+01  0.25122006129E+02  0.47000000000E+01 0. -1.
        -11    1    4    4    0    0 -0.55059009465E+00 -0.10408569709E+02 -0.54291956529E+01  0.11752346075E+02  0.00000000000E+00 0.  1.
         12    1    4    4    0    0 -0.66292870343E+02  0.97399168116E+02 -0.29879984233E+03  0.32118948984E+03  0.00000000000E+00 0. -1.
         -5    1    5    5    0  502  0.25120548737E+01 -0.67749180292E+02  0.34087175243E+02  0.76028201123E+02  0.47000000000E+01 0.  1.
         13    1    6    6    0    0  0.53713430162E+02 -0.68942081928E+01  0.51105184485E+01  0.54394669640E+02  0.00000000000E+00 0. -1.
        -14    1    6    6    0    0  0.21283362530E+02  0.83774681184E+01 -0.67528510122E+02  0.71297006753E+02  0.00000000000E+00 0.  1.
</event>
<event>
12    1  0.8196217E-002  0.1968533E+03  0.7818608E-02  0.1154789E+00
         21   -1    0    0  503  502  0.00000000000E+00  0.00000000000E+00  0.64462805238E+03  0.64462805238E+03  0.00000000000E+00 0. -1.
         21   -1    0    0  501  503 -0.00000000000E+00 -0.00000000000E+00 -0.77583242964E+02  0.77583242964E+02  0.00000000000E+00 0. -1.
          6    2    1    2  501    0 -0.18776200156E+02 -0.93574506104E+02  0.10291488805E+03  0.22213217968E+03  0.17216996598E+03 0.  0.
         24    2    3    3    0    0 -0.59893210265E+02 -0.53555630880E+02  0.62421072864E+01  0.10961624555E+03  0.74305821776E+02 0.  0.
         -6    2    1    2    0  502  0.18776200156E+02  0.93574506104E+02  0.46412992137E+03  0.50007911566E+03  0.15985557271E+03 0.  0.
        -24    2    5    5    0    0  0.26884719200E+02  0.86313188079E+02  0.47105968202E+03  0.48634643918E+03  0.80392041389E+02 0.  0.
          5    1    3    3  501    0  0.41117010109E+02 -0.40018875224E+02  0.96672780762E+02  0.11251593414E+03  0.47000000000E+01 0. -1.
        -11    1    4    4    0    0 -0.33688669737E+02 -0.60197874983E+01  0.34351915467E+02  0.48489363849E+02  0.00000000000E+00 0.  1.
         12    1    4    4    0    0 -0.26204540527E+02 -0.47535843382E+02 -0.28109808180E+02  0.61126881699E+02  0.00000000000E+00 0. -1.
         -5    1    5    5    0  502 -0.81085190441E+01  0.72613180256E+01 -0.69297606510E+01  0.13732676478E+02  0.47000000000E+01 0.  1.
         13    1    6    6    0    0 -0.20841702270E+02  0.57705201668E+02  0.18448494536E+03  0.19441955127E+03  0.00000000000E+00 0. -1.
        -14    1    6    6    0    0  0.47726421470E+02  0.28607986411E+02  0.28657473666E+03  0.29192688791E+03  0.00000000000E+00 0.  1.
</event>
<event>
12    1  0.8196217E-002  0.2831908E+03  0.7818608E-02  0.1094004E+00
         21   -1    0    0  503  502  0.00000000000E+00  0.00000000000E+00  0.89018097279E+02  0.89018097279E+02  0.00000000000E+00 0. -1.
         21   -1    0    0  501  503 -0.00000000000E+00 -0.00000000000E+00 -0.13762260992E+04  0.13762260992E+04  0.00000000000E+00 0.  1.
          6    2    1    2  501    0  0.18511604352E+03 -0.12702868283E+03 -0.10743911510E+04  0.11110012870E+04  0.17205603285E+03 0.  0.
         24    2    3    3    0    0  0.20690380873E+03 -0.11146852838E+03 -0.10266730983E+04  0.10560838246E+04  0.77594941250E+02 0.  0.
         -6    2    1    2    0  502 -0.18511604352E+03  0.12702868283E+03 -0.21281685095E+03  0.35424290956E+03  0.17260588370E+03 0.  0.
        -24    2    5    5    0    0 -0.19322265978E+03  0.15028806624E+03 -0.19080453388E+03  0.32087603607E+03  0.81446677460E+02 0.  0.
          5    1    3    3  501    0 -0.21787765205E+02 -0.15560154457E+02 -0.47718052718E+02  0.54917462382E+02  0.47000000000E+01 0. -1.
        -13    1    4    4    0    0  0.96681099934E+02 -0.59192302768E+02 -0.65959890452E+03  0.66926951121E+03  0.00000000000E+00 0.  1.
         14    1    4    4    0    0  0.11022270880E+03 -0.52276225607E+02 -0.36707419377E+03  0.38681431337E+03  0.00000000000E+00 0. -1.
         -5    1    5    5    0  502  0.81066162525E+01 -0.23259383403E+02 -0.22012317072E+02  0.33366873486E+02  0.47000000000E+01 0.  1.
         13    1    6    6    0    0 -0.16276100308E+03  0.15033549603E+03 -0.14142096387E+03  0.26285318053E+03  0.00000000000E+00 0. -1.
        -14    1    6    6    0    0 -0.30461656693E+02 -0.47429795232E-01 -0.49383570011E+02  0.58022855540E+02  0.00000000000E+00 0.  1.
</event>
<event>
12    1  0.8196217E-002  0.1955394E+03  0.7818608E-02  0.1153732E+00
         21   -1    0    0  503  502  0.00000000000E+00  0.00000000000E+00  0.18937875666E+02  0.18937875666E+02  0.00000000000E+00 0. -1.
         21   -1    0    0  501  503 -0.00000000000E+00 -0.00000000000E+00 -0.21936311663E+04  0.21936311663E+04  0.00000000000E+00 0. -1.
          6    2    1    2  501    0  0.89006455342E+02  0.26956004639E+02 -0.14047294706E+04  0.14181636414E+04  0.17109778707E+03 0.  0.
         24    2    3    3    0    0  0.32046340382E+02  0.36695570050E+02 -0.12416065362E+04  0.12450437535E+04  0.78572416541E+02 0.  0.
         -6    2    1    2    0  502 -0.89006455342E+02 -0.26956004639E+02 -0.76996381999E+03  0.79440540059E+03  0.17200837514E+03 0.  0.
        -24    2    5    5    0    0 -0.85647826339E+02 -0.79192520025E+02 -0.61094983618E+03  0.62693160869E+03  0.78590929860E+02 0.  0.
          5    1    3    3  501    0  0.56960114959E+02 -0.97395654109E+01 -0.16312293445E+03  0.17311988786E+03  0.47000000000E+01 0. -1.
        -11    1    4    4    0    0  0.36521967684E+01 -0.18010381665E+02 -0.93782326457E+02  0.95565878558E+02  0.00000000000E+00 0.  1.
         12    1    4    4    0    0  0.28394143614E+02  0.54705951715E+02 -0.11478242097E+04  0.11494778749E+04  0.00000000000E+00 0. -1.
         -5    1    5    5    0  502 -0.33586290024E+01  0.52236515386E+02 -0.15901398381E+03  0.16747379190E+03  0.47000000000E+01 0.  1.
         11    1    6    6    0    0 -0.94053689049E+02 -0.56988126672E+02 -0.40667769094E+03  0.42128433072E+03  0.00000000000E+00 0. -1.
        -12    1    6    6    0    0  0.84058627094E+01 -0.22204393354E+02 -0.20427214525E+03  0.20564727797E+03  0.00000000000E+00 0.  1.
</event>
<event>
12    1  0.8196217E-002  0.2101978E+03  0.7818608E-02  0.1141914E+00
         21   -1    0    0  503  502  0.00000000000E+00  0.00000000000E+00  0.96036075176E+02  0.96036075176E+02  0.00000000000E+00 0.  1.
         21   -1    0    0  501  503 -0.00000000000E+00 -0.00000000000E+00 -0.47758135184E+03  0.47758135184E+03  0.00000000000E+00 0. -1.
          6    2    1    2  501    0  0.56765878938E+02  0.10668529173E+03 -0.12887591292E+03  0.24656058645E+03  0.17198548014E+03 0.  0.
         24    2    3    3    0    0  0.88195357753E+02  0.61947054206E+02 -0.13413513347E+03  0.19143281273E+03  0.83895346141E+02 0.  0.
         -6    2    1    2    0  502 -0.56765878938E+02 -0.10668529173E+03 -0.25266936375E+03  0.32705684057E+03  0.16887940401E+03 0.  0.
        -24    2    5    5    0    0 -0.52485256779E+02 -0.59771641832E+02 -0.65281733376E+02  0.13378131627E+03  0.85489090091E+02 0.  0.
          5    1    3    3  501    0 -0.31429478815E+02  0.44738237521E+02  0.52592205555E+01  0.55127773725E+02  0.47000000000E+01 0. -1.
        -13    1    4    4    0    0  0.76046823277E+02  0.45783995176E+02 -0.44027335903E+02  0.99084306787E+02  0.00000000000E+00 0.  1.
         14    1    4    4    0    0  0.12148534476E+02  0.16163059030E+02 -0.90107797568E+02  0.92348505942E+02  0.00000000000E+00 0. -1.
         -5    1    5    5    0  502 -0.42806221584E+01 -0.46913649895E+02 -0.18738763038E+03  0.19327552429E+03  0.47000000000E+01 0.  1.
         13    1    6    6    0    0 -0.32634321374E+02  0.70202907999E+00 -0.61976665050E+02  0.70047118336E+02  0.00000000000E+00 0. -1.
        -14    1    6    6    0    0 -0.19850935405E+02 -0.60473670912E+02 -0.33050683254E+01  0.63734197937E+02  0.00000000000E+00 0.  1.
</event>
<event>
12    1  0.8196217E-002  0.1886382E+03  0.7818608E-02  0.1159734E+00
         21   -1    0    0  503  502  0.00000000000E+00  0.00000000000E+00  0.90989120707E+03  0.90989120707E+03  0.00000000000E+00 0. -1.
         21   -1    0    0  501  503 -0.00000000000E+00 -0.00000000000E+00 -0.78113541906E+02  0.78113541906E+02  0.00000000000E+00 0.  1.
          6    2    1    2  501    0 -0.74609588161E+02  0.21221040497E+02  0.66555321538E+02  0.19987428768E+03  0.17176494649E+03 0.  0.
         24    2    3    3    0    0  0.15962472293E+01  0.54709298054E+01 -0.17518198272E+02  0.85218969144E+02  0.83204004430E+02 0.  0.
         -6    2    1    2    0  502  0.74609588161E+02 -0.21221040497E+02  0.76522234363E+03  0.78813046130E+03  0.17195192828E+03 0.  0.
        -24    2    5    5    0    0  0.10307594023E+03 -0.54756029983E+02  0.61483336638E+03  0.63136993312E+03  0.83576622059E+02 0.  0.
          5    1    3    3  501    0 -0.76205835390E+02  0.15750110692E+02  0.84073519810E+02  0.11465531853E+03  0.47000000000E+01 0. -1.
        -11    1    4    4    0    0  0.12193400191E+02 -0.30254759322E+02  0.14867919725E+02  0.35848075357E+02  0.00000000000E+00 0.  1.
         12    1    4    4    0    0 -0.10597152962E+02  0.35725689127E+02 -0.32386117997E+02  0.49370893788E+02  0.00000000000E+00 0. -1.
         -5    1    5    5    0  502 -0.28466352065E+02  0.33534989486E+02  0.15038897724E+03  0.15676052818E+03  0.47000000000E+01 0.  1.
         13    1    6    6    0    0  0.20771497373E+02  0.22514134623E+02  0.13656951500E+03  0.13996275858E+03  0.00000000000E+00 0. -1.
        -14    1    6    6    0    0  0.82304442853E+02 -0.77270164606E+02  0.47826385139E+03  0.49140717454E+03  0.00000000000E+00 0.  1.
</event>
<event>
12    1  0.8196217E-002  0.1775173E+03  0.7818608E-02  0.1170446E+00
         21   -1    0    0  501  502  0.00000000000E+00  0.00000000000E+00  0.58537407038E+02  0.58537407038E+02  0.00000000000E+00 0.  1.
         21   -1    0    0  502  503 -0.00000000000E+00 -0.00000000000E+00 -0.58163665968E+03  0.58163665968E+03  0.00000000000E+00 0.  1.
         -6    2    1    2    0  503  0.43576486796E+02 -0.59755411882E+01 -0.35095346805E+03  0.39289574496E+03  0.17106756671E+03 0.  0.
        -24    2    3    3    0    0 -0.39988583631E+02 -0.19170460913E+02 -0.19682302765E+03  0.21701081224E+03  0.79923682490E+02 0.  0.
          6    2    1    2  501    0 -0.43576486796E+02  0.59755411882E+01 -0.17214578459E+03  0.24727832175E+03  0.17198191754E+03 0.  0.
         24    2    5    5    0    0 -0.87312031780E+02 -0.20249210197E+02 -0.94240351325E+02  0.15404805836E+03  0.82559911936E+02 0.  0.
          5    1    5    5  501    0  0.43735544984E+02  0.26224751386E+02 -0.77905433265E+02  0.93230263394E+02  0.47000000000E+01 0. -1.
        -13    1    6    6    0    0 -0.62823043266E+02  0.23685790405E+02 -0.33036820399E+02  0.74827688287E+02  0.00000000000E+00 0.  1.
         14    1    6    6    0    0 -0.24488988514E+02 -0.43935000602E+02 -0.61203530926E+02  0.79220370070E+02  0.00000000000E+00 0. -1.
         -5    1    3    3    0  503  0.83565070427E+02  0.13194919725E+02 -0.15413044040E+03  0.17588493272E+03  0.47000000000E+01 0.  1.
         13    1    4    4    0    0  0.27216256154E+01  0.27359273978E+02 -0.47569414842E+02  0.54943483207E+02  0.00000000000E+00 0. -1.
        -14    1    4    4    0    0 -0.42710209247E+02 -0.46529734891E+02 -0.14925361281E+03  0.16206732903E+03  0.00000000000E+00 0.  1.
</event>
<event>
12    1  0.8196217E-002  0.3147486E+03  0.7818608E-02  0.1078096E+00
         21   -1    0    0  501  502  0.00000000000E+00  0.00000000000E+00  0.31812526560E+03  0.31812526560E+03  0.00000000000E+00 0. -1.
         21   -1    0    0  502  503 -0.00000000000E+00 -0.00000000000E+00 -0.34032495659E+03  0.34032495659E+03  0.00000000000E+00 0.  1.
         -6    2    1    2    0  503 -0.45257844017E+02  0.25971140645E+03  0.84928073103E+02  0.32600527759E+03  0.17195457635E+03 0.  0.
        -24    2    3    3    0    0 -0.17329799374E+02  0.26792758340E+03  0.57852219558E+02  0.28597187795E+03  0.79671348538E+02 0.  0.
          6    2    1    2  501    0  0.45257844017E+02 -0.25971140645E+03 -0.10712776409E+03  0.33244494461E+03  0.17188657967E+03 0.  0.
         24    2    5    5    0    0  0.30302320613E+02 -0.27257123004E+03 -0.11761367718E+03  0.30961761195E+03  0.82563808577E+02 0.  0.
          5    1    5    5  501    0  0.14955523404E+02  0.12859823594E+02  0.10485913089E+02  0.22827332662E+02  0.47000000000E+01 0. -1.
        -13    1    6    6    0    0 -0.93926575553E+01 -0.35784585609E+01 -0.16891829136E+02  0.19656074714E+02  0.00000000000E+00 0.  1.
         14    1    6    6    0    0  0.39694978169E+02 -0.26899277148E+03 -0.10072184805E+03  0.28996153723E+03  0.00000000000E+00 0. -1.
         -5    1    3    3    0  503 -0.27928044643E+02 -0.82161769510E+01  0.27075853545E+02  0.40033399637E+02  0.47000000000E+01 0.  1.
         13    1    4    4    0    0 -0.38110933159E+02  0.11344036487E+03  0.50587472489E+02  0.12992402388E+03  0.00000000000E+00 0. -1.
        -14    1    4    4    0    0  0.20781133786E+02  0.15448721853E+03  0.72647470695E+01  0.15604785407E+03  0.00000000000E+00 0.  1.
</event>
<event>
12    1  0.8196217E-002  0.1946082E+03  0.7818608E-02  0.1155693E+00
         21   -1    0    0  501  502  0.00000000000E+00  0.00000000000E+00  0.49188024964E+03  0.49188024964E+03  0.00000000000E+00 0.  1.
         21   -1    0    0  502  503 -0.00000000000E+00 -0.00000000000E+00 -0.13969411188E+03  0.13969411188E+03  0.00000000000E+00 0.  1.
         -6    2    1    2    0  503  0.15763948964E+02 -0.75373752822E+02 -0.40823425852E+02  0.19302120277E+03  0.17222348248E+03 0.  0.
        -24    2    3    3    0    0  0.42634468985E+01  0.24601510543E+02 -0.34024236444E+02  0.92047771565E+02  0.81803009015E+02 0.  0.
          6    2    1    2  501    0 -0.15763948964E+02  0.75373752822E+02  0.39300956362E+03  0.43855315875E+03  0.17872507170E+03 0.  0.
         24    2    5    5    0    0  0.15921973936E+02 -0.15840461273E+02  0.27268603923E+03  0.28420332531E+03  0.76872782297E+02 0.  0.
          5    1    5    5  501    0 -0.31685922900E+02  0.91214214096E+02  0.12032352439E+03  0.15434983344E+03  0.47000000000E+01 0. -1.
        -11    1    6    6    0    0 -0.22669636667E+02  0.16875545795E+02  0.12275711382E+03  0.12596827167E+03  0.00000000000E+00 0.  1.
         12    1    6    6    0    0  0.38591610603E+02 -0.32716007068E+02  0.14992892540E+03  0.15823505364E+03  0.00000000000E+00 0. -1.
         -5    1    3    3    0  503  0.11500502066E+02 -0.99975263365E+02 -0.67991894081E+01  0.10097343121E+03  0.47000000000E+01 0.  1.
         13    1    4    4    0    0  0.19930234296E-01  0.97897480848E+00  0.26717939897E+02  0.26735876669E+02  0.00000000000E+00 0. -1.
        -14    1    4    4    0    0  0.42435166642E+01  0.23622535735E+02 -0.60742176342E+02  0.65311894896E+02  0.00000000000E+00 0.  1.
</event>
<event>
12    1  0.8196217E-002  0.2131001E+03  0.7818608E-02  0.1139216E+00
         21   -1    0    0  503  502  0.00000000000E+00  0.00000000000E+00  0.86383427738E+03  0.86383427738E+03  0.00000000000E+00 0.  1.
         21   -1    0    0  501  503 -0.00000000000E+00 -0.00000000000E+00 -0.57677195089E+02  0.57677195089E+02  0.00000000000E+00 0.  1.
          6    2    1    2  501    0 -0.99503082284E+02  0.74238053010E+02  0.26422572930E+03  0.33918747638E+03  0.17268687329E+03 0.  0.
         24    2    3    3    0    0 -0.77176662691E+02  0.55677224260E+01  0.97774260081E+02  0.15768743528E+03  0.96531261840E+02 0.  0.
         -6    2    1    2    0  502  0.99503082284E+02 -0.74238053010E+02  0.54193135299E+03  0.58232399609E+03  0.17320361767E+03 0.  0.
        -24    2    5    5    0    0 -0.26975419552E+01  0.28657183221E+01  0.14797479939E+03  0.16806101769E+03  0.79576851780E+02 0.  0.
          5    1    3    3  501    0 -0.22326419593E+02  0.68670330584E+02  0.16645146922E+03  0.18150004110E+03  0.47000000000E+01 0. -1.
        -11    1    4    4    0    0 -0.86944546307E+02  0.31618500081E+02  0.89351200860E+02  0.12861850868E+03  0.00000000000E+00 0.  1.
         12    1    4    4    0    0  0.97678836165E+01 -0.26050777655E+02  0.84230592214E+01  0.29068926596E+02  0.00000000000E+00 0. -1.
         -5    1    5    5    0  502  0.10220062424E+03 -0.77103771332E+02  0.39395655360E+03  0.41426297840E+03  0.47000000000E+01 0.  1.
         13    1    6    6    0    0  0.23153321478E+01  0.19777820511E+02  0.90106121625E+00  0.19933260106E+02  0.00000000000E+00 0. -1.
        -14    1    6    6    0    0 -0.50128741031E+01 -0.16912102189E+02  0.14707373817E+03  0.14812775758E+03  0.00000000000E+00 0.  1.
</event>
<event>
12    1  0.8196217E-002  0.1789687E+03  0.7818608E-02  0.1169134E+00
         21   -1    0    0  501  502  0.00000000000E+00  0.00000000000E+00  0.29731655756E+03  0.29731655756E+03  0.00000000000E+00 0. -1.
         21   -1    0    0  502  503 -0.00000000000E+00 -0.00000000000E+00 -0.10859701758E+03  0.10859701758E+03  0.00000000000E+00 0. -1.
         -6    2    1    2    0  503  0.54875562019E+01 -0.45050203403E+02  0.11991279353E+03  0.21542719902E+03  0.17311893578E+03 0.  0.
        -24    2    3    3    0    0 -0.24847030215E+02 -0.75613841519E+02  0.12956147482E+03  0.17104803546E+03  0.78335347944E+02 0.  0.
          6    2    1    2  501    0 -0.54875562019E+01  0.45050203403E+02  0.68806746457E+02  0.19048637612E+03  0.17172960441E+03 0.  0.
         24    2    5    5    0    0  0.42977634547E+01  0.64745568850E+02  0.10550348495E+03  0.14744685339E+03  0.79994560954E+02 0.  0.
          5    1    5    5  501    0 -0.97853196566E+01 -0.19695365447E+02 -0.36696738492E+02  0.43039522730E+02  0.47000000000E+01 0. -1.
        -13    1    6    6    0    0 -0.24036025175E+02  0.38102304875E+01  0.63980830119E+02  0.68452866889E+02  0.00000000000E+00 0.  1.
         14    1    6    6    0    0  0.28333788630E+02  0.60935338362E+02  0.41522654831E+02  0.78993986503E+02  0.00000000000E+00 0. -1.
         -5    1    3    3    0  503  0.30334586417E+02  0.30563638116E+02 -0.96486812875E+01  0.44379163563E+02  0.47000000000E+01 0.  1.
         13    1    4    4    0    0 -0.63165686539E+01 -0.91009816999E+01  0.91574715284E+02  0.92242373055E+02  0.00000000000E+00 0. -1.
        -14    1    4    4    0    0 -0.18530461561E+02 -0.66512859819E+02  0.37986759532E+02  0.78805662403E+02  0.00000000000E+00 0.  1.
</event>
<event>
12    1  0.8196217E-002  0.2383702E+03  0.7818608E-02  0.1121091E+00
         21   -1    0    0  503  502  0.00000000000E+00  0.00000000000E+00  0.20753206706E+03  0.20753206706E+03  0.00000000000E+00 0. -1.
         21   -1    0    0  501  503 -0.00000000000E+00 -0.00000000000E+00 -0.47451924220E+03  0.47451924220E+03  0.00000000000E+00 0. -1.
          6    2    1    2  501    0 -0.16322225778E+03  0.24188500117E+02 -0.35587589072E+03  0.42764695912E+03  0.17031642047E+03 0.  0.
         24    2    3    3    0    0 -0.10686577516E+03 -0.48418315567E+02 -0.22090390100E+03  0.26428438439E+03  0.85340934899E+02 0.  0.
         -6    2    1    2    0  502  0.16322225778E+03 -0.24188500117E+02  0.88888715578E+02  0.25440435014E+03  0.17202842974E+03 0.  0.
        -24    2    5    5    0    0  0.81396664706E+02  0.13774321775E+02  0.11314073901E+03  0.16087973216E+03  0.79160043142E+02 0.  0.
          5    1    3    3  501    0 -0.56356482623E+02  0.72606815684E+02 -0.13497198971E+03  0.16336257474E+03  0.47000000000E+01 0. -1.
        -11    1    4    4    0    0 -0.53346218751E+01 -0.42543878688E+02 -0.75844868916E+02  0.87125679023E+02  0.00000000000E+00 0.  1.
         12    1    4    4    0    0 -0.10153115328E+03 -0.58744368788E+01 -0.14505903209E+03  0.17715870536E+03  0.00000000000E+00 0. -1.
         -5    1    5    5    0  502  0.81825593078E+02 -0.37962821892E+02 -0.24252023430E+02  0.93524617983E+02  0.47000000000E+01 0.  1.
         13    1    6    6    0    0  0.27001175918E+02 -0.32984544541E+02  0.43516749176E+02  0.60915935012E+02  0.00000000000E+00 0. -1.
        -14    1    6    6    0    0  0.54395488788E+02  0.46758866316E+02  0.69623989832E+02  0.99963797145E+02  0.00000000000E+00 0.  1.
</event>
<event>
12    1  0.8196217E-002  0.1921708E+03  0.7818608E-02  0.1157921E+00
         21   -1    0    0  503  502  0.00000000000E+00  0.00000000000E+00  0.33855376157E+03  0.33855376157E+03  0.00000000000E+00 0.  1.
         21   -1    0    0  501  503 -0.00000000000E+00 -0.00000000000E+00 -0.15984203418E+03  0.15984203418E+03  0.00000000000E+00 0.  1.
          6    2    1    2  501    0 -0.70750722789E+02 -0.30982622435E+01 -0.54848056140E+02  0.19984472592E+03  0.17864585417E+03 0.  0.
         24    2    3    3    0    0 -0.29219896996E+02  0.60480015566E+02 -0.54178693622E+02  0.12375566661E+03  0.88704563090E+02 0.  0.
         -6    2    1    2    0  502  0.70750722789E+02  0.30982622435E+01  0.23355978352E+03  0.29855106983E+03  0.17195146063E+03 0.  0.
        -24    2    5    5    0    0  0.85239077397E+02  0.39924505243E+02  0.99052426556E+02  0.15826420775E+03  0.79853051381E+02 0.  0.
          5    1    3    3  501    0 -0.41530825793E+02 -0.63578277809E+02 -0.66936251778E+00  0.76089059308E+02  0.47000000000E+01 0. -1.
        -13    1    4    4    0    0 -0.38173395206E+02  0.79756496170E+02 -0.34897048135E+02  0.95058459652E+02  0.00000000000E+00 0.  1.
         14    1    4    4    0    0  0.89534982103E+01 -0.19276480604E+02 -0.19281645487E+02  0.28697206961E+02  0.00000000000E+00 0. -1.
         -5    1    5    5    0  502 -0.14488354608E+02 -0.36826242999E+02  0.13450735697E+03  0.14028686207E+03  0.47000000000E+01 0.  1.
         11    1    6    6    0    0  0.94426143274E+01 -0.20471888912E+02  0.36542027943E+02  0.42936942220E+02  0.00000000000E+00 0. -1.
        -12    1    6    6    0    0  0.75796463070E+02  0.60396394155E+02  0.62510398613E+02  0.11532726553E+03  0.00000000000E+00 0.  1.
</event>
<event>
12    1  0.8196217E-002  0.2006834E+03  0.7818608E-02  0.1149826E+00
         21   -1    0    0  501  502  0.00000000000E+00  0.00000000000E+00  0.21201341467E+04  0.21201341467E+04  0.00000000000E+00 0.  1.
         21   -1    0    0  502  503 -0.00000000000E+00 -0.00000000000E+00 -0.21335328842E+02  0.21335328842E+02  0.00000000000E+00 0.  1.
         -6    2    1    2    0  503  0.59786729577E+02  0.83639874757E+02  0.66595322271E+03  0.69463834373E+03  0.16869692371E+03 0.  0.
        -24    2    3    3    0    0  0.81817620957E+02  0.12552498530E+02  0.29720995605E+03  0.31843034018E+03  0.78819003121E+02 0.  0.
          6    2    1    2  501    0 -0.59786729577E+02 -0.83639874757E+02  0.14328455952E+04  0.14468311319E+04  0.17234773786E+03 0.  0.
         24    2    5    5    0    0 -0.51743192438E+02 -0.11795792396E+03  0.90063424597E+03  0.91343312170E+03  0.81403888200E+02 0.  0.
          5    1    5    5  501    0 -0.80435371390E+01  0.34318049206E+02  0.53221134923E+03  0.53339801016E+03  0.47000000000E+01 0. -1.
        -13    1    6    6    0    0 -0.24142788722E+02 -0.72791128044E+02  0.74719560212E+03  0.75112095591E+03  0.00000000000E+00 0.  1.
         14    1    6    6    0    0 -0.27600403716E+02 -0.45166795920E+02  0.15343864385E+03  0.16231216579E+03  0.00000000000E+00 0. -1.
         -5    1    3    3    0  503 -0.22030891380E+02  0.71087376227E+02  0.36874326666E+03  0.37620800356E+03  0.47000000000E+01 0.  1.
         13    1    4    4    0    0  0.36224761120E+01 -0.25868203342E+02  0.88261271220E+02  0.92045305555E+02  0.00000000000E+00 0. -1.
        -14    1    4    4    0    0  0.78195144845E+02  0.38420701872E+02  0.20894868483E+03  0.22638503462E+03  0.00000000000E+00 0.  1.
</event>
<event>
12    1  0.8196217E-002  0.1839523E+03  0.7818608E-02  0.1164039E+00
         21   -1    0    0  501  502  0.00000000000E+00  0.00000000000E+00  0.12964082238E+03  0.12964082238E+03  0.00000000000E+00 0. -1.
         21   -1    0    0  502  503 -0.00000000000E+00 -0.00000000000E+00 -0.28998466020E+03  0.28998466020E+03  0.00000000000E+00 0. -1.
         -6    2    1    2    0  503  0.15720418125E+02  0.62824854952E+02 -0.14652599635E+03  0.23515498207E+03  0.17214500875E+03 0.  0.
        -24    2    3    3    0    0  0.71908342520E+02  0.67756104560E+02 -0.11332213753E+03  0.16953496751E+03  0.78348573206E+02 0.  0.
          6    2    1    2  501    0 -0.15720418125E+02 -0.62824854952E+02 -0.13817841473E+02  0.18447050051E+03  0.17217531434E+03 0.  0.
         24    2    5    5    0    0 -0.48441053821E+02 -0.92287566643E+01 -0.61310247875E+02  0.10559844958E+03  0.70429968151E+02 0.  0.
          5    1    5    5  501    0  0.32720635696E+02 -0.53596098287E+02  0.47492406403E+02  0.78872050930E+02  0.47000000000E+01 0. -1.
        -13    1    6    6    0    0 -0.66339835126E+02 -0.19690788360E+01 -0.43728711446E+02  0.79479879219E+02  0.00000000000E+00 0.  1.
         14    1    6    6    0    0  0.17898781305E+02 -0.72596778283E+01 -0.17581536429E+02  0.26118570359E+02  0.00000000000E+00 0. -1.
         -5    1    3    3    0  503 -0.56187924395E+02 -0.49312496084E+01 -0.33203858817E+02  0.65620014560E+02  0.47000000000E+01 0.  1.
         13    1    4    4    0    0  0.22575687124E+02  0.57266816492E+02 -0.22294938111E+02  0.65469185008E+02  0.00000000000E+00 0. -1.
        -14    1    4    4    0    0  0.49332655396E+02  0.10489288068E+02 -0.91027199420E+02  0.10406578250E+03  0.00000000000E+00 0.  1.
</event>
<event>
12    1  0.8196217E-002  0.2224968E+03  0.7818608E-02  0.1132489E+00
         21   -1    0    0  501  502  0.00000000000E+00  0.00000000000E+00  0.10256231979E+03  0.10256231979E+03  0.00000000000E+00 0.  1.
         21   -1    0    0  502  503 -0.00000000000E+00 -0.00000000000E+00 -0.55167474332E+03  0.55167474332E+03  0.00000000000E+00 0. -1.
         -6    2    1    2    0  503  0.16594762011E+02 -0.13365857734E+03 -0.10342444190E+03  0.24313486449E+03  0.17400559108E+03 0.  0.
        -24    2    3    3    0    0  0.30162213676E+02 -0.16563959507E+02 -0.88583857660E+02  0.12423340020E+03  0.80016960700E+02 0.  0.
          6    2    1    2  501    0 -0.16594762011E+02  0.13365857734E+03 -0.34568798162E+03  0.41110219862E+03  0.17710120172E+03 0.  0.
         24    2    5    5    0    0 -0.29927226705E+02  0.15083536700E+03 -0.34880997108E+03  0.38863814876E+03  0.75658891799E+02 0.  0.
          5    1    5    5  501    0  0.13332464694E+02 -0.17176789663E+02  0.31219894598E+01  0.22464049860E+02  0.47000000000E+01 0. -1.
        -11    1    6    6    0    0 -0.60488791971E+01  0.12784594709E+03 -0.21003113513E+03  0.24595579451E+03  0.00000000000E+00 0.  1.
         12    1    6    6    0    0 -0.23878347508E+02  0.22989419913E+02 -0.13877883595E+03  0.14268235425E+03  0.00000000000E+00 0. -1.
         -5    1    3    3    0  503 -0.13567451664E+02 -0.11709461783E+03 -0.14840584242E+02  0.11890146429E+03  0.47000000000E+01 0.  1.
         13    1    4    4    0    0 -0.13213651821E+02 -0.18026165743E+02  0.33214009187E+01  0.22595905601E+02  0.00000000000E+00 0. -1.
        -14    1    4    4    0    0  0.43375865496E+02  0.14622062361E+01 -0.91905258579E+02  0.10163749460E+03  0.00000000000E+00 0.  1.
</event>
<event>
12    1  0.8196217E-002  0.2154500E+03  0.7818608E-02  0.1138478E+00
         21   -1    0    0  501  502  0.00000000000E+00  0.00000000000E+00  0.49593246442E+03  0.49593246442E+03  0.00000000000E+00 0.  1.
         21   -1    0    0  502  503 -0.00000000000E+00 -0.00000000000E+00 -0.98127505088E+02  0.98127505088E+02  0.00000000000E+00 0.  1.
         -6    2    1    2    0  503 -0.20140495193E+02  0.11863440694E+03  0.11645296846E+03  0.23969059082E+03  0.17149496613E+03 0.  0.
        -24    2    3    3    0    0 -0.47241302979E+02  0.14223832526E+03  0.94928208285E+02  0.19753606504E+03  0.86865703148E+02 0.  0.
          6    2    1    2  501    0  0.20140495193E+02 -0.11863440694E+03  0.28135199087E+03  0.35436937869E+03  0.17871472164E+03 0.  0.
         24    2    5    5    0    0  0.80568412756E+02 -0.52617504070E+02  0.14940742706E+03  0.19486632980E+03  0.79940204911E+02 0.  0.
          5    1    5    5  501    0 -0.60427917562E+02 -0.66016902865E+02  0.13194456381E+03  0.15950304888E+03  0.47000000000E+01 0. -1.
        -13    1    6    6    0    0  0.12861512286E+01  0.17772644317E+02  0.12779090348E+02  0.21927750024E+02  0.00000000000E+00 0.  1.
         14    1    6    6    0    0  0.79282261527E+02 -0.70390148387E+02  0.13662833672E+03  0.17293857978E+03  0.00000000000E+00 0. -1.
         -5    1    3    3    0  503  0.27100807786E+02 -0.23603918324E+02  0.21524760173E+02  0.42154525776E+02  0.47000000000E+01 0.  1.
         13    1    4    4    0    0  0.20443964714E+02  0.62554044655E+02  0.54477558889E+02  0.85432831033E+02  0.00000000000E+00 0. -1.
        -14    1    4    4    0    0 -0.67685267693E+02  0.79684280605E+02  0.40450649397E+02  0.11210323401E+03  0.00000000000E+00 0.  1.
</event>
<event>
12    1  0.8196217E-002  0.1872934E+03  0.7818608E-02  0.1161385E+00
         21   -1    0    0  503  502  0.00000000000E+00  0.00000000000E+00  0.20992708466E+02  0.20992708466E+02  0.00000000000E+00 0. -1.
         21   -1    0    0  501  503 -0.00000000000E+00 -0.00000000000E+00 -0.25497464504E+04  0.25497464504E+04  0.00000000000E+00 0. -1.
          6    2    1    2  501    0  0.33618344360E+02  0.62157094919E+02 -0.20308945232E+04  0.20395125313E+04  0.17345057856E+03 0.  0.
         24    2    3    3    0    0  0.30493654644E+02  0.96312786148E+02 -0.18893345751E+04  0.18937809841E+04  0.81334268800E+02 0.  0.
         -6    2    1    2    0  502 -0.33618344360E+02 -0.62157094919E+02 -0.49785921873E+03  0.53122662762E+03  0.17130157820E+03 0.  0.
        -24    2    5    5    0    0 -0.68014778885E+02 -0.21451427110E+02 -0.43851979743E+03  0.45133092673E+03  0.79459542022E+02 0.  0.
          5    1    3    3  501    0  0.31246897161E+01 -0.34155691229E+02 -0.14155994808E+03  0.14573154714E+03  0.47000000000E+01 0. -1.
        -13    1    4    4    0    0 -0.18209947017E+02  0.65399750060E+01 -0.63517763649E+03  0.63547226796E+03  0.00000000000E+00 0.  1.
         14    1    4    4    0    0  0.48703601661E+02  0.89772811142E+02 -0.12541569386E+04  0.12583087162E+04  0.00000000000E+00 0. -1.
         -5    1    5    5    0  502  0.34396434525E+02 -0.40705667809E+02 -0.59339421304E+02  0.79895700888E+02  0.47000000000E+01 0.  1.
         11    1    6    6    0    0 -0.37658004305E+02  0.20770272108E+02 -0.30542358167E+03  0.30843653112E+03  0.00000000000E+00 0. -1.
        -12    1    6    6    0    0 -0.30356774580E+02 -0.42221699217E+02 -0.13309621576E+03  0.14289439561E+03  0.00000000000E+00 0.  1.
</event>
<event>
12    1  0.8196217E-002  0.1776209E+03  0.7818608E-02  0.1171309E+00
         21   -1    0    0  503  502  0.00000000000E+00  0.00000000000E+00  0.12353310012E+03  0.12353310012E+03  0.00000000000E+00 0. -1.
         21   -1    0    0  501  503 -0.00000000000E+00 -0.00000000000E+00 -0.26022441998E+03  0.26022441998E+03  0.00000000000E+00 0. -1.
          6    2    1    2  501    0 -0.98863378528E+01  0.29732779289E+02 -0.10974186084E+03  0.20878811366E+03  0.17483541559E+03 0.  0.
         24    2    3    3    0    0  0.56457412449E+02  0.45487286877E+02 -0.55867021751E+02  0.12175773965E+03  0.80295020756E+02 0.  0.
         -6    2    1    2    0  502  0.98863378528E+01 -0.29732779289E+02 -0.26949459026E+02  0.17496940644E+03  0.17001835785E+03 0.  0.
        -24    2    5    5    0    0  0.63693677217E+02 -0.26272183221E+02 -0.48910180893E+02  0.11656077009E+03  0.80293805497E+02 0.  0.
          5    1    3    3  501    0 -0.66343750302E+02 -0.15754507588E+02 -0.53874839091E+02  0.87030374011E+02  0.47000000000E+01 0. -1.
        -11    1    4    4    0    0  0.40214728798E+02  0.37713425618E+02 -0.76548432031E+02  0.94335514683E+02  0.00000000000E+00 0.  1.
         12    1    4    4    0    0  0.16242683651E+02  0.77738612595E+01  0.20681410281E+02  0.27422224969E+02  0.00000000000E+00 0. -1.
         -5    1    5    5    0  502 -0.53807339364E+02 -0.34605960679E+01  0.21960721867E+02  0.58408636343E+02  0.47000000000E+01 0.  1.
         11    1    6    6    0    0  0.46675260830E+02 -0.16850676646E+02  0.13304143739E+02  0.51376312807E+02  0.00000000000E+00 0. -1.
        -12    1    6    6    0    0  0.17018416387E+02 -0.94215065752E+01 -0.62214324631E+02  0.65184457287E+02  0.00000000000E+00 0.  1.
</event>
<event>
12    1  0.8196217E-002  0.2032138E+03  0.7818608E-02  0.1147124E+00
         21   -1    0    0  501  502  0.00000000000E+00  0.00000000000E+00  0.77641058077E+02  0.77641058077E+02  0.00000000000E+00 0. -1.
         21   -1    0    0  502  503 -0.00000000000E+00 -0.00000000000E+00 -0.53103019870E+03  0.53103019870E+03  0.00000000000E+00 0.  1.
         -6    2    1    2    0  503 -0.31369367408E+02  0.10288157798E+03 -0.22840501026E+03  0.30549854454E+03  0.17202283483E+03 0.  0.
        -24    2    3    3    0    0 -0.49997957223E+02  0.18551512771E+02 -0.74282960484E+02  0.12876631634E+03  0.90657882465E+02 0.  0.
          6    2    1    2  501    0  0.31369367408E+02 -0.10288157798E+03 -0.22498413037E+03  0.30317271224E+03  0.17241571342E+03 0.  0.
         24    2    5    5    0    0  0.18577458143E+02 -0.64063761892E+02 -0.23903218624E+03  0.25969980502E+03  0.76539631109E+02 0.  0.
          5    1    5    5  501    0  0.12791909265E+02 -0.38817816084E+02  0.14048055877E+02  0.43472907220E+02  0.47000000000E+01 0. -1.
        -11    1    6    6    0    0  0.68760136312E+01 -0.77248563902E+02 -0.14918104676E+03  0.16813567409E+03  0.00000000000E+00 0.  1.
         12    1    6    6    0    0  0.11701444512E+02  0.13184802010E+02 -0.89851139481E+02  0.91564130934E+02  0.00000000000E+00 0. -1.
         -5    1    3    3    0  503  0.18628589814E+02  0.84330065205E+02 -0.15412204978E+03  0.17673222820E+03  0.47000000000E+01 0.  1.
         13    1    4    4    0    0 -0.38433956149E+02  0.53267217431E+02 -0.61568689984E+02  0.90029267599E+02  0.00000000000E+00 0. -1.
        -14    1    4    4    0    0 -0.11564001073E+02 -0.34715704660E+02 -0.12714270500E+02  0.38737048741E+02  0.00000000000E+00 0.  1.
</event>
<event>
12    1  0.8196217E-002  0.2320146E+03  0.7818608E-02  0.1126059E+00
         21   -1    0    0  501  502  0.00000000000E+00  0.00000000000E+00  0.24173089177E+03  0.24173089177E+03  0.00000000000E+00 0. -1.
         21   -1    0    0  502  503 -0.00000000000E+00 -0.00000000000E+00 -0.29126160430E+03  0.29126160430E+03  0.00000000000E+00 0.  1.
         -6    2    1    2    0  503 -0.35748496408E+02 -0.15168747653E+03 -0.15843471297E+03  0.28094900409E+03  0.17188292265E+03 0.  0.
        -24    2    3    3    0    0 -0.56129585045E+02 -0.15382894824E+03 -0.78383268484E+02  0.19818247439E+03  0.79488871829E+02 0.  0.
          6    2    1    2  501    0  0.35748496408E+02  0.15168747653E+03  0.10890400043E+03  0.25204349198E+03  0.16546538915E+03 0.  0.
         24    2    5    5    0    0  0.37091188846E+02  0.19576903162E+02  0.18915760449E+02  0.92121699362E+02  0.79809711643E+02 0.  0.
          5    1    5    5  501    0 -0.13426924385E+01  0.13211057337E+03  0.89988239981E+02  0.15992179262E+03  0.47000000000E+01 0. -1.
        -13    1    6    6    0    0 -0.25400436764E+02  0.50445788739E+01  0.74428336328E+01  0.26944864748E+02  0.00000000000E+00 0.  1.
         14    1    6    6    0    0  0.62491625610E+02  0.14532324288E+02  0.11472926817E+02  0.65176834614E+02  0.00000000000E+00 0. -1.
         -5    1    3    3    0  503  0.20381088638E+02  0.21414717086E+01 -0.80051444484E+02  0.82766529703E+02  0.47000000000E+01 0.  1.
         11    1    4    4    0    0  0.13473775879E+02 -0.69677998773E+02 -0.17272604640E+02  0.73040461530E+02  0.00000000000E+00 0. -1.
        -12    1    4    4    0    0 -0.69603360924E+02 -0.84150949464E+02 -0.61110663843E+02  0.12514201286E+03  0.00000000000E+00 0.  1.
</event>
<event>
12    1  0.8196217E-002  0.1834179E+03  0.7818608E-02  0.1164827E+00
         21   -1    0    0  501  502  0.00000000000E+00  0.00000000000E+00  0.10762023310E+03  0.10762023310E+03  0.00000000000E+00 0.  1.
         21   -1    0    0  502  503 -0.00000000000E+00 -0.00000000000E+00 -0.31073771919E+03  0.31073771919E+03  0.00000000000E+00 0.  1.
         -6    2    1    2    0  503  0.45151076995E+02 -0.43541261864E+02 -0.10761335298E+03  0.21265647328E+03  0.17235916178E+03 0.  0.
        -24    2    3    3    0    0 -0.32854107652E+02  0.20660477782E+01 -0.24271357064E+02  0.89640970971E+02  0.79766809889E+02 0.  0.
          6    2    1    2  501    0 -0.45151076995E+02  0.43541261864E+02 -0.95504133107E+02  0.20570147900E+03  0.17104852465E+03 0.  0.
         24    2    5    5    0    0  0.26837308757E+02  0.53760706746E+02 -0.88836493561E+02  0.13253514690E+03  0.77866474453E+02 0.  0.
          5    1    5    5  501    0 -0.71988385752E+02 -0.10219444882E+02 -0.66676395463E+01  0.73166332107E+02  0.47000000000E+01 0. -1.
        -11    1    6    6    0    0  0.44957699229E+02  0.30690027589E+02 -0.87647038240E+02  0.10317497674E+03  0.00000000000E+00 0.  1.
         12    1    6    6    0    0 -0.18120390472E+02  0.23070679157E+02 -0.11894553208E+01  0.29360170156E+02  0.00000000000E+00 0. -1.
         -5    1    3    3    0  503  0.78005184647E+02 -0.45607309642E+02 -0.83341995917E+02  0.12301550231E+03  0.47000000000E+01 0.  1.
         11    1    4    4    0    0 -0.47992735519E+02 -0.14205266121E+02 -0.38592475358E+02  0.63201830689E+02  0.00000000000E+00 0. -1.
        -12    1    4    4    0    0  0.15138627867E+02  0.16271313899E+02  0.14321118294E+02  0.26439140283E+02  0.00000000000E+00 0.  1.
</event>
<event>
12    1  0.8196217E-002  0.1809136E+03  0.7818608E-02  0.1167060E+00
         21   -1    0    0  503  502  0.00000000000E+00  0.00000000000E+00  0.40083722964E+03  0.40083722964E+03  0.00000000000E+00 0.  1.
         21   -1    0    0  501  503 -0.00000000000E+00 -0.00000000000E+00 -0.82127888175E+02  0.82127888175E+02  0.00000000000E+00 0.  1.
          6    2    1    2  501    0  0.39759102807E+02 -0.39766801402E+02  0.18193399015E+03  0.25616737687E+03  0.17134632606E+03 0.  0.
         24    2    3    3    0    0 -0.29507889686E+02  0.13580422424E+02  0.56664060430E+02  0.10333253847E+03  0.80072806461E+02 0.  0.
         -6    2    1    2    0  502 -0.39759102807E+02  0.39766801402E+02  0.13677535131E+03  0.22679774094E+03  0.17195212653E+03 0.  0.
        -24    2    5    5    0    0 -0.66455848660E+02  0.78434047090E+02  0.11754539827E+03  0.17580996571E+03  0.80770934295E+02 0.  0.
          5    1    3    3  501    0  0.69266992493E+02 -0.53347223827E+02  0.12526992972E+03  0.15283483841E+03  0.47000000000E+01 0. -1.
        -13    1    4    4    0    0  0.19008749675E+02  0.15326099565E+02  0.48227964776E+02  0.54056992874E+02  0.00000000000E+00 0.  1.
         14    1    4    4    0    0 -0.48516639361E+02 -0.17456771411E+01  0.84360956533E+01  0.49275545593E+02  0.00000000000E+00 0. -1.
         -5    1    5    5    0  502  0.26696745853E+02 -0.38667245687E+02  0.19229953048E+02  0.50987775225E+02  0.47000000000E+01 0.  1.
         11    1    6    6    0    0 -0.45581498335E+02  0.43091308012E+02  0.11923579498E+03  0.13472827699E+03  0.00000000000E+00 0. -1.
        -12    1    6    6    0    0 -0.20874350325E+02  0.35342739077E+02 -0.16903967171E+01  0.41081688720E+02  0.00000000000E+00 0.  1.
</event>
<event>
12    1  0.8196217E-002  0.2014229E+03  0.7818608E-02  0.1148584E+00
         21   -1    0    0  503  502  0.00000000000E+00  0.00000000000E+00  0.44701759126E+03  0.44701759126E+03  0.00000000000E+00 0. -1.
         21   -1    0    0  501  503 -0.00000000000E+00 -0.00000000000E+00 -0.17398561483E+03  0.17398561483E+03  0.00000000000E+00 0.  1.
          6    2    1    2  501    0  0.33461145711E+02 -0.98985358575E+02 -0.78381964414E+02  0.21595635339E+03  0.17197576788E+03 0.  0.
         24    2    3    3    0    0  0.56713418745E+02 -0.71505138214E+02 -0.11587275750E+03  0.16376937916E+03  0.71165419722E+02 0.  0.
         -6    2    1    2    0  502 -0.33461145711E+02  0.98985358575E+02  0.35141394084E+03  0.40504685270E+03  0.17220175835E+03 0.  0.
        -24    2    5    5    0    0 -0.54425126048E+02  0.12592079864E+03  0.32668477624E+03  0.36263661826E+03  0.77228440363E+02 0.  0.
          5    1    3    3  501    0 -0.23252273034E+02 -0.27480220361E+02  0.37490793087E+02  0.52186974224E+02  0.47000000000E+01 0. -1.
        -13    1    4    4    0    0  0.54625349884E+02 -0.32401443034E+02 -0.10569422001E+03  0.12330876086E+03  0.00000000000E+00 0.  1.
         14    1    4    4    0    0  0.20880688611E+01 -0.39103695180E+02 -0.10178537490E+02  0.40460618307E+02  0.00000000000E+00 0. -1.
         -5    1    5    5    0  502  0.20963980337E+02 -0.26935440066E+02  0.24729164598E+02  0.42410234436E+02  0.47000000000E+01 0.  1.
         13    1    6    6    0    0  0.59869471447E+01  0.63831417321E+02  0.19270105690E+03  0.20308616572E+03  0.00000000000E+00 0. -1.
        -14    1    6    6    0    0 -0.60412073193E+02  0.62089381320E+02  0.13398371934E+03  0.15955045255E+03  0.00000000000E+00 0.  1.
</event>
<event>
12    1  0.8196217E-002  0.1877028E+03  0.7818608E-02  0.1160559E+00
         21   -1    0    0  503  502  0.00000000000E+00  0.00000000000E+00  0.18484685307E+03  0.18484685307E+03  0.00000000000E+00 0.  1.
         21   -1    0    0  501  503 -0.00000000000E+00 -0.00000000000E+00 -0.59286443966E+03  0.59286443966E+03  0.00000000000E+00 0.  1.
          6    2    1    2  501    0  0.71765080249E+02  0.12085086993E+02 -0.52432394853E+03  0.55689570306E+03  0.17297671813E+03 0.  0.
         24    2    3    3    0    0  0.85354954513E+02 -0.45647941611E+02 -0.36851762599E+03  0.39011594585E+03  0.83761612346E+02 0.  0.
         -6    2    1    2    0  502 -0.71765080249E+02 -0.12085086993E+02  0.11630636194E+03  0.22081558967E+03  0.17302045759E+03 0.  0.
        -24    2    5    5    0    0 -0.21278253105E+02  0.58093484019E+02  0.53952924854E+02  0.11411979472E+03  0.79276683245E+02 0.  0.
          5    1    3    3  501    0 -0.13589874263E+02  0.57733028603E+02 -0.15580632253E+03  0.16677975721E+03  0.47000000000E+01 0. -1.
        -11    1    4    4    0    0  0.77061983841E+02 -0.16117526003E+02 -0.14952178670E+03  0.16898251003E+03  0.00000000000E+00 0.  1.
         12    1    4    4    0    0  0.82929706715E+01 -0.29530415607E+02 -0.21899583929E+03  0.22113343581E+03  0.00000000000E+00 0. -1.
         -5    1    5    5    0  502 -0.50486827144E+02 -0.70178571011E+02  0.62353437086E+02  0.10669579495E+03  0.47000000000E+01 0.  1.
         11    1    6    6    0    0  0.18578622679E+02  0.27778431918E+02 -0.80956350545E+01  0.34385255669E+02  0.00000000000E+00 0. -1.
        -12    1    6    6    0    0 -0.39856875784E+02  0.30315052101E+02  0.62048559909E+02  0.79734539053E+02  0.00000000000E+00 0.  1.
</event>
<event>
12    1  0.8196217E-002  0.1953977E+03  0.7818608E-02  0.1153883E+00
         21   -1    0    0  501  502  0.00000000000E+00  0.00000000000E+00  0.24117689307E+03  0.24117689307E+03  0.00000000000E+00 0. -1.
         21   -1    0    0  502  503 -0.00000000000E+00 -0.00000000000E+00 -0.23111222268E+03  0.23111222268E+03  0.00000000000E+00 0. -1.
         -6    2    1    2    0  503  0.20969622743E+01 -0.91252041495E+02 -0.12817888714E+03  0.23368799673E+03  0.17276840099E+03 0.  0.
        -24    2    3    3    0    0 -0.55519280135E+02 -0.74298912875E+02 -0.43172928174E+02  0.12949997909E+03  0.79395364708E+02 0.  0.
          6    2    1    2  501    0 -0.20969622743E+01  0.91252041495E+02  0.13824355753E+03  0.23860111902E+03  0.17172035544E+03 0.  0.
         24    2    5    5    0    0 -0.20219326189E+01  0.39507256740E+02  0.15903302416E+03  0.18263845020E+03  0.80624990985E+02 0.  0.
          5    1    5    5  501    0 -0.75029655370E-01  0.51744784755E+02 -0.20789466632E+02  0.55962668822E+02  0.47000000000E+01 0. -1.
        -13    1    6    6    0    0 -0.17821075735E+02 -0.16203533560E+02  0.86687107936E+02  0.89971106043E+02  0.00000000000E+00 0.  1.
         14    1    6    6    0    0  0.15799143116E+02  0.55710790299E+02  0.72345916225E+02  0.92667344159E+02  0.00000000000E+00 0. -1.
         -5    1    3    3    0  503  0.57616242410E+02 -0.16953128620E+02 -0.85005958963E+02  0.10418801763E+03  0.47000000000E+01 0.  1.
         13    1    4    4    0    0 -0.40724098175E+02 -0.77083820006E+02 -0.60823579169E+02  0.10630087141E+03  0.00000000000E+00 0. -1.
        -14    1    4    4    0    0 -0.14795181961E+02  0.27849071308E+01  0.17650650995E+02  0.23199107688E+02  0.00000000000E+00 0.  1.
</event>
<event>
12    1  0.8196217E-002  0.2021361E+03  0.7818608E-02  0.1149154E+00
         21   -1    0    0  503  502  0.00000000000E+00  0.00000000000E+00  0.16972190102E+03  0.16972190102E+03  0.00000000000E+00 0.  1.
         21   -1    0    0  501  503 -0.00000000000E+00 -0.00000000000E+00 -0.26085841075E+03  0.26085841075E+03  0.00000000000E+00 0.  1.
          6    2    1    2  501    0 -0.37552508553E+02 -0.99176737474E+02  0.24093542896E+02  0.19790679075E+03  0.16534927535E+03 0.  0.
         24    2    3    3    0    0 -0.69120200413E+02 -0.10238145394E+03  0.47265464592E+02  0.15833638094E+03  0.87044937647E+02 0.  0.
         -6    2    1    2    0  502  0.37552508553E+02  0.99176737474E+02 -0.11523005263E+03  0.23267352102E+03  0.17208366047E+03 0.  0.
        -24    2    5    5    0    0 -0.23032373275E+02  0.10604211296E+03 -0.50188085706E+02  0.14339749542E+03  0.79174350686E+02 0.  0.
          5    1    3    3  501    0  0.31567691861E+02  0.32047164701E+01 -0.23171921696E+02  0.39570409805E+02  0.47000000000E+01 0. -1.
        -13    1    4    4    0    0 -0.29034590921E+02 -0.98172355448E+02  0.56576534898E+02  0.11696889820E+03  0.00000000000E+00 0.  1.
         14    1    4    4    0    0 -0.40085609492E+02 -0.42090984958E+01 -0.93110703061E+01  0.41367482746E+02  0.00000000000E+00 0. -1.
         -5    1    5    5    0  502  0.60584881828E+02 -0.68653754836E+01 -0.65041966919E+02  0.89276025603E+02  0.47000000000E+01 0.  1.
         13    1    6    6    0    0  0.13943623794E+02  0.78003825503E+02 -0.62409314392E+01  0.79485663254E+02  0.00000000000E+00 0. -1.
        -14    1    6    6    0    0 -0.36975997069E+02  0.28038287454E+02 -0.43947154267E+02  0.63911832166E+02  0.00000000000E+00 0.  1.
</event>
<event>
12    1  0.8196217E-002  0.1835715E+03  0.7818608E-02  0.1164577E+00
         21   -1    0    0  503  502  0.00000000000E+00  0.00000000000E+00  0.13478234268E+02  0.13478234268E+02  0.00000000000E+00 0. -1.
         21   -1    0    0  501  503 -0.00000000000E+00 -0.00000000000E+00 -0.28388701837E+04  0.28388701837E+04  0.00000000000E+00 0. -1.
          6    2    1    2  501    0  0.60601554909E+02 -0.10981655383E+02 -0.19103426542E+04  0.19190672581E+04  0.17209572813E+03 0.  0.
         24    2    3    3    0    0  0.25455312746E+02  0.32908368651E+02 -0.53167093579E+03  0.53924140331E+03  0.79852197244E+02 0.  0.
         -6    2    1    2    0  502 -0.60601554909E+02  0.10981655383E+02 -0.91504929527E+03  0.93328115986E+03  0.17293167828E+03 0.  0.
        -24    2    5    5    0    0 -0.91855056894E+02  0.17567979126E+02 -0.43333666795E+03  0.45048792630E+03  0.80079451695E+02 0.  0.
          5    1    3    3  501    0  0.35146242163E+02 -0.43890024034E+02 -0.13786717184E+04  0.13798258548E+04  0.47000000000E+01 0. -1.
        -13    1    4    4    0    0  0.53858372821E+02  0.24431435341E+02 -0.30926437696E+03  0.31486834426E+03  0.00000000000E+00 0.  1.
         14    1    4    4    0    0 -0.28403060075E+02  0.84769333102E+01 -0.22240655882E+03  0.22437305905E+03  0.00000000000E+00 0. -1.
         -5    1    5    5    0  502  0.31253501985E+02 -0.65863237426E+01 -0.48171262732E+03  0.48279323356E+03  0.47000000000E+01 0.  1.
         11    1    6    6    0    0 -0.51020871194E+02  0.40616025209E+02 -0.33812518581E+03  0.34435654790E+03  0.00000000000E+00 0. -1.
        -12    1    6    6    0    0 -0.40834185701E+02 -0.23048046083E+02 -0.95211482139E+02  0.10613137840E+03  0.00000000000E+00 0.  1.
</event>
<event>
12    1  0.8196217E-002  0.1786609E+03  0.7818608E-02  0.1169380E+00
         21   -1    0    0  503  502  0.00000000000E+00  0.00000000000E+00  0.58051803600E+02  0.58051803600E+02  0.00000000000E+00 0.  1.
         21   -1    0    0  501  503 -0.00000000000E+00 -0.00000000000E+00 -0.87811302285E+03  0.87811302285E+03  0.00000000000E+00 0.  1.
          6    2    1    2  501    0  0.44896085856E+02  0.16045004157E+02 -0.69852516430E+03  0.72101118967E+03  0.17218196708E+03 0.  0.
         24    2    3    3    0    0  0.71971548998E+02  0.31449762690E+02 -0.66657843529E+03  0.67614393230E+03  0.81699543127E+02 0.  0.
         -6    2    1    2    0  502 -0.44896085856E+02 -0.16045004157E+02 -0.12153605496E+03  0.21515363679E+03  0.17101746719E+03 0.  0.
        -24    2    5    5    0    0  0.37802227013E+02 -0.12246294461E+02 -0.10248885167E+03  0.13007527820E+03  0.69545907045E+02 0.  0.
          5    1    3    3  501    0 -0.27075463142E+02 -0.15404758533E+02 -0.31946729002E+02  0.44867257368E+02  0.47000000000E+01 0. -1.
        -13    1    4    4    0    0  0.30019778147E+02 -0.26531076883E+02 -0.18598468282E+03  0.19025085378E+03  0.00000000000E+00 0.  1.
         14    1    4    4    0    0  0.41951770851E+02  0.57980839573E+02 -0.48059375247E+03  0.48589307851E+03  0.00000000000E+00 0. -1.
         -5    1    5    5    0  502 -0.82698312869E+02 -0.37987096963E+01 -0.19047203286E+02  0.85078358587E+02  0.47000000000E+01 0.  1.
         13    1    6    6    0    0 -0.49054717567E+00 -0.22453709425E+02 -0.82861575255E+02  0.85851327055E+02  0.00000000000E+00 0. -1.
        -14    1    6    6    0    0  0.38292774189E+02  0.10207414964E+02 -0.19627276417E+02  0.44223951145E+02  0.00000000000E+00 0.  1.
</event>
<event>
12    1  0.8196217E-002  0.3232569E+03  0.7818608E-02  0.1074165E+00
         21   -1    0    0  503  502  0.00000000000E+00  0.00000000000E+00  0.45302528931E+03  0.45302528931E+03  0.00000000000E+00 0. -1.
         21   -1    0    0  501  503 -0.00000000000E+00 -0.00000000000E+00 -0.24942056400E+03  0.24942056400E+03  0.00000000000E+00 0. -1.
          6    2    1    2  501    0 -0.14486088600E+03  0.23237188628E+03  0.19820315624E+03  0.37914382439E+03  0.17170957632E+03 0.  0.
         24    2    3    3    0    0 -0.78297425044E+02  0.45490660720E+02  0.37266919979E+02  0.12364852317E+03  0.75499979976E+02 0.  0.
         -6    2    1    2    0  502  0.14486088600E+03 -0.23237188628E+03  0.54015690647E+01  0.32330202892E+03  0.17179538739E+03 0.  0.
        -24    2    5    5    0    0  0.42481635533E+02 -0.18092707138E+03  0.33707424314E+02  0.20518602091E+03  0.80161201392E+02 0.  0.
          5    1    3    3  501    0 -0.66563460958E+02  0.18688122556E+03  0.16093623626E+03  0.25549530122E+03  0.47000000000E+01 0. -1.
        -11    1    4    4    0    0  0.10579301695E+02 -0.87538930031E+01  0.32604584165E+01  0.14113215656E+02  0.00000000000E+00 0.  1.
         12    1    4    4    0    0 -0.88876726739E+02  0.54244553723E+02  0.34006461562E+02  0.10953530752E+03  0.00000000000E+00 0. -1.
         -5    1    5    5    0  502  0.10237925047E+03 -0.51444814906E+02 -0.28305855249E+02  0.11811600801E+03  0.47000000000E+01 0.  1.
         11    1    6    6    0    0  0.29007903066E+02 -0.11282373601E+03  0.59893612618E+02  0.13098816236E+03  0.00000000000E+00 0. -1.
        -12    1    6    6    0    0  0.13473732467E+02 -0.68103335369E+02 -0.26186188304E+02  0.74197858546E+02  0.00000000000E+00 0.  1.
</event>
<event>
12    1  0.8196217E-002  0.4415681E+03  0.7818608E-02  0.1030336E+00
         21   -1    0    0  503  502  0.00000000000E+00  0.00000000000E+00  0.17075342158E+03  0.17075342158E+03  0.00000000000E+00 0. -1.
         21   -1    0    0  501  503 -0.00000000000E+00 -0.00000000000E+00 -0.15195933606E+04  0.15195933606E+04  0.00000000000E+00 0.  1.
          6    2    1    2  501    0 -0.39891925994E+03  0.75551986814E+02 -0.10965680683E+04  0.11817963792E+04  0.17127893867E+03 0.  0.
         24    2    3    3    0    0 -0.31155598807E+03  0.65207636888E+02 -0.99364326368E+03  0.10463159295E+04  0.78300186882E+02 0.  0.
         -6    2    1    2    0  502  0.39891925994E+03 -0.75551986814E+02 -0.25227187074E+03  0.50855040299E+03  0.17360223774E+03 0.  0.
        -24    2    5    5    0    0  0.21968728087E+03 -0.80567202232E+02 -0.76032320366E+02  0.25709121380E+03  0.74574814953E+02 0.  0.
          5    1    3    3  501    0 -0.87363271871E+02  0.10344349926E+02 -0.10292480465E+03  0.13548044973E+03  0.47000000000E+01 0. -1.
        -13    1    4    4    0    0 -0.23943117457E+03  0.16073270791E+02 -0.70093984134E+03  0.74087940893E+03  0.00000000000E+00 0.  1.
         14    1    4    4    0    0 -0.72124813499E+02  0.49134366097E+02 -0.29270342234E+03  0.30543652057E+03  0.00000000000E+00 0. -1.
         -5    1    5    5    0  502  0.17923197908E+03  0.50152154182E+01 -0.17623955038E+03  0.25145918919E+03  0.47000000000E+01 0.  1.
         13    1    6    6    0    0  0.20686331826E+03 -0.80525680297E+02 -0.88715213490E+02  0.23905481951E+03  0.00000000000E+00 0. -1.
        -14    1    6    6    0    0  0.12823962609E+02 -0.41521935427E-01  0.12682893124E+02  0.18036394292E+02  0.00000000000E+00 0.  1.
</event>
<event>
12    1  0.8196217E-002  0.3025984E+03  0.7818608E-02  0.1084049E+00
         21   -1    0    0  503  502  0.00000000000E+00  0.00000000000E+00  0.53969807575E+03  0.53969807575E+03  0.00000000000E+00 0.  1.
         21   -1    0    0  501  503 -0.00000000000E+00 -0.00000000000E+00 -0.35238944350E+03  0.35238944350E+03  0.00000000000E+00 0. -1.
          6    2    1    2  501    0 -0.22720203401E+03  0.10142922989E+03 -0.22788009704E+03  0.37880754940E+03  0.17221256609E+03 0.  0.
         24    2    3    3    0    0 -0.89118974294E+02  0.14429414314E+02 -0.16594162330E+03  0.20418119451E+03  0.77478631065E+02 0.  0.
         -6    2    1    2    0  502  0.22720203401E+03 -0.10142922989E+03  0.41518872929E+03  0.51327996984E+03  0.17078054214E+03 0.  0.
        -24    2    5    5    0    0  0.19671634873E+03 -0.10696999716E+03  0.24868476848E+03  0.34385229774E+03  0.79059385497E+02 0.  0.
          5    1    3    3  501    0 -0.13808305972E+03  0.86999815580E+02 -0.61938473738E+02  0.17462635489E+03  0.47000000000E+01 0. -1.
        -13    1    4    4    0    0 -0.23996320956E+02  0.34925589519E+02 -0.10278336138E+03  0.11117571497E+03  0.00000000000E+00 0.  1.
         14    1    4    4    0    0 -0.65122653338E+02 -0.20496175205E+02 -0.63158261924E+02  0.93005479544E+02  0.00000000000E+00 0. -1.
         -5    1    5    5    0  502  0.30485685282E+02  0.55407672662E+01  0.16650396081E+03  0.16942767211E+03  0.47000000000E+01 0.  1.
         11    1    6    6    0    0  0.32845221410E+02 -0.47387551501E+02  0.32760397213E+02  0.66314645685E+02  0.00000000000E+00 0. -1.
        -12    1    6    6    0    0  0.16387112732E+03 -0.59582445659E+02  0.21592437127E+03  0.27753765206E+03  0.00000000000E+00 0.  1.
</event>
<event>
12    1  0.8196217E-002  0.1739754E+03  0.7818608E-02  0.1173955E+00
         21   -1    0    0  503  502  0.00000000000E+00  0.00000000000E+00  0.96621785617E+02  0.96621785617E+02  0.00000000000E+00 0. -1.
         21   -1    0    0  501  503 -0.00000000000E+00 -0.00000000000E+00 -0.31191782355E+03  0.31191782355E+03  0.00000000000E+00 0. -1.
          6    2    1    2  501    0 -0.27201727995E+02  0.17746131233E+01 -0.10923712919E+03  0.20542688485E+03  0.17182657352E+03 0.  0.
         24    2    3    3    0    0  0.29920838497E+02 -0.46930430974E+02 -0.51958723968E+02  0.11088549377E+03  0.80611176670E+02 0.  0.
         -6    2    1    2    0  502  0.27201727995E+02 -0.17746131233E+01 -0.10605890874E+03  0.20311272431E+03  0.17106490989E+03 0.  0.
        -24    2    5    5    0    0  0.30944094400E+02 -0.14092933142E+02 -0.14120555669E+03  0.16538841946E+03  0.79108610836E+02 0.  0.
          5    1    3    3  501    0 -0.57122566492E+02  0.48705044098E+02 -0.57278405217E+02  0.94541391081E+02  0.47000000000E+01 0. -1.
        -11    1    4    4    0    0  0.13468814630E+02 -0.19612075208E+02  0.20700229333E+02  0.31536359269E+02  0.00000000000E+00 0.  1.
         12    1    4    4    0    0  0.16452023867E+02 -0.27318355767E+02 -0.72658953301E+02  0.79349134500E+02  0.00000000000E+00 0. -1.
         -5    1    5    5    0  502 -0.37423664047E+01  0.12318320018E+02  0.35146647950E+02  0.37724304851E+02  0.47000000000E+01 0.  1.
         11    1    6    6    0    0 -0.10159986672E+01 -0.17102253426E+02  0.32250817712E+01  0.17433315175E+02  0.00000000000E+00 0. -1.
        -12    1    6    6    0    0  0.31960093067E+02  0.30093202849E+01 -0.14443063846E+03  0.14795510429E+03  0.00000000000E+00 0.  1.
</event>
<event>
12    1  0.8196217E-002  0.2650473E+03  0.7818608E-02  0.1104358E+00
         21   -1    0    0  501  502  0.00000000000E+00  0.00000000000E+00  0.22632586593E+03  0.22632586593E+03  0.00000000000E+00 0.  1.
         21   -1    0    0  502  503 -0.00000000000E+00 -0.00000000000E+00 -0.31086825597E+03  0.31086825597E+03  0.00000000000E+00 0. -1.
         -6    2    1    2    0  503  0.12245005159E+03  0.15823246895E+03 -0.64465166482E+02  0.27138744573E+03  0.17165039657E+03 0.  0.
        -24    2    3    3    0    0  0.18529136099E+02  0.13189533718E+03 -0.35536529961E+02  0.16024718660E+03  0.81710507259E+02 0.  0.
          6    2    1    2  501    0 -0.12245005159E+03 -0.15823246895E+03 -0.20077223563E+02  0.26580667617E+03  0.17383487804E+03 0.  0.
         24    2    5    5    0    0 -0.37503084432E+02 -0.91594023951E+02  0.50450326120E+02  0.13676058035E+03  0.79763866295E+02 0.  0.
          5    1    5    5  501    0 -0.84946967162E+02 -0.66638445002E+02 -0.70527549683E+02  0.12904609582E+03  0.47000000000E+01 0. -1.
        -13    1    6    6    0    0 -0.34726384105E+02 -0.71562294330E+02 -0.30132075545E+01  0.79600019739E+02  0.00000000000E+00 0.  1.
         14    1    6    6    0    0 -0.27767003278E+01 -0.20031729622E+02  0.53463533674E+02  0.57160560610E+02  0.00000000000E+00 0. -1.
         -5    1    3    3    0  503  0.10392091550E+03  0.26337131768E+02 -0.28928636521E+02  0.11114025912E+03  0.47000000000E+01 0.  1.
         13    1    4    4    0    0  0.39238076728E+02  0.85873083714E+02 -0.51204040123E+02  0.10740422197E+03  0.00000000000E+00 0. -1.
        -14    1    4    4    0    0 -0.20708940628E+02  0.46022253471E+02  0.15667510162E+02  0.52842964633E+02  0.00000000000E+00 0.  1.
</event>
<event>
12    1  0.8196217E-002  0.1787137E+03  0.7818608E-02  0.1169540E+00
         21   -1    0    0  501  502  0.00000000000E+00  0.00000000000E+00  0.57343742824E+03  0.57343742824E+03  0.00000000000E+00 0. -1.
         21   -1    0    0  502  503 -0.00000000000E+00 -0.00000000000E+00 -0.63517254475E+02  0.63517254475E+02  0.00000000000E+00 0. -1.
         -6    2    1    2    0  503 -0.16305454638E+02  0.39738935471E+02  0.14012979464E+03  0.22710115907E+03  0.17347485773E+03 0.  0.
        -24    2    3    3    0    0  0.44361941386E+02 -0.18961695533E+02  0.62788931952E+02  0.11251496417E+03  0.79935220313E+02 0.  0.
          6    2    1    2  501    0  0.16305454638E+02 -0.39738935471E+02  0.36979037913E+03  0.40985352365E+03  0.17143493081E+03 0.  0.
         24    2    5    5    0    0 -0.50281784835E+01 -0.53352296164E+02  0.99738604610E+02  0.13857783654E+03  0.79901673612E+02 0.  0.
          5    1    5    5  501    0  0.21333633122E+02  0.13613360693E+02  0.27005177452E+03  0.27127568710E+03  0.47000000000E+01 0. -1.
        -13    1    6    6    0    0 -0.40858397317E+02 -0.26937051443E+02  0.35652844894E+02  0.60548647556E+02  0.00000000000E+00 0.  1.
         14    1    6    6    0    0  0.35830218834E+02 -0.26415244720E+02  0.64085759717E+02  0.78029188986E+02  0.00000000000E+00 0. -1.
         -5    1    3    3    0  503 -0.60667396025E+02  0.58700631004E+02  0.77340862685E+02  0.11458619490E+03  0.47000000000E+01 0.  1.
         11    1    4    4    0    0 -0.86609170777E+01 -0.28740764350E+02  0.35129292674E+00  0.30019434152E+02  0.00000000000E+00 0. -1.
        -12    1    4    4    0    0  0.53022858464E+02  0.97790688174E+01  0.62437639025E+02  0.82495530023E+02  0.00000000000E+00 0.  1.
</event>
<event>
12    1  0.8196217E-002  0.2189193E+03  0.7818608E-02  0.1134738E+00
         21   -1    0    0  501  502  0.00000000000E+00  0.00000000000E+00  0.88666459022E+03  0.88666459022E+03  0.00000000000E+00 0.  1.
         21   -1    0    0  502  503 -0.00000000000E+00 -0.00000000000E+00 -0.32972310528E+03  0.32972310528E+03  0.00000000000E+00 0.  1.
         -6    2    1    2    0  503 -0.12890798747E+03  0.37027837273E+02 -0.27767824749E+03  0.35359704373E+03  0.17302407417E+03 0.  0.
        -24    2    3    3    0    0 -0.57517399414E+02  0.84486484870E+02 -0.11275113272E+03  0.16766161817E+03  0.70366063665E+02 0.  0.
          6    2    1    2  501    0  0.12890798747E+03 -0.37027837273E+02  0.83461973243E+03  0.86279065177E+03  0.17271155450E+03 0.  0.
         24    2    5    5    0    0  0.61631159627E+02 -0.79971161406E+02  0.64060587771E+03  0.65294840989E+03  0.75973343598E+02 0.  0.
          5    1    5    5  501    0  0.67276827839E+02  0.42943324133E+02  0.19401385472E+03  0.20984224188E+03  0.47000000000E+01 0. -1.
        -11    1    6    6    0    0  0.33519109917E+02  0.62061836529E+01  0.13217054747E+03  0.13649579137E+03  0.00000000000E+00 0.  1.
         12    1    6    6    0    0  0.28112049711E+02 -0.86177345059E+02  0.50843533024E+03  0.51645261852E+03  0.00000000000E+00 0. -1.
         -5    1    3    3    0  503 -0.71390588052E+02 -0.47458647598E+02 -0.16492711476E+03  0.18593542556E+03  0.47000000000E+01 0.  1.
         13    1    4    4    0    0  0.10219288597E+00  0.13567444782E+02  0.83675806944E+01  0.15940589950E+02  0.00000000000E+00 0. -1.
        -14    1    4    4    0    0 -0.57619592300E+02  0.70919040089E+02 -0.12111871342E+03  0.15172102822E+03  0.00000000000E+00 0.  1.
</event>
<event>
12    1  0.8196217E-002  0.2469965E+03  0.7818608E-02  0.1115334E+00
         21   -1    0    0  503  502  0.00000000000E+00  0.00000000000E+00  0.23210252759E+03  0.23210252759E+03  0.00000000000E+00 0. -1.
         21   -1    0    0  501  503 -0.00000000000E+00 -0.00000000000E+00 -0.32843647207E+03  0.32843647207E+03  0.00000000000E+00 0. -1.
          6    2    1    2  501    0 -0.12253705398E+03 -0.12752683639E+03 -0.17420045125E+03  0.30224673337E+03  0.17242061077E+03 0.  0.
         24    2    3    3    0    0 -0.12557904892E+03 -0.43165202501E+02 -0.74211636127E+02  0.17130402775E+03  0.78767828142E+02 0.  0.
         -6    2    1    2    0  502  0.12253705398E+03  0.12752683639E+03  0.77866506763E+02  0.25829226630E+03  0.17138634238E+03 0.  0.
        -24    2    5    5    0    0  0.12047831858E+03  0.15325814105E+03  0.42081151009E+02  0.21391862415E+03  0.77377460812E+02 0.  0.
          5    1    3    3  501    0  0.30419949451E+01 -0.84361633891E+02 -0.99988815120E+02  0.13094270562E+03  0.47000000000E+01 0. -1.
        -13    1    4    4    0    0 -0.11866452067E+02 -0.19950752567E+02  0.12561213075E+02  0.26393735744E+02  0.00000000000E+00 0.  1.
         14    1    4    4    0    0 -0.11371259686E+03 -0.23214449934E+02 -0.86772849202E+02  0.14491029200E+03  0.00000000000E+00 0. -1.
         -5    1    5    5    0  502  0.20587353972E+01 -0.25731304658E+02  0.35785355754E+02  0.44373642146E+02  0.47000000000E+01 0.  1.
         13    1    6    6    0    0  0.10311570802E+02  0.49348890806E+02 -0.14172483987E+02  0.52368891706E+02  0.00000000000E+00 0. -1.
        -14    1    6    6    0    0  0.11016674778E+03  0.10390925024E+03  0.56253634995E+02  0.16154973244E+03  0.00000000000E+00 0.  1.
</event>
<event>
12    1  0.8196217E-002  0.1861751E+03  0.7818608E-02  0.1162866E+00
         21   -1    0    0  503  502  0.00000000000E+00  0.00000000000E+00  0.66506800607E+02  0.66506800607E+02  0.00000000000E+00 0.  1.
         21   -1    0    0  501  503 -0.00000000000E+00 -0.00000000000E+00 -0.55007987316E+03  0.55007987316E+03  0.00000000000E+00 0. -1.
          6    2    1    2  501    0  0.16409580340E+02  0.69167451667E+02 -0.32226854630E+03  0.37025290523E+03  0.16785942689E+03 0.  0.
         24    2    3    3    0    0 -0.42789173729E+02  0.59827394503E+01 -0.12209168915E+03  0.15210235061E+03  0.79762384252E+02 0.  0.
         -6    2    1    2    0  502 -0.16409580340E+02 -0.69167451667E+02 -0.16130452625E+03  0.24633376854E+03  0.17206906938E+03 0.  0.
        -24    2    5    5    0    0 -0.35032417651E+02 -0.10241017882E+03 -0.15915933146E+03  0.20788144950E+03  0.78535910541E+02 0.  0.
          5    1    3    3  501    0  0.59198754069E+02  0.63184712216E+02 -0.20017685715E+03  0.21815055462E+03  0.47000000000E+01 0. -1.
        -11    1    4    4    0    0 -0.52244662723E+02  0.10194590712E+02 -0.12907209539E+03  0.13961747838E+03  0.00000000000E+00 0.  1.
         12    1    4    4    0    0  0.94554889941E+01 -0.42118512618E+01  0.69804062390E+01  0.12484872223E+02  0.00000000000E+00 0. -1.
         -5    1    5    5    0  502  0.18622837311E+02  0.33242727155E+02 -0.21451947897E+01  0.38452319032E+02  0.47000000000E+01 0.  1.
         13    1    6    6    0    0  0.27900324730E+01 -0.42322965137E+02 -0.11895051567E+03  0.12628635254E+03  0.00000000000E+00 0. -1.
        -14    1    6    6    0    0 -0.37822450124E+02 -0.60087213685E+02 -0.40208815790E+02  0.81595096967E+02  0.00000000000E+00 0.  1.
</event>
<event>
12    1  0.8196217E-002  0.2344616E+03  0.7818608E-02  0.1123633E+00
         21   -1    0    0  501  502  0.00000000000E+00  0.00000000000E+00  0.49247550833E+03  0.49247550833E+03  0.00000000000E+00 0. -1.
         21   -1    0    0  502  503 -0.00000000000E+00 -0.00000000000E+00 -0.18207678640E+03  0.18207678640E+03  0.00000000000E+00 0. -1.
         -6    2    1    2    0  503  0.45202675491E+02 -0.15333957749E+03 -0.55104759910E+02  0.24031154266E+03  0.17075360925E+03 0.  0.
        -24    2    3    3    0    0  0.34558161793E+02 -0.11502845017E+03  0.29553742953E+02  0.14666219533E+03  0.78807137491E+02 0.  0.
          6    2    1    2  501    0 -0.45202675491E+02  0.15333957749E+03  0.36550348185E+03  0.43424075207E+03  0.17151072159E+03 0.  0.
         24    2    5    5    0    0  0.39367242416E+02  0.69101846091E+02  0.14475579432E+03  0.18324334580E+03  0.79366484628E+02 0.  0.
          5    1    5    5  501    0 -0.84569917906E+02  0.84237731404E+02  0.22074768752E+03  0.25099740627E+03  0.47000000000E+01 0. -1.
        -13    1    6    6    0    0  0.13628550861E+02  0.41439358007E+02  0.12040522745E+02  0.45254082452E+02  0.00000000000E+00 0.  1.
         14    1    6    6    0    0  0.25738691555E+02  0.27662488084E+02  0.13271527158E+03  0.13798926335E+03  0.00000000000E+00 0. -1.
         -5    1    3    3    0  503  0.10644513697E+02 -0.38311127321E+02 -0.84658502863E+02  0.93649347331E+02  0.47000000000E+01 0.  1.
         13    1    4    4    0    0  0.14454902170E+02 -0.11838881123E+03  0.12194993949E+02  0.11988983568E+03  0.00000000000E+00 0. -1.
        -14    1    4    4    0    0  0.20103259624E+02  0.33603610615E+01  0.17358749004E+02  0.26772359644E+02  0.00000000000E+00 0.  1.
</event>
<event>
12    1  0.8196217E-002  0.1784178E+03  0.7818608E-02  0.1169792E+00
         21   -1    0    0  501  502  0.00000000000E+00  0.00000000000E+00  0.85817739173E+03  0.85817739173E+03  0.00000000000E+00 0. -1.
         21   -1    0    0  502  503 -0.00000000000E+00 -0.00000000000E+00 -0.71481840098E+02  0.71481840098E+02  0.00000000000E+00 0. -1.
         -6    2    1    2    0  503  0.40661953389E+02  0.71708936328E+01  0.70216093286E+02  0.19173738967E+03  0.17357451043E+03 0.  0.
        -24    2    3    3    0    0 -0.37856339095E+02  0.35174924588E+02  0.39082268249E+02  0.10262648649E+03  0.79588908196E+02 0.  0.
          6    2    1    2  501    0 -0.40661953389E+02 -0.71708936328E+01  0.71647945835E+03  0.73792184216E+03  0.17170036324E+03 0.  0.
         24    2    5    5    0    0 -0.89771319943E+02 -0.26019218294E+02  0.53798448580E+03  0.55177798797E+03  0.79345771464E+02 0.  0.
          5    1    5    5  501    0  0.49109366554E+02  0.18848324661E+02  0.17849497255E+03  0.18614385419E+03  0.47000000000E+01 0. -1.
        -13    1    6    6    0    0 -0.74266921155E+02 -0.32605779775E+02  0.24034221077E+03  0.25365939906E+03  0.00000000000E+00 0.  1.
         14    1    6    6    0    0 -0.15504398787E+02  0.65865614806E+01  0.29764227503E+03  0.29811858892E+03  0.00000000000E+00 0. -1.
         -5    1    3    3    0  503  0.78518292484E+02 -0.28004030955E+02  0.31133825036E+02  0.89110903181E+02  0.47000000000E+01 0.  1.
         11    1    4    4    0    0  0.63848497553E+01  0.46115029889E+02  0.32032782520E+02  0.56510719727E+02  0.00000000000E+00 0. -1.
        -12    1    4    4    0    0 -0.44241188850E+02 -0.10940105301E+02  0.70494857295E+01  0.46115766761E+02  0.00000000000E+00 0.  1.
</event>
<event>
12    1  0.8196217E-002  0.2446555E+03  0.7818608E-02  0.1116945E+00
         21   -1    0    0  501  502  0.00000000000E+00  0.00000000000E+00  0.69110529617E+02  0.69110529617E+02  0.00000000000E+00 0.  1.
         21   -1    0    0  502  503 -0.00000000000E+00 -0.00000000000E+00 -0.86213068700E+03  0.86213068700E+03  0.00000000000E+00 0.  1.
         -6    2    1    2    0  503 -0.11662861474E+03  0.12626404410E+03 -0.41097302744E+03  0.47828355641E+03  0.17410194841E+03 0.  0.
        -24    2    3    3    0    0 -0.31170810528E+02  0.69671170429E+01 -0.10447680609E+03  0.13843533028E+03  0.85022217734E+02 0.  0.
          6    2    1    2  501    0  0.11662861474E+03 -0.12626404410E+03 -0.38204712994E+03  0.45295766020E+03  0.17223759704E+03 0.  0.
         24    2    5    5    0    0  0.55062950740E+02  0.55226426414E+01 -0.14512585841E+03  0.17490759153E+03  0.80428369803E+02 0.  0.
          5    1    5    5  501    0  0.61565663998E+02 -0.13178668674E+03 -0.23692127153E+03  0.27805006867E+03  0.47000000000E+01 0. -1.
        -11    1    6    6    0    0  0.50577350955E+02 -0.97415296006E+01 -0.14973298136E+03  0.15834434482E+03  0.00000000000E+00 0.  1.
         12    1    6    6    0    0  0.44855997854E+01  0.15264172242E+02  0.46071229524E+01  0.16563246710E+02  0.00000000000E+00 0. -1.
         -5    1    3    3    0  503 -0.85457804210E+02  0.11929692706E+03 -0.30649622135E+03  0.33984822614E+03  0.47000000000E+01 0.  1.
         13    1    4    4    0    0  0.53974701868E+01  0.12869120180E+02  0.10612464718E+02  0.17532009184E+02  0.00000000000E+00 0. -1.
        -14    1    4    4    0    0 -0.36568280715E+02 -0.59020031370E+01 -0.11508927081E+03  0.12090332109E+03  0.00000000000E+00 0.  1.
</event>
<event>
12    1  0.8196217E-002  0.2115003E+03  0.7818608E-02  0.1140424E+00
         21   -1    0    0  503  502  0.00000000000E+00  0.00000000000E+00  0.79556585411E+02  0.79556585411E+02  0.00000000000E+00 0.  1.
         21   -1    0    0  501  503 -0.00000000000E+00 -0.00000000000E+00 -0.72433971291E+03  0.72433971291E+03  0.00000000000E+00 0.  1.
          6    2    1    2  501    0  0.11300230805E+03 -0.44805253879E+02 -0.51296433743E+03  0.55485566501E+03  0.17307618299E+03 0.  0.
         24    2    3    3    0    0  0.57370019713E+02 -0.96844210528E+02 -0.32627795046E+03  0.35317051039E+03  0.74846430624E+02 0.  0.
         -6    2    1    2    0  502 -0.11300230805E+03  0.44805253879E+02 -0.13181879007E+03  0.24904063331E+03  0.17282364198E+03 0.  0.
        -24    2    5    5    0    0 -0.76488392474E+01 -0.24202927331E+02 -0.36351624211E+02  0.90934491058E+02  0.79393668815E+02 0.  0.
          5    1    3    3  501    0  0.55632288332E+02  0.52038956649E+02 -0.18668638698E+03  0.20168515463E+03  0.47000000000E+01 0. -1.
        -11    1    4    4    0    0  0.57922681314E+02 -0.50243297888E+02 -0.26685133132E+03  0.27764916535E+03  0.00000000000E+00 0.  1.
         12    1    4    4    0    0 -0.55266160055E+00 -0.46600912640E+02 -0.59426619136E+02  0.75521345034E+02  0.00000000000E+00 0. -1.
         -5    1    5    5    0  502 -0.10535346880E+03  0.69008181211E+02 -0.95467165856E+02  0.15810614225E+03  0.47000000000E+01 0.  1.
         13    1    6    6    0    0 -0.72934997761E+01  0.65573744905E+01 -0.54394217924E+02  0.55271378151E+02  0.00000000000E+00 0. -1.
        -14    1    6    6    0    0 -0.35533947134E+00 -0.30760301822E+02  0.18042593712E+02  0.35663112907E+02  0.00000000000E+00 0.  1.
</event>
<event>
12    1  0.8196217E-002  0.2372720E+03  0.7818608E-02  0.1122348E+00
         21   -1    0    0  503  502  0.00000000000E+00  0.00000000000E+00  0.49015470092E+03  0.49015470092E+03  0.00000000000E+00 0. -1.
         21   -1    0    0  501  503 -0.00000000000E+00 -0.00000000000E+00 -0.11281753565E+03  0.11281753565E+03  0.00000000000E+00 0.  1.
          6    2    1    2  501    0  0.32164025981E+02  0.15453353115E+03  0.19256965173E+03  0.30558314337E+03  0.17715205314E+03 0.  0.
         24    2    3    3    0    0  0.54531128792E+02  0.36587200358E+02  0.43223352199E+02  0.11391146728E+03  0.82433591237E+02 0.  0.
         -6    2    1    2    0  502 -0.32164025981E+02 -0.15453353115E+03  0.18476751354E+03  0.29738909320E+03  0.17142374945E+03 0.  0.
        -24    2    5    5    0    0 -0.26258997618E+02 -0.15942471196E+03  0.88196502656E+02  0.20040021160E+03  0.79220249881E+02 0.  0.
          5    1    3    3  501    0 -0.22367102810E+02  0.11794633079E+03  0.14934629953E+03  0.19167167610E+03  0.47000000000E+01 0. -1.
        -13    1    4    4    0    0  0.67239775530E+02  0.52103129741E+02  0.31689421553E+02  0.90775233299E+02  0.00000000000E+00 0.  1.
         14    1    4    4    0    0 -0.12708646738E+02 -0.15515929382E+02  0.11533930646E+02  0.23136233977E+02  0.00000000000E+00 0. -1.
         -5    1    5    5    0  502 -0.59050283638E+01  0.48911808062E+01  0.96571010885E+02  0.96988881595E+02  0.47000000000E+01 0.  1.
         11    1    6    6    0    0  0.11868676702E+02 -0.11364183889E+02  0.34745690624E+02  0.38435311616E+02  0.00000000000E+00 0. -1.
        -12    1    6    6    0    0 -0.38127674320E+02 -0.14806052807E+03  0.53450812033E+02  0.16196489999E+03  0.00000000000E+00 0.  1.
</event>
<event>
12    1  0.8196217E-002  0.1827454E+03  0.7818608E-02  0.1166294E+00
         21   -1    0    0  503  502  0.00000000000E+00  0.00000000000E+00  0.16818412991E+04  0.16818412991E+04  0.00000000000E+00 0.  1.
         21   -1    0    0  501  503 -0.00000000000E+00 -0.00000000000E+00 -0.26798768512E+02  0.26798768512E+02  0.00000000000E+00 0. -1.
          6    2    1    2  501    0  0.46005142461E+02 -0.25607335854E+02  0.36950917235E+03  0.41018256802E+03  0.17011908146E+03 0.  0.
         24    2    3    3    0    0  0.87905996285E+02  0.10240062604E+02  0.20747611529E+03  0.23895897413E+03  0.78884281289E+02 0.  0.
         -6    2    1    2    0  502 -0.46005142461E+02  0.25607335854E+02  0.12855333582E+04  0.12984574996E+04  0.17499615513E+03 0.  0.
        -24    2    5    5    0    0 -0.13952322414E+02 -0.50289938068E+02  0.50799627225E+03  0.51655354798E+03  0.77740659459E+02 0.  0.
          5    1    3    3  501    0 -0.41900853825E+02 -0.35847398458E+02  0.16203305705E+03  0.17122359389E+03  0.47000000000E+01 0. -1.
        -13    1    4    4    0    0  0.11230569107E+01 -0.24546739401E+02  0.34881149573E+02  0.42667297402E+02  0.00000000000E+00 0.  1.
         14    1    4    4    0    0  0.86782939375E+02  0.34786802005E+02  0.17259496572E+03  0.19629167673E+03  0.00000000000E+00 0. -1.
         -5    1    5    5    0  502 -0.32052820046E+02  0.75897273922E+02  0.77753708599E+03  0.78190395162E+03  0.47000000000E+01 0.  1.
         13    1    6    6    0    0  0.27999608539E+02 -0.20668293290E+00  0.13406036557E+03  0.13695328552E+03  0.00000000000E+00 0. -1.
        -14    1    6    6    0    0 -0.41951930953E+02 -0.50083255135E+02  0.37393590668E+03  0.37960026246E+03  0.00000000000E+00 0.  1.
</event>
<event>
12    1  0.8196217E-002  0.2759356E+03  0.7818608E-02  0.1098005E+00
         21   -1    0    0  501  502  0.00000000000E+00  0.00000000000E+00  0.14044565506E+03  0.14044565506E+03  0.00000000000E+00 0.  1.
         21   -1    0    0  502  503 -0.00000000000E+00 -0.00000000000E+00 -0.89563713989E+03  0.89563713989E+03  0.00000000000E+00 0. -1.
         -6    2    1    2    0  503  0.91079653241E+02  0.19534978742E+03 -0.70376783096E+03  0.75592962888E+03  0.17228871481E+03 0.  0.
        -24    2    3    3    0    0  0.79638583926E+02  0.15613570521E+03 -0.68336219382E+03  0.71002622664E+03  0.80204065206E+02 0.  0.
          6    2    1    2  501    0 -0.91079653241E+02 -0.19534978742E+03 -0.51423653874E+02  0.28015316607E+03  0.17141867343E+03 0.  0.
         24    2    5    5    0    0 -0.78898807673E+02 -0.11050747340E+03  0.32038432332E+02  0.16042597166E+03  0.79202952644E+02 0.  0.
          5    1    5    5  501    0 -0.12180845568E+02 -0.84842314021E+02 -0.83462086206E+02  0.11972719441E+03  0.47000000000E+01 0. -1.
        -11    1    6    6    0    0 -0.92267615000E+02 -0.91916097578E+02  0.13447063944E+02  0.13093015428E+03  0.00000000000E+00 0.  1.
         12    1    6    6    0    0  0.13368807326E+02 -0.18591375824E+02  0.18591368388E+02  0.29495817380E+02  0.00000000000E+00 0. -1.
         -5    1    3    3    0  503  0.11441069316E+02  0.39214082213E+02 -0.20405637136E+02  0.45903402247E+02  0.47000000000E+01 0.  1.
         11    1    4    4    0    0  0.65629657078E+02  0.11821863930E+03 -0.62213531779E+03  0.63665944759E+03  0.00000000000E+00 0. -1.
        -12    1    4    4    0    0  0.14008926848E+02  0.37917065913E+02 -0.61226876032E+02  0.73366779045E+02  0.00000000000E+00 0.  1.
</event>
<event>
12    1  0.8196217E-002  0.2400119E+03  0.7818608E-02  0.1119826E+00
         21   -1    0    0  501  502  0.00000000000E+00  0.00000000000E+00  0.39277130757E+03  0.39277130757E+03  0.00000000000E+00 0. -1.
         21   -1    0    0  502  503 -0.00000000000E+00 -0.00000000000E+00 -0.15542595264E+03  0.15542595264E+03  0.00000000000E+00 0. -1.
         -6    2    1    2    0  503  0.84710991458E+02  0.14225296717E+03  0.52987264184E+02  0.24555290713E+03  0.17342641463E+03 0.  0.
        -24    2    3    3    0    0  0.49197340409E+02  0.14396339392E+03  0.90030610598E+02  0.19399280158E+03  0.79886539108E+02 0.  0.
          6    2    1    2  501    0 -0.84710991458E+02 -0.14225296717E+03  0.18435809074E+03  0.30264435308E+03  0.17376374790E+03 0.  0.
         24    2    5    5    0    0 -0.86293266214E+01 -0.11423941889E+03  0.16970825123E+03  0.22012231718E+03  0.80795011462E+02 0.  0.
          5    1    5    5  501    0 -0.76081664836E+02 -0.28013548282E+02  0.14649839513E+02  0.82522035902E+02  0.47000000000E+01 0. -1.
        -13    1    6    6    0    0  0.21604190886E+02 -0.89191710754E+02  0.78284844770E+02  0.12062511866E+03  0.00000000000E+00 0.  1.
         14    1    6    6    0    0 -0.30233517508E+02 -0.25047708135E+02  0.91423406460E+02  0.99497198516E+02  0.00000000000E+00 0. -1.
         -5    1    3    3    0  503  0.35513651048E+02 -0.17104267451E+01 -0.37043346414E+02  0.51560105547E+02  0.47000000000E+01 0.  1.
         13    1    4    4    0    0  0.62277675876E+02  0.60264978496E+02  0.38436228385E+02  0.94803587475E+02  0.00000000000E+00 0. -1.
        -14    1    4    4    0    0 -0.13080335466E+02  0.83698415420E+02  0.51594382213E+02  0.99189214110E+02  0.00000000000E+00 0.  1.
</event>
<event>
12    1  0.8196217E-002  0.2503305E+03  0.7818608E-02  0.1115814E+00
         21   -1    0    0  501  502  0.00000000000E+00  0.00000000000E+00  0.66266503587E+03  0.66266503587E+03  0.00000000000E+00 0.  1.
         21   -1    0    0  502  503 -0.00000000000E+00 -0.00000000000E+00 -0.10159435487E+03  0.10159435487E+03  0.00000000000E+00 0. -1.
         -6    2    1    2    0  503  0.15735477254E+03  0.18151074907E+02  0.15124524394E+03  0.29247304607E+03  0.19384368162E+03 0.  0.
        -24    2    3    3    0    0  0.17901474281E+03  0.34827278889E+02  0.77686749177E+02  0.21385884734E+03  0.80256825804E+02 0.  0.
          6    2    1    2  501    0 -0.15735477254E+03 -0.18151074907E+02  0.40982543706E+03  0.47178634467E+03  0.17185889616E+03 0.  0.
         24    2    5    5    0    0 -0.10131713475E+03  0.20037436289E+02  0.13394680298E+03  0.18765663840E+03  0.81281038756E+02 0.  0.
          5    1    5    5  501    0 -0.56037637789E+02 -0.38188511196E+02  0.27587863409E+03  0.28412970627E+03  0.47000000000E+01 0. -1.
        -13    1    6    6    0    0 -0.43325873394E+02  0.35245965825E+01  0.11731356279E+03  0.12510805770E+03  0.00000000000E+00 0.  1.
         14    1    6    6    0    0 -0.57991261357E+02  0.16512839707E+02  0.16633240187E+02  0.62548580704E+02  0.00000000000E+00 0. -1.
         -5    1    3    3    0  503 -0.21659970271E+02 -0.16676203982E+02  0.73558494760E+02  0.78614198735E+02  0.47000000000E+01 0.  1.
         11    1    4    4    0    0  0.46695881104E+02 -0.25622402881E+02  0.27709413875E+02  0.60040190362E+02  0.00000000000E+00 0. -1.
        -12    1    4    4    0    0  0.13231886171E+03  0.60449681770E+02  0.49977335302E+02  0.15381865698E+03  0.00000000000E+00 0.  1.
</event>
<event>
12    1  0.8196217E-002  0.2040343E+03  0.7818608E-02  0.1146838E+00
         21   -1    0    0  501  502  0.00000000000E+00  0.00000000000E+00  0.26171363076E+03  0.26171363076E+03  0.00000000000E+00 0.  1.
         21   -1    0    0  502  503 -0.00000000000E+00 -0.00000000000E+00 -0.15861088224E+03  0.15861088224E+03  0.00000000000E+00 0.  1.
         -6    2    1    2    0  503  0.10868901951E+03  0.17857784718E+02  0.32483594761E+02  0.20441469072E+03  0.16910936821E+03 0.  0.
        -24    2    3    3    0    0  0.13177971210E+03 -0.18654993025E+02  0.39192734825E+02  0.16044350034E+03  0.80573848433E+02 0.  0.
          6    2    1    2  501    0 -0.10868901951E+03 -0.17857784718E+02  0.70619153761E+02  0.21590982228E+03  0.17174918644E+03 0.  0.
         24    2    5    5    0    0 -0.60060947373E+02 -0.41642245159E+02  0.10611775280E+03  0.15100504209E+03  0.78741039466E+02 0.  0.
          5    1    5    5  501    0 -0.48628072136E+02  0.23784460441E+02 -0.35498599041E+02  0.64904780193E+02  0.47000000000E+01 0. -1.
        -11    1    6    6    0    0 -0.59512289162E+02 -0.10428290430E+02  0.27436782092E+02  0.66356904797E+02  0.00000000000E+00 0.  1.
         12    1    6    6    0    0 -0.54865821015E+00 -0.31213954730E+02  0.78680970709E+02  0.84648137294E+02  0.00000000000E+00 0. -1.
         -5    1    3    3    0  503 -0.23090692593E+02  0.36512777742E+02 -0.67091400644E+01  0.43971190378E+02  0.47000000000E+01 0.  1.
         13    1    4    4    0    0 -0.14604462348E+01 -0.21534290816E+02  0.10990703895E+02  0.24220944578E+02  0.00000000000E+00 0. -1.
        -14    1    4    4    0    0  0.13324015834E+03  0.28792977909E+01  0.28202030931E+02  0.13622255576E+03  0.00000000000E+00 0.  1.
</event>
<event>
12    1  0.8196217E-002  0.1738490E+03  0.7818608E-02  0.1174062E+00
         21   -1    0    0  501  502  0.00000000000E+00  0.00000000000E+00  0.27327155911E+03  0.27327155911E+03  0.00000000000E+00 0.  1.
         21   -1    0    0  502  503 -0.00000000000E+00 -0.00000000000E+00 -0.88390393920E+03  0.88390393920E+03  0.00000000000E+00 0.  1.
         -6    2    1    2    0  503 -0.79051814940E+01 -0.19932678530E+02 -0.84671816746E+03  0.86438134750E+03  0.17252146311E+03 0.  0.
        -24    2    3    3    0    0 -0.42707853705E+02 -0.65784231653E+02 -0.64377042196E+03  0.65337549849E+03  0.79420777661E+02 0.  0.
          6    2    1    2  501    0  0.79051814940E+01  0.19932678530E+02  0.23608578737E+03  0.29279415081E+03  0.17184909712E+03 0.  0.
         24    2    5    5    0    0  0.38685396818E+02 -0.68423181377E+01  0.23516579871E+03  0.25171789877E+03  0.80719083473E+02 0.  0.
          5    1    5    5  501    0 -0.30780215324E+02  0.26774996668E+02  0.91998866440E+00  0.41076252033E+02  0.47000000000E+01 0. -1.
        -13    1    6    6    0    0 -0.32855137268E+01 -0.92951439418E+01  0.18907757560E+03  0.18933442343E+03  0.00000000000E+00 0.  1.
         14    1    6    6    0    0  0.41970910545E+02  0.24528258041E+01  0.46088223103E+02  0.62383475337E+02  0.00000000000E+00 0. -1.
         -5    1    3    3    0  503  0.34802672211E+02  0.45851553123E+02 -0.20294774550E+03  0.21100584902E+03  0.47000000000E+01 0.  1.
         11    1    4    4    0    0 -0.37216912399E+01 -0.77383162901E+01 -0.34586058596E+01  0.92571312610E+01  0.00000000000E+00 0. -1.
        -12    1    4    4    0    0 -0.38986162466E+02 -0.58045915363E+02 -0.64031181610E+03  0.64411836723E+03  0.00000000000E+00 0.  1.
</event>
<event>
12    1  0.8196217E-002  0.2135598E+03  0.7818608E-02  0.1139154E+00
         21   -1    0    0  503  502  0.00000000000E+00  0.00000000000E+00  0.30975401456E+03  0.30975401456E+03  0.00000000000E+00 0. -1.
         21   -1    0    0  501  503 -0.00000000000E+00 -0.00000000000E+00 -0.20563007628E+03  0.20563007628E+03  0.00000000000E+00 0. -1.
          6    2    1    2  501    0 -0.49697176077E+02  0.11602320935E+03 -0.86978413919E+02  0.22880447246E+03  0.16986773594E+03 0.  0.
         24    2    3    3    0    0 -0.15541970664E+02  0.48230775493E+02  0.19900336169E+02  0.97626923446E+02  0.81038461517E+02 0.  0.
         -6    2    1    2    0  502  0.49697176077E+02 -0.11602320935E+03  0.19110235220E+03  0.28657961838E+03  0.17226890097E+03 0.  0.
        -24    2    5    5    0    0 -0.15443549674E+02 -0.94992419037E+02  0.17902158176E+03  0.21691152449E+03  0.75761598571E+02 0.  0.
          5    1    3    3  501    0 -0.34155205413E+02  0.67792433858E+02 -0.10687875009E+03  0.13117754901E+03  0.47000000000E+01 0. -1.
        -11    1    4    4    0    0  0.13338351208E+02 -0.13803830603E+02 -0.11459155699E+02  0.22355527317E+02  0.00000000000E+00 0.  1.
         12    1    4    4    0    0 -0.28880321872E+02  0.62034606096E+02  0.31359491868E+02  0.75271396129E+02  0.00000000000E+00 0. -1.
         -5    1    5    5    0  502  0.65140725751E+02 -0.21030790314E+02  0.12080770433E+02  0.69668093895E+02  0.47000000000E+01 0.  1.
         11    1    6    6    0    0 -0.43971399676E+00 -0.96750629502E+02  0.11106748289E+03  0.14729855197E+03  0.00000000000E+00 0. -1.
        -12    1    6    6    0    0 -0.15003835677E+02  0.17582104649E+01  0.67954098871E+02  0.69612972515E+02  0.00000000000E+00 0.  1.
</event>
<event>
12    1  0.8196217E-002  0.2459733E+03  0.7818608E-02  0.1116559E+00
         21   -1    0    0  503  502  0.00000000000E+00  0.00000000000E+00  0.55590966770E+03  0.55590966770E+03  0.00000000000E+00 0.  1.
         21   -1    0    0  501  503 -0.00000000000E+00 -0.00000000000E+00 -0.11601912289E+03  0.11601912289E+03  0.00000000000E+00 0.  1.
          6    2    1    2  501    0  0.16315241531E+03 -0.38726580142E+02  0.12446712641E+03  0.27193528044E+03  0.17417885222E+03 0.  0.
         24    2    3    3    0    0  0.76499880515E+02  0.33022725893E+01 -0.31685049538E+01  0.11197268906E+03  0.81637656436E+02 0.  0.
         -6    2    1    2    0  502 -0.16315241531E+03  0.38726580142E+02  0.31542341839E+03  0.39999351015E+03  0.17995670774E+03 0.  0.
        -24    2    5    5    0    0 -0.13106035854E+03 -0.27116267460E+02  0.27480726855E+03  0.31610702544E+03  0.80576095372E+02 0.  0.
          5    1    3    3  501    0  0.86652534792E+02 -0.42028852731E+02  0.12763563136E+03  0.15996259138E+03  0.47000000000E+01 0. -1.
        -13    1    4    4    0    0  0.43523766541E+02  0.27428415071E+02  0.29815897317E+02  0.59461112839E+02  0.00000000000E+00 0.  1.
         14    1    4    4    0    0  0.32976113974E+02 -0.24126142482E+02 -0.32984402271E+02  0.52511576220E+02  0.00000000000E+00 0. -1.
         -5    1    5    5    0  502 -0.32092056772E+02  0.65842847601E+02  0.40616149843E+02  0.83886484705E+02  0.47000000000E+01 0.  1.
         11    1    6    6    0    0  0.59580284868E+01 -0.17054219134E+02  0.43068057396E+02  0.46703341011E+02  0.00000000000E+00 0. -1.
        -12    1    6    6    0    0 -0.13701838702E+03 -0.10062048326E+02  0.23173921115E+03  0.26940368443E+03  0.00000000000E+00 0.  1.
</event>
<event>
12    1  0.8196217E-002  0.1806942E+03  0.7818608E-02  0.1167700E+00
         21   -1    0    0  501  502  0.00000000000E+00  0.00000000000E+00  0.86633787378E+01  0.86633787378E+01  0.00000000000E+00 0.  1.
         21   -1    0    0  502  503 -0.00000000000E+00 -0.00000000000E+00 -0.39294259441E+04  0.39294259441E+04  0.00000000000E+00 0.  1.
         -6    2    1    2    0  503 -0.50301733677E+02  0.85814941733E+01 -0.24268843187E+04  0.24336018333E+04  0.17333920546E+03 0.  0.
        -24    2    3    3    0    0 -0.15096120595E+02  0.42144842360E+02 -0.68862869763E+03  0.69465944559E+03  0.79612697179E+02 0.  0.
          6    2    1    2  501    0  0.50301733677E+02 -0.85814941733E+01 -0.14938782467E+04  0.15044874896E+04  0.17089904601E+03 0.  0.
         24    2    5    5    0    0  0.91928729656E+02  0.19730669722E+02 -0.94164624135E+03  0.94994563982E+03  0.82818380196E+02 0.  0.
          5    1    5    5  501    0 -0.41626995979E+02 -0.28312163895E+02 -0.55223200535E+03  0.55454184977E+03  0.47000000000E+01 0. -1.
        -13    1    6    6    0    0  0.68381399077E+02  0.51390099035E+02 -0.67414334945E+03  0.67954853662E+03  0.00000000000E+00 0.  1.
         14    1    6    6    0    0  0.23547330579E+02 -0.31659429314E+02 -0.26750289190E+03  0.27039710320E+03  0.00000000000E+00 0. -1.
         -5    1    3    3    0  503 -0.35205613082E+02 -0.33563348187E+02 -0.17382556210E+04  0.17389423877E+04  0.47000000000E+01 0.  1.
         13    1    4    4    0    0  0.32129054724E+02  0.16099896549E+02 -0.33837347734E+03  0.34027649492E+03  0.00000000000E+00 0. -1.
        -14    1    4    4    0    0 -0.47225175319E+02  0.26044945811E+02 -0.35025522029E+03  0.35438295067E+03  0.00000000000E+00 0.  1.
</event>
<event>
12    1  0.8196217E-002  0.1769121E+03  0.7818608E-02  0.1172988E+00
         21   -1    0    0  503  502  0.00000000000E+00  0.00000000000E+00  0.12248255396E+04  0.12248255396E+04  0.00000000000E+00 0. -1.
         21   -1    0    0  501  503 -0.00000000000E+00 -0.00000000000E+00 -0.78927524256E+02  0.78927524256E+02  0.00000000000E+00 0. -1.
          6    2    1    2  501    0  0.33643262759E+02  0.49744811026E+01  0.35223870826E+02  0.18038460397E+03  0.17361241224E+03 0.  0.
         24    2    3    3    0    0  0.13319112726E+01 -0.60565786627E+02  0.38874070813E+02  0.10707045739E+03  0.79264752365E+02 0.  0.
         -6    2    1    2    0  502 -0.33643262759E+02 -0.49744811026E+01  0.11106741446E+04  0.11233684599E+04  0.16493340100E+03 0.  0.
        -24    2    5    5    0    0 -0.40945581866E+01 -0.22548319516E+01  0.10690092064E+04  0.10720013547E+04  0.79902260909E+02 0.  0.
          5    1    3    3  501    0  0.32311351486E+02  0.65540267730E+02 -0.36501999878E+01  0.73314146581E+02  0.47000000000E+01 0. -1.
        -11    1    4    4    0    0  0.40151089511E+02 -0.34783152023E+02  0.19181826924E+02  0.56479377986E+02  0.00000000000E+00 0.  1.
         12    1    4    4    0    0 -0.38819178238E+02 -0.25782634604E+02  0.19692243889E+02  0.50591079407E+02  0.00000000000E+00 0. -1.
         -5    1    5    5    0  502 -0.29548704572E+02 -0.27196491510E+01  0.41664938139E+02  0.51367105267E+02  0.47000000000E+01 0.  1.
         11    1    6    6    0    0  0.17602784909E+01 -0.28181258585E+02  0.15159635278E+03  0.15420355408E+03  0.00000000000E+00 0. -1.
        -12    1    6    6    0    0 -0.58548366776E+01  0.25926426633E+02  0.91741285364E+03  0.91779780057E+03  0.00000000000E+00 0.  1.
</event>
<event>
12    1  0.8196217E-002  0.2420767E+03  0.7818608E-02  0.1118488E+00
         21   -1    0    0  503  502  0.00000000000E+00  0.00000000000E+00  0.18504285333E+03  0.18504285333E+03  0.00000000000E+00 0.  1.
         21   -1    0    0  501  503 -0.00000000000E+00 -0.00000000000E+00 -0.42400099768E+03  0.42400099768E+03  0.00000000000E+00 0. -1.
          6    2    1    2  501    0 -0.12596130601E+03 -0.11395408094E+03 -0.27315860587E+03  0.36498870754E+03  0.17247999737E+03 0.  0.
         24    2    3    3    0    0 -0.18043242154E+02 -0.60727244980E+02 -0.49578231904E+02  0.11104052740E+03  0.76541758376E+02 0.  0.
         -6    2    1    2    0  502  0.12596130601E+03  0.11395408094E+03  0.34200461516E+02  0.24405514347E+03  0.17187628781E+03 0.  0.
        -24    2    5    5    0    0  0.20835557227E+02  0.84795831852E+02 -0.25478190024E+02  0.11961536688E+03  0.77680398320E+02 0.  0.
          5    1    3    3  501    0 -0.10791806386E+03 -0.53226835964E+02 -0.22358037397E+03  0.25394818014E+03  0.47000000000E+01 0. -1.
        -13    1    4    4    0    0 -0.27118382503E+02  0.57514715071E+01 -0.18014232000E+00  0.27722167038E+02  0.00000000000E+00 0.  1.
         14    1    4    4    0    0  0.90751403481E+01 -0.66478716487E+02 -0.49398089584E+02  0.83318360357E+02  0.00000000000E+00 0. -1.
         -5    1    5    5    0  502  0.10512574879E+03  0.29158249091E+02  0.59678651540E+02  0.12443977659E+03  0.47000000000E+01 0.  1.
         13    1    6    6    0    0  0.22075518730E+02  0.11932498306E+00 -0.27050463259E+02  0.34915187644E+02  0.00000000000E+00 0. -1.
        -14    1    6    6    0    0 -0.12399615026E+01  0.84676506869E+02  0.15722732349E+01  0.84700179240E+02  0.00000000000E+00 0.  1.
</event>
<event>
12    1  0.8196217E-002  0.6711089E+03  0.7818608E-02  0.9768021E-01
         21   -1    0    0  503  502  0.00000000000E+00  0.00000000000E+00  0.17274646221E+04  0.17274646221E+04  0.00000000000E+00 0. -1.
         21   -1    0    0  501  503 -0.00000000000E+00 -0.00000000000E+00 -0.26278539990E+03  0.26278539990E+03  0.00000000000E+00 0.  1.
          6    2    1    2  501    0 -0.50291188230E+03  0.40968064101E+03  0.64288759395E+03  0.92924640105E+03  0.17156872219E+03 0.  0.
         24    2    3    3    0    0 -0.13725964139E+03  0.11730712288E+03  0.13595400735E+03  0.23918293541E+03  0.78254803331E+02 0.  0.
         -6    2    1    2    0  502  0.50291188230E+03 -0.40968064101E+03  0.82179162826E+03  0.10610036210E+04  0.17212964421E+03 0.  0.
        -24    2    5    5    0    0  0.45778938183E+03 -0.38286593703E+03  0.80639336886E+03  0.10061013005E+04  0.76237246016E+02 0.  0.
          5    1    3    3  501    0 -0.36565224091E+03  0.29237351813E+03  0.50693358660E+03  0.69006346564E+03  0.47000000000E+01 0. -1.
        -13    1    4    4    0    0 -0.12590547720E+03  0.67033744552E+02  0.11623174107E+03  0.18399872208E+03  0.00000000000E+00 0.  1.
         14    1    4    4    0    0 -0.11354164191E+02  0.50273378331E+02  0.19722266282E+02  0.55184213328E+02  0.00000000000E+00 0. -1.
         -5    1    5    5    0  502  0.45122500471E+02 -0.26814703983E+02  0.15398259407E+02  0.54902320454E+02  0.47000000000E+01 0.  1.
         11    1    6    6    0    0  0.26187080087E+03 -0.22722785881E+03  0.52938878375E+03  0.63282011704E+03  0.00000000000E+00 0. -1.
        -12    1    6    6    0    0  0.19591858096E+03 -0.15563807821E+03  0.27700458510E+03  0.37328118346E+03  0.00000000000E+00 0.  1.
</event>
<event>
12    1  0.8196217E-002  0.2149602E+03  0.7818608E-02  0.1137902E+00
         21   -1    0    0  501  502  0.00000000000E+00  0.00000000000E+00  0.63524075843E+02  0.63524075843E+02  0.00000000000E+00 0.  1.
         21   -1    0    0  502  503 -0.00000000000E+00 -0.00000000000E+00 -0.73924633162E+03  0.73924633162E+03  0.00000000000E+00 0.  1.
         -6    2    1    2    0  503  0.54491796140E+02  0.11194462899E+03 -0.39666895861E+03  0.45116974069E+03  0.17523389050E+03 0.  0.
        -24    2    3    3    0    0  0.59659288618E+02  0.24273640967E+02 -0.10431342356E+03  0.14587192871E+03  0.79049913901E+02 0.  0.
          6    2    1    2  501    0 -0.54491796140E+02 -0.11194462899E+03 -0.27905329716E+03  0.35160066677E+03  0.17392909593E+03 0.  0.
         24    2    5    5    0    0 -0.10242090340E+03 -0.83913094150E+02 -0.18178488306E+03  0.23950160054E+03  0.82363973502E+02 0.  0.
          5    1    5    5  501    0  0.47929107256E+02 -0.28031534841E+02 -0.97268414099E+02  0.11209906623E+03  0.47000000000E+01 0. -1.
        -11    1    6    6    0    0 -0.46967998795E+02 -0.87814022248E+02 -0.10509856654E+03  0.14478606322E+03  0.00000000000E+00 0.  1.
         12    1    6    6    0    0 -0.55452904601E+02  0.39009280978E+01 -0.76686316526E+02  0.94715537327E+02  0.00000000000E+00 0. -1.
         -5    1    3    3    0  503 -0.51674924781E+01  0.87670988024E+02 -0.29235553506E+03  0.30529781198E+03  0.47000000000E+01 0.  1.
         13    1    4    4    0    0 -0.68562595853E+01 -0.80883698031E+01 -0.57194248858E+02  0.58168824330E+02  0.00000000000E+00 0. -1.
        -14    1    4    4    0    0  0.66515548203E+02  0.32362010770E+02 -0.47119174700E+02  0.87703104382E+02  0.00000000000E+00 0.  1.
</event>
<event>
12    1  0.8196217E-002  0.2370321E+03  0.7818608E-02  0.1123608E+00
         21   -1    0    0  501  502  0.00000000000E+00  0.00000000000E+00  0.13038889183E+04  0.13038889183E+04  0.00000000000E+00 0. -1.
         21   -1    0    0  502  503 -0.00000000000E+00 -0.00000000000E+00 -0.57173372081E+02  0.57173372081E+02  0.00000000000E+00 0. -1.
         -6    2    1    2    0  503 -0.89533997274E+02  0.13261687219E+03  0.27390691275E+03  0.36222812839E+03  0.17487323606E+03 0.  0.
        -24    2    3    3    0    0 -0.40662432852E+01  0.12264668752E+03  0.20932397827E+03  0.25453789216E+03  0.76904267579E+02 0.  0.
          6    2    1    2  501    0  0.89533997274E+02 -0.13261687219E+03  0.97280863342E+03  0.99883416194E+03  0.16034174238E+03 0.  0.
         24    2    5    5    0    0  0.42954341146E+02 -0.68374012612E+02  0.29088443862E+03  0.31229246122E+03  0.79954635149E+02 0.  0.
          5    1    5    5  501    0  0.46579656127E+02 -0.64242859575E+02  0.68192419480E+03  0.68654170072E+03  0.47000000000E+01 0. -1.
        -11    1    6    6    0    0  0.81483853056E+01 -0.77254029091E+02  0.19547776604E+03  0.21034766034E+03  0.00000000000E+00 0.  1.
         12    1    6    6    0    0  0.34805955841E+02  0.88800164796E+01  0.95406672577E+02  0.10194480088E+03  0.00000000000E+00 0. -1.
         -5    1    3    3    0  503 -0.85467753989E+02  0.99701846689E+01  0.64582934485E+02  0.10769023624E+03  0.47000000000E+01 0.  1.
         13    1    4    4    0    0 -0.18652650687E+02  0.71600087118E+02  0.57519018170E+02  0.93717294584E+02  0.00000000000E+00 0. -1.
        -14    1    4    4    0    0  0.14586407401E+02  0.51046600401E+02  0.15180496010E+03  0.16082059757E+03  0.00000000000E+00 0.  1.
</event>
<event>
12    1  0.8196217E-002  0.1984772E+03  0.7818608E-02  0.1151389E+00
         21   -1    0    0  501  502  0.00000000000E+00  0.00000000000E+00  0.54442220960E+03  0.54442220960E+03  0.00000000000E+00 0.  1.
         21   -1    0    0  502  503 -0.00000000000E+00 -0.00000000000E+00 -0.86437288774E+02  0.86437288774E+02  0.00000000000E+00 0. -1.
         -6    2    1    2    0  503  0.96213636536E+02 -0.15890187847E+02  0.35821899936E+03  0.40871895261E+03  0.17094083421E+03 0.  0.
        -24    2    3    3    0    0  0.44654206921E+02 -0.65584042661E+02  0.14819759323E+03  0.18677541245E+03  0.81408004576E+02 0.  0.
          6    2    1    2  501    0 -0.96213636536E+02  0.15890187847E+02  0.99765921465E+02  0.22214054576E+03  0.17286879724E+03 0.  0.
         24    2    5    5    0    0  0.82700755285E+00  0.49810651863E+02  0.60418895149E+02  0.11196902964E+03  0.80030217586E+02 0.  0.
          5    1    5    5  501    0 -0.97040644089E+02 -0.33920464015E+02  0.39347026317E+02  0.11017151612E+03  0.47000000000E+01 0. -1.
        -13    1    6    6    0    0 -0.17109037106E+02  0.54141433217E+02  0.70832804743E+02  0.90781606998E+02  0.00000000000E+00 0.  1.
         14    1    6    6    0    0  0.17936044659E+02 -0.43307813548E+01 -0.10413909594E+02  0.21187422641E+02  0.00000000000E+00 0. -1.
         -5    1    3    3    0  503  0.51559429615E+02  0.49693854814E+02  0.21002140613E+03  0.22194354016E+03  0.47000000000E+01 0.  1.
         11    1    4    4    0    0  0.79972692525E+01 -0.13274424365E+02 -0.84172859810E+01  0.17635684308E+02  0.00000000000E+00 0. -1.
        -12    1    4    4    0    0  0.36656937668E+02 -0.52309618296E+02  0.15661487921E+03  0.16913972814E+03  0.00000000000E+00 0.  1.
</event>
<event>
12    1  0.8196217E-002  0.2528173E+03  0.7818608E-02  0.1111585E+00
         21   -1    0    0  501  502  0.00000000000E+00  0.00000000000E+00  0.71078623406E+02  0.71078623406E+02  0.00000000000E+00 0.  1.
         21   -1    0    0  502  503 -0.00000000000E+00 -0.00000000000E+00 -0.10634738518E+04  0.10634738518E+04  0.00000000000E+00 0.  1.
         -6    2    1    2    0  503 -0.15284488444E+03 -0.10650781890E+03 -0.27227456753E+03  0.37134191504E+03  0.17045792314E+03 0.  0.
        -24    2    3    3    0    0 -0.86903763342E+02 -0.13351176858E+03 -0.16530350562E+03  0.24272487560E+03  0.78819159045E+02 0.  0.
          6    2    1    2  501    0  0.15284488444E+03  0.10650781890E+03 -0.72012066084E+03  0.76321056013E+03  0.17091260559E+03 0.  0.
         24    2    5    5    0    0  0.16049344558E+03  0.10705659606E+03 -0.48540571210E+03  0.52832335570E+03  0.79294400865E+02 0.  0.
          5    1    5    5  501    0 -0.76485611433E+01 -0.54877716208E+00 -0.23471494874E+03  0.23488720443E+03  0.47000000000E+01 0. -1.
        -11    1    6    6    0    0  0.13556297922E+03  0.57129614242E+02 -0.40104940672E+03  0.42717881594E+03  0.00000000000E+00 0.  1.
         12    1    6    6    0    0  0.24930466362E+02  0.49926981817E+02 -0.84356305375E+02  0.10114453976E+03  0.00000000000E+00 0. -1.
         -5    1    3    3    0  503 -0.65941121094E+02  0.27003949684E+02 -0.10697106191E+03  0.12861703944E+03  0.47000000000E+01 0.  1.
         11    1    4    4    0    0 -0.18977413876E+02 -0.79511189827E+02 -0.41876935123E+02  0.91846879318E+02  0.00000000000E+00 0. -1.
        -12    1    4    4    0    0 -0.67926349466E+02 -0.54000578754E+02 -0.12342657050E+03  0.15087799628E+03  0.00000000000E+00 0.  1.
</event>
<event>
12    1  0.8196217E-002  0.2067455E+03  0.7818608E-02  0.1144382E+00
         21   -1    0    0  503  502  0.00000000000E+00  0.00000000000E+00  0.59989116394E+02  0.59989116394E+02  0.00000000000E+00 0. -1.
         21   -1    0    0  501  503 -0.00000000000E+00 -0.00000000000E+00 -0.14709420230E+04  0.14709420230E+04  0.00000000000E+00 0.  1.
          6    2    1    2  501    0  0.11304724044E+03 -0.77895065729E+01 -0.12572977083E+04  0.12741825739E+04  0.17292584892E+03 0.  0.
         24    2    3    3    0    0  0.13410765548E+03 -0.39290061157E+00 -0.12223407832E+04  0.12324413775E+04  0.82521155085E+02 0.  0.
         -6    2    1    2    0  502 -0.11304724044E+03  0.77895065729E+01 -0.15365519833E+03  0.25674856557E+03  0.17166697691E+03 0.  0.
        -24    2    5    5    0    0 -0.12253039477E+03 -0.29489546774E+02 -0.67541934151E+02  0.16231741445E+03  0.76822517214E+02 0.  0.
          5    1    3    3  501    0 -0.21060415039E+02 -0.73966059613E+01 -0.34956925089E+02  0.41741196354E+02  0.47000000000E+01 0. -1.
        -11    1    4    4    0    0  0.58307327390E+02  0.31272594706E+01 -0.23338376535E+03  0.24057744306E+03  0.00000000000E+00 0.  1.
         12    1    4    4    0    0  0.75800328093E+02 -0.35201600821E+01 -0.98895701786E+03  0.99186393444E+03  0.00000000000E+00 0. -1.
         -5    1    5    5    0  502  0.94831543313E+01  0.37279053347E+02 -0.86113264181E+02  0.94431151123E+02  0.47000000000E+01 0.  1.
         11    1    6    6    0    0 -0.88347860139E+02 -0.17975843650E+02 -0.52185329468E+01  0.90308960974E+02  0.00000000000E+00 0. -1.
        -12    1    6    6    0    0 -0.34182534635E+02 -0.11513703124E+02 -0.62323401205E+02  0.72008453472E+02  0.00000000000E+00 0.  1.
</event>
<event>
12    1  0.8196217E-002  0.1830511E+03  0.7818608E-02  0.1165163E+00
         21   -1    0    0  501  502  0.00000000000E+00  0.00000000000E+00  0.92230848953E+03  0.92230848953E+03  0.00000000000E+00 0.  1.
         21   -1    0    0  502  503 -0.00000000000E+00 -0.00000000000E+00 -0.72175137241E+02  0.72175137241E+02  0.00000000000E+00 0.  1.
         -6    2    1    2    0  503 -0.22913121563E+02 -0.53671525684E+02  0.74194095489E+02  0.19751572217E+03  0.17349943196E+03 0.  0.
        -24    2    3    3    0    0  0.30184482716E+02 -0.85179054117E+02  0.55150398296E+02  0.13273275889E+03  0.80061505069E+02 0.  0.
          6    2    1    2  501    0  0.22913121563E+02  0.53671525684E+02  0.77593925680E+03  0.79696790460E+03  0.17225117391E+03 0.  0.
         24    2    5    5    0    0  0.73871131329E+02  0.67165432283E+02  0.49884123170E+03  0.51486116985E+03  0.79191605898E+02 0.  0.
          5    1    5    5  501    0 -0.50958009765E+02 -0.13493906599E+02  0.27709802511E+03  0.28210673475E+03  0.47000000000E+01 0. -1.
        -11    1    6    6    0    0  0.10801071182E+02  0.58891721017E+02  0.17876690513E+03  0.18852719781E+03  0.00000000000E+00 0.  1.
         12    1    6    6    0    0  0.63070060146E+02  0.82737112661E+01  0.32007432656E+03  0.32633397204E+03  0.00000000000E+00 0. -1.
         -5    1    3    3    0  503 -0.53097604279E+02  0.31507528433E+02  0.19043697192E+02  0.64782963277E+02  0.47000000000E+01 0.  1.
         13    1    4    4    0    0 -0.21337076771E+02 -0.58614019336E+00  0.60681693287E+01  0.22190923470E+02  0.00000000000E+00 0. -1.
        -14    1    4    4    0    0  0.51521559487E+02 -0.84592913924E+02  0.49082228968E+02  0.11054183542E+03  0.00000000000E+00 0.  1.
</event>
<event>
12    1  0.8196217E-002  0.2028218E+03  0.7818608E-02  0.1147948E+00
         21   -1    0    0  501  502  0.00000000000E+00  0.00000000000E+00  0.87113473419E+03  0.87113473419E+03  0.00000000000E+00 0.  1.
         21   -1    0    0  502  503 -0.00000000000E+00 -0.00000000000E+00 -0.62848400683E+02  0.62848400683E+02  0.00000000000E+00 0.  1.
         -6    2    1    2    0  503  0.75419869608E+02 -0.77115940801E+02  0.16865259260E+03  0.26378094683E+03  0.17176048981E+03 0.  0.
        -24    2    3    3    0    0  0.95220195981E+02 -0.10600060812E+03  0.15720594292E+03  0.22663942398E+03  0.79678763577E+02 0.  0.
          6    2    1    2  501    0 -0.75419869608E+02  0.77115940801E+02  0.63963374090E+03  0.67020218805E+03  0.16853671796E+03 0.  0.
         24    2    5    5    0    0 -0.38289094640E+02  0.10711877226E+03  0.56218353605E+03  0.57910065910E+03  0.79791973405E+02 0.  0.
          5    1    5    5  501    0 -0.37130774968E+02 -0.30002831458E+02  0.77450204850E+02  0.91101528947E+02  0.47000000000E+01 0. -1.
        -11    1    6    6    0    0 -0.55490556288E+02  0.57911468545E+02  0.42165988595E+03  0.42922022255E+03  0.00000000000E+00 0.  1.
         12    1    6    6    0    0  0.17201461648E+02  0.49207303714E+02  0.14052365010E+03  0.14988043655E+03  0.00000000000E+00 0. -1.
         -5    1    3    3    0  503 -0.19800326373E+02  0.28884667323E+02  0.11446649683E+02  0.37141522852E+02  0.47000000000E+01 0.  1.
         11    1    4    4    0    0  0.12637471122E+02 -0.22941047817E+02  0.85232226571E+02  0.89165743409E+02  0.00000000000E+00 0. -1.
        -12    1    4    4    0    0  0.82582724860E+02 -0.83059560306E+02  0.71973716349E+02  0.13747368057E+03  0.00000000000E+00 0.  1.
</event>
<event>
12    1  0.8196217E-002  0.4470402E+03  0.7818608E-02  0.1028658E+00
         21   -1    0    0  503  502  0.00000000000E+00  0.00000000000E+00  0.23021399037E+04  0.23021399037E+04  0.00000000000E+00 0. -1.
         21   -1    0    0  501  503 -0.00000000000E+00 -0.00000000000E+00 -0.92520111959E+02  0.92520111959E+02  0.00000000000E+00 0.  1.
          6    2    1    2  501    0 -0.41172559458E+03 -0.16883758191E+02  0.80478678703E+03  0.92061211612E+03  0.17332590472E+03 0.  0.
         24    2    3    3    0    0 -0.39178660008E+03  0.83577044762E+01  0.78884376945E+03  0.88440486894E+03  0.79566879862E+02 0.  0.
         -6    2    1    2    0  502  0.41172559458E+03  0.16883758191E+02  0.14048330047E+04  0.14740478995E+04  0.17163453172E+03 0.  0.
        -24    2    5    5    0    0  0.34373956312E+03  0.25106987170E+02  0.13108259517E+04  0.13576471350E+04  0.78446283959E+02 0.  0.
          5    1    3    3  501    0 -0.19938994499E+02 -0.25241462667E+02  0.15943017584E+02  0.36207247188E+02  0.47000000000E+01 0. -1.
        -13    1    4    4    0    0 -0.84208292298E+02 -0.27023920928E+02  0.21244026504E+03  0.23011343942E+03  0.00000000000E+00 0.  1.
         14    1    4    4    0    0 -0.30757830779E+03  0.35381625404E+02  0.57640350441E+03  0.65429142951E+03  0.00000000000E+00 0. -1.
         -5    1    5    5    0  502  0.67986031462E+02 -0.82232289787E+01  0.94007053012E+02  0.11640076454E+03  0.47000000000E+01 0.  1.
         13    1    6    6    0    0  0.10071148337E+03 -0.28347009767E+02  0.39217418158E+03  0.40589031097E+03  0.00000000000E+00 0. -1.
        -14    1    6    6    0    0  0.24302807975E+03  0.53453996936E+02  0.91865177010E+03  0.95175682401E+03  0.00000000000E+00 0.  1.
</event>
<event>
12    1  0.8196217E-002  0.2019113E+03  0.7818608E-02  0.1148851E+00
         21   -1    0    0  503  502  0.00000000000E+00  0.00000000000E+00  0.74706216814E+02  0.74706216814E+02  0.00000000000E+00 0. -1.
         21   -1    0    0  501  503 -0.00000000000E+00 -0.00000000000E+00 -0.58882808419E+03  0.58882808419E+03  0.00000000000E+00 0.  1.
          6    2    1    2  501    0 -0.90436485630E+02 -0.42350920179E+02 -0.15623687693E+03  0.25262090292E+03  0.17156631518E+03 0.  0.
         24    2    3    3    0    0 -0.71230996479E+02 -0.63124004434E+02 -0.35291579519E+02  0.12832196162E+03  0.78501818153E+02 0.  0.
         -6    2    1    2    0  502  0.90436485630E+02  0.42350920179E+02 -0.35788499045E+03  0.41091339809E+03  0.17548730998E+03 0.  0.
        -24    2    5    5    0    0  0.35391765686E+02  0.46138226713E+02 -0.78313709163E+02  0.12591084335E+03  0.79619032830E+02 0.  0.
          5    1    3    3  501    0 -0.19205489151E+02  0.20773084255E+02 -0.12094529741E+03  0.12429894130E+03  0.47000000000E+01 0. -1.
        -11    1    4    4    0    0 -0.12080626518E+02 -0.42353759982E+02 -0.47148504316E+02  0.64519485281E+02  0.00000000000E+00 0.  1.
         12    1    4    4    0    0 -0.59150369960E+02 -0.20770244452E+02  0.11856924798E+02  0.63802476337E+02  0.00000000000E+00 0. -1.
         -5    1    5    5    0  502  0.55044719943E+02 -0.37873065335E+01 -0.27957128128E+03  0.28500255473E+03  0.47000000000E+01 0.  1.
         11    1    6    6    0    0 -0.19550699508E+02  0.18357207753E+02 -0.52891341717E+02  0.59301863009E+02  0.00000000000E+00 0. -1.
        -12    1    6    6    0    0  0.54942465194E+02  0.27781018960E+02 -0.25422367446E+02  0.66608980345E+02  0.00000000000E+00 0.  1.
</event>
<event>
12    1  0.8196217E-002  0.2092635E+03  0.7818608E-02  0.1142422E+00
         21   -1    0    0  501  502  0.00000000000E+00  0.00000000000E+00  0.68444337075E+03  0.68444337075E+03  0.00000000000E+00 0. -1.
         21   -1    0    0  502  503 -0.00000000000E+00 -0.00000000000E+00 -0.64875686577E+02  0.64875686577E+02  0.00000000000E+00 0.  1.
         -6    2    1    2    0  503 -0.89086822588E+02 -0.78855666707E+02  0.25554023015E+03  0.32942954006E+03  0.17049438262E+03 0.  0.
        -24    2    3    3    0    0  0.73606129218E+01 -0.37037035784E+02  0.17677519331E+03  0.19798781633E+03  0.80769956059E+02 0.  0.
          6    2    1    2  501    0  0.89086822588E+02  0.78855666707E+02  0.36402745402E+03  0.41988951727E+03  0.17215266858E+03 0.  0.
         24    2    5    5    0    0  0.11615262679E+02  0.73287197395E+02  0.12810245764E+03  0.17146338265E+03  0.86507365621E+02 0.  0.
          5    1    5    5  501    0  0.77471559909E+02  0.55684693118E+01  0.23592499638E+03  0.24842613462E+03  0.47000000000E+01 0. -1.
        -11    1    6    6    0    0  0.48179858858E+02  0.30230306644E+02  0.55448102016E+02  0.79433382507E+02  0.00000000000E+00 0.  1.
         12    1    6    6    0    0 -0.36564596179E+02  0.43056890751E+02  0.72654355628E+02  0.92030000145E+02  0.00000000000E+00 0. -1.
         -5    1    3    3    0  503 -0.96447435510E+02 -0.41818630923E+02  0.78765036842E+02  0.13144172373E+03  0.47000000000E+01 0.  1.
         13    1    4    4    0    0 -0.36775714284E+02 -0.14001030419E+02  0.75759819112E+02  0.85369972506E+02  0.00000000000E+00 0. -1.
        -14    1    4    4    0    0  0.44136327205E+02 -0.23036005366E+02  0.10101537420E+03  0.11261784382E+03  0.00000000000E+00 0.  1.
</event>
<event>
12    1  0.8196217E-002  0.3189701E+03  0.7818608E-02  0.1076167E+00
         21   -1    0    0  503  502  0.00000000000E+00  0.00000000000E+00  0.12303748692E+04  0.12303748692E+04  0.00000000000E+00 0.  1.
         21   -1    0    0  501  503 -0.00000000000E+00 -0.00000000000E+00 -0.20143575345E+03  0.20143575345E+03  0.00000000000E+00 0. -1.
          6    2    1    2  501    0  0.21180768548E+03 -0.16489366263E+03 -0.35533562499E+02  0.32057527646E+03  0.17162009850E+03 0.  0.
         24    2    3    3    0    0  0.71972270175E+02 -0.85838070726E+01 -0.24176678152E+02  0.11048533586E+03  0.79804813488E+02 0.  0.
         -6    2    1    2    0  502 -0.21180768548E+03  0.16489366263E+03  0.10644726783E+04  0.11112353462E+04  0.17230640225E+03 0.  0.
        -24    2    5    5    0    0 -0.76261183105E+02  0.10791419596E+03  0.72063622850E+03  0.73724990782E+03  0.82216853613E+02 0.  0.
          5    1    3    3  501    0  0.13983541531E+03 -0.15630985556E+03 -0.11356884347E+02  0.21008994060E+03  0.47000000000E+01 0. -1.
        -13    1    4    4    0    0  0.86811831143E+02 -0.15301179896E+02 -0.30107983315E+02  0.93149937154E+02  0.00000000000E+00 0.  1.
         14    1    4    4    0    0 -0.14839560968E+02  0.67173728237E+01  0.59313051621E+01  0.17335398706E+02  0.00000000000E+00 0. -1.
         -5    1    5    5    0  502 -0.13554650238E+03  0.56979466670E+02  0.34383644978E+03  0.37398543838E+03  0.47000000000E+01 0.  1.
         13    1    6    6    0    0 -0.15454975703E+01 -0.13049679657E+02  0.49139112593E+02  0.50865853854E+02  0.00000000000E+00 0. -1.
        -14    1    6    6    0    0 -0.74715685535E+02  0.12096387562E+03  0.67149711591E+03  0.68638405397E+03  0.00000000000E+00 0.  1.
</event>
<event>
12    1  0.8196217E-002  0.1965721E+03  0.7818608E-02  0.1152899E+00
         21   -1    0    0  501  502  0.00000000000E+00  0.00000000000E+00  0.72497957334E+03  0.72497957334E+03  0.00000000000E+00 0. -1.
         21   -1    0    0  502  503 -0.00000000000E+00 -0.00000000000E+00 -0.53239675774E+02  0.53239675774E+02  0.00000000000E+00 0. -1.
         -6    2    1    2    0  503 -0.11423932366E+02  0.95756757832E+02  0.30905336439E+03  0.36568791551E+03  0.17004060282E+03 0.  0.
        -24    2    3    3    0    0 -0.67119487251E+01  0.38178293809E+02  0.29205711811E+03  0.30528555879E+03  0.79995498598E+02 0.  0.
          6    2    1    2  501    0  0.11423932366E+02 -0.95756757832E+02  0.36268653318E+03  0.41253133360E+03  0.17129132190E+03 0.  0.
         24    2    5    5    0    0  0.13097736894E+02 -0.61955336391E+02  0.36450900433E+03  0.37831512233E+03  0.79028495648E+02 0.  0.
          5    1    5    5  501    0 -0.16738045281E+01 -0.33801421441E+02 -0.18224711543E+01  0.34216211277E+02  0.47000000000E+01 0. -1.
        -13    1    6    6    0    0  0.40307321339E+02 -0.12993010615E+02  0.20293618504E+03  0.20730796820E+03  0.00000000000E+00 0.  1.
         14    1    6    6    0    0 -0.27209584445E+02 -0.48962325776E+02  0.16157281929E+03  0.17100715413E+03  0.00000000000E+00 0. -1.
         -5    1    3    3    0  503 -0.47119836409E+01  0.57578464024E+02  0.16996246279E+02  0.60402356715E+02  0.47000000000E+01 0.  1.
         11    1    4    4    0    0 -0.54837938883E+01  0.58831925654E+02  0.14190991343E+03  0.15371952056E+03  0.00000000000E+00 0. -1.
        -12    1    4    4    0    0 -0.12281548369E+01 -0.20653631845E+02  0.15014720468E+03  0.15156603824E+03  0.00000000000E+00 0.  1.
</event>
<event>
12    1  0.8196217E-002  0.1773046E+03  0.7818608E-02  0.1171560E+00
         21   -1    0    0  503  502  0.00000000000E+00  0.00000000000E+00  0.19209697541E+02  0.19209697541E+02  0.00000000000E+00 0. -1.
         21   -1    0    0  501  503 -0.00000000000E+00 -0.00000000000E+00 -0.23448061784E+04  0.23448061784E+04  0.00000000000E+00 0. -1.
          6    2    1    2  501    0  0.32192600832E+02 -0.22172853073E+02 -0.18208703898E+04  0.18290529238E+04  0.16833782287E+03 0.  0.
         24    2    3    3    0    0  0.12826153514E+02  0.28087490040E+02 -0.52656683445E+03  0.53362058485E+03  0.80776730091E+02 0.  0.
         -6    2    1    2    0  502 -0.32192600832E+02  0.22172853073E+02 -0.50472609108E+03  0.53496295217E+03  0.17294199669E+03 0.  0.
        -24    2    5    5    0    0 -0.67723640065E+02  0.11576478402E+02 -0.18330207587E+03  0.21137335800E+03  0.79740448815E+02 0.  0.
          5    1    3    3  501    0  0.19366447318E+02 -0.50260343114E+02 -0.12943035554E+04  0.12954323389E+04  0.47000000000E+01 0. -1.
        -13    1    4    4    0    0  0.13824532561E+02 -0.12339359625E+02 -0.29010744388E+02  0.34423840379E+02  0.00000000000E+00 0.  1.
         14    1    4    4    0    0 -0.99837904715E+00  0.40426849666E+02 -0.49755609006E+03  0.49919674447E+03  0.00000000000E+00 0. -1.
         -5    1    5    5    0  502  0.35531039233E+02  0.10596374671E+02 -0.32142401521E+03  0.32358959417E+03  0.47000000000E+01 0.  1.
         11    1    6    6    0    0 -0.39807962855E+02 -0.11374454459E+02 -0.23645370710E+02  0.47677622392E+02  0.00000000000E+00 0. -1.
        -12    1    6    6    0    0 -0.27915677210E+02  0.22950932861E+02 -0.15965670516E+03  0.16369573560E+03  0.00000000000E+00 0.  1.
</event>
<event>
12    1  0.8196217E-002  0.1855789E+03  0.7818608E-02  0.1162530E+00
         21   -1    0    0  503  502  0.00000000000E+00  0.00000000000E+00  0.38213491347E+03  0.38213491347E+03  0.00000000000E+00 0. -1.
         21   -1    0    0  501  503 -0.00000000000E+00 -0.00000000000E+00 -0.10567827016E+03  0.10567827016E+03  0.00000000000E+00 0. -1.
          6    2    1    2  501    0  0.64370917565E+02 -0.26278255248E+02  0.23195292628E+03  0.29705502015E+03  0.17206209129E+03 0.  0.
         24    2    3    3    0    0  0.55293772176E+02  0.40753412445E+02  0.87205055840E+02  0.13721236302E+03  0.80649047940E+02 0.  0.
         -6    2    1    2    0  502 -0.64370917565E+02  0.26278255248E+02  0.44503717036E+02  0.19075816348E+03  0.17197073698E+03 0.  0.
        -24    2    5    5    0    0 -0.84099406242E+01 -0.46141942808E+02  0.23537647094E+02  0.96747620904E+02  0.81278996872E+02 0.  0.
          5    1    3    3  501    0  0.90771453886E+01 -0.67031667692E+02  0.14474787044E+03  0.15984265713E+03  0.47000000000E+01 0. -1.
        -13    1    4    4    0    0  0.83657605481E+01 -0.20873376545E+01 -0.14745439313E+02  0.17081302895E+02  0.00000000000E+00 0.  1.
         14    1    4    4    0    0  0.46928011628E+02  0.42840750099E+02  0.10195049515E+03  0.12013106012E+03  0.00000000000E+00 0. -1.
         -5    1    5    5    0  502 -0.55960976941E+02  0.72420198056E+02  0.20966069942E+02  0.94010542576E+02  0.47000000000E+01 0.  1.
         11    1    6    6    0    0  0.94264698931E+01  0.34643854566E+01 -0.23840932077E+02  0.25869873280E+02  0.00000000000E+00 0. -1.
        -12    1    6    6    0    0 -0.17836410517E+02 -0.49606328265E+02  0.47378579171E+02  0.70877747624E+02  0.00000000000E+00 0.  1.
</event>
<event>
12    1  0.8196217E-002  0.1849357E+03  0.7818608E-02  0.1163850E+00
         21   -1    0    0  503  502  0.00000000000E+00  0.00000000000E+00  0.13714503711E+03  0.13714503711E+03  0.00000000000E+00 0.  1.
         21   -1    0    0  501  503 -0.00000000000E+00 -0.00000000000E+00 -0.24522205081E+03  0.24522205081E+03  0.00000000000E+00 0.  1.
          6    2    1    2  501    0  0.61033118830E+02 -0.15713595370E+01 -0.50593770260E+02  0.18870362870E+03  0.17123615019E+03 0.  0.
         24    2    3    3    0    0  0.70782361018E+02 -0.32277389604E+02  0.21091801512E+02  0.10997104837E+03  0.74811729542E+02 0.  0.
         -6    2    1    2    0  502 -0.61033118830E+02  0.15713595370E+01 -0.57483243439E+02  0.19366345921E+03  0.17456718303E+03 0.  0.
        -24    2    5    5    0    0 -0.94896401405E+02  0.61202285214E+01  0.29243360145E+01  0.12410355861E+03  0.79689129259E+02 0.  0.
          5    1    3    3  501    0 -0.97492421889E+01  0.30706030067E+02 -0.71685571772E+02  0.78732580334E+02  0.47000000000E+01 0. -1.
        -11    1    4    4    0    0  0.31297224616E+02  0.20613083897E+02  0.22944160384E+02  0.43941438212E+02  0.00000000000E+00 0.  1.
         12    1    4    4    0    0  0.39485136402E+02 -0.52890473501E+02 -0.18523588718E+01  0.66029610155E+02  0.00000000000E+00 0. -1.
         -5    1    5    5    0  502  0.33863282575E+02 -0.45488689845E+01 -0.60407579454E+02  0.69559900598E+02  0.47000000000E+01 0.  1.
         11    1    6    6    0    0 -0.20773755859E+02 -0.25554462022E+02 -0.22147743009E+02  0.39687554499E+02  0.00000000000E+00 0. -1.
        -12    1    6    6    0    0 -0.74122645545E+02  0.31674690543E+02  0.25072079023E+02  0.84416004112E+02  0.00000000000E+00 0.  1.
</event>
<event>
12    1  0.8196217E-002  0.2320792E+03  0.7818608E-02  0.1125420E+00
         21   -1    0    0  501  502  0.00000000000E+00  0.00000000000E+00  0.85640155057E+02  0.85640155057E+02  0.00000000000E+00 0. -1.
         21   -1    0    0  502  503 -0.00000000000E+00 -0.00000000000E+00 -0.63849469980E+03  0.63849469980E+03  0.00000000000E+00 0.  1.
         -6    2    1    2    0  503 -0.10118347271E+03  0.11579935274E+03 -0.32775617077E+03  0.40082379770E+03  0.17201169751E+03 0.  0.
        -24    2    3    3    0    0 -0.90457085502E+02  0.85935921254E+01 -0.20247723542E+03  0.23552094795E+03  0.78846381768E+02 0.  0.
          6    2    1    2  501    0  0.10118347271E+03 -0.11579935274E+03 -0.22509837398E+03  0.32331105716E+03  0.17381937886E+03 0.  0.
         24    2    5    5    0    0  0.12017462630E+03 -0.96801343586E+02 -0.10980509376E+03  0.20483650829E+03  0.78028171760E+02 0.  0.
          5    1    5    5  501    0 -0.18991153584E+02 -0.18998009158E+02 -0.11529328021E+03  0.11847454887E+03  0.47000000000E+01 0. -1.
        -13    1    6    6    0    0  0.72366764887E+02 -0.27404206941E+02 -0.89192475408E+02  0.11808148410E+03  0.00000000000E+00 0.  1.
         14    1    6    6    0    0  0.47807861409E+02 -0.69397136645E+02 -0.20612618355E+02  0.86755024192E+02  0.00000000000E+00 0. -1.
         -5    1    3    3    0  503 -0.10726387210E+02  0.10720576062E+03 -0.12527893535E+03  0.16530284975E+03  0.47000000000E+01 0.  1.
         11    1    4    4    0    0 -0.69273691939E+01 -0.23482702618E+02 -0.81184561869E+02  0.84795983702E+02  0.00000000000E+00 0. -1.
        -12    1    4    4    0    0 -0.83529716308E+02  0.32076294744E+02 -0.12129267355E+03  0.15072496425E+03  0.00000000000E+00 0.  1.
</event>
<event>
12    1  0.8196217E-002  0.2353952E+03  0.7818608E-02  0.1124068E+00
         21   -1    0    0  503  502  0.00000000000E+00  0.00000000000E+00  0.10066319340E+04  0.10066319340E+04  0.00000000000E+00 0.  1.
         21   -1    0    0  501  503 -0.00000000000E+00 -0.00000000000E+00 -0.65965308110E+02  0.65965308110E+02  0.00000000000E+00 0.  1.
          6    2    1    2  501    0  0.11592136685E+03  0.11102970920E+03  0.23150683048E+03  0.32539008756E+03  0.16284328942E+03 0.  0.
         24    2    3    3    0    0  0.41072441362E+02  0.54191967507E+02  0.42971286632E+02  0.11467551327E+03  0.81732656184E+02 0.  0.
         -6    2    1    2    0  502 -0.11592136685E+03 -0.11102970920E+03  0.70915979543E+03  0.74720715457E+03  0.17217885109E+03 0.  0.
        -24    2    5    5    0    0 -0.83330852288E+02 -0.53354026205E+02  0.62498528777E+03  0.63998745588E+03  0.95847017113E+02 0.  0.
          5    1    3    3  501    0  0.74848925486E+02  0.56837741691E+02  0.18853554385E+03  0.21071457430E+03  0.47000000000E+01 0. -1.
        -13    1    4    4    0    0  0.37836857391E+02  0.75166153975E+02  0.27939656150E+02  0.88669063750E+02  0.00000000000E+00 0.  1.
         14    1    4    4    0    0  0.32355839711E+01 -0.20974186467E+02  0.15031630482E+02  0.26006449519E+02  0.00000000000E+00 0. -1.
         -5    1    5    5    0  502 -0.32590514560E+02 -0.57675682994E+02  0.84174507659E+02  0.10721969869E+03  0.47000000000E+01 0.  1.
         13    1    6    6    0    0  0.21434728243E+02 -0.14793279481E+02  0.12685381032E+03  0.12949972156E+03  0.00000000000E+00 0. -1.
        -14    1    6    6    0    0 -0.10476558053E+03 -0.38560746723E+02  0.49813147746E+03  0.51048773432E+03  0.00000000000E+00 0.  1.
</event>
<event>
12    1  0.8196217E-002  0.1934354E+03  0.7818608E-02  0.1155439E+00
         21   -1    0    0  503  502  0.00000000000E+00  0.00000000000E+00  0.26224242756E+03  0.26224242756E+03  0.00000000000E+00 0. -1.
         21   -1    0    0  501  503 -0.00000000000E+00 -0.00000000000E+00 -0.14256345758E+03  0.14256345758E+03  0.00000000000E+00 0.  1.
          6    2    1    2  501    0 -0.32977290934E+02  0.81857550527E+02  0.62088565811E+02  0.20315574026E+03  0.17213106779E+03 0.  0.
         24    2    3    3    0    0 -0.28119841504E+02 -0.14110203009E+02 -0.36150373517E+01  0.86654847549E+02  0.80660838041E+02 0.  0.
         -6    2    1    2    0  502  0.32977290934E+02 -0.81857550527E+02  0.57590404170E+02  0.20165014488E+03  0.17192430306E+03 0.  0.
        -24    2    5    5    0    0  0.14946726136E+02 -0.12095090994E+03  0.26027768005E+02  0.14806206767E+03  0.79952510512E+02 0.  0.
          5    1    3    3  501    0 -0.48574494297E+01  0.95967753536E+02  0.65703603163E+02  0.11650089271E+03  0.47000000000E+01 0. -1.
        -11    1    4    4    0    0  0.10667378531E+02  0.26373651630E+02 -0.10158003114E+02  0.30208401022E+02  0.00000000000E+00 0.  1.
         12    1    4    4    0    0 -0.38787220035E+02 -0.40483854639E+02  0.65429657627E+01  0.56446446527E+02  0.00000000000E+00 0. -1.
         -5    1    5    5    0  502  0.18030564798E+02  0.39093359418E+02  0.31562636165E+02  0.53588077211E+02  0.47000000000E+01 0.  1.
         11    1    6    6    0    0 -0.28929278657E+02 -0.77475630512E+02  0.51461147111E+01  0.82860479020E+02  0.00000000000E+00 0. -1.
        -12    1    6    6    0    0  0.43876004793E+02 -0.43475279433E+02  0.20881653294E+02  0.65201588651E+02  0.00000000000E+00 0.  1.
</event>
<event>
12    1  0.8196217E-002  0.2412532E+03  0.7818608E-02  0.1119180E+00
         21   -1    0    0  501  502  0.00000000000E+00  0.00000000000E+00  0.66767238433E+03  0.66767238433E+03  0.00000000000E+00 0. -1.
         21   -1    0    0  502  503 -0.00000000000E+00 -0.00000000000E+00 -0.87643971498E+02  0.87643971498E+02  0.00000000000E+00 0. -1.
         -6    2    1    2    0  503 -0.58587450203E+02 -0.15532177276E+03  0.33008181062E+03  0.40884850592E+03  0.17505929474E+03 0.  0.
        -24    2    3    3    0    0 -0.32746563311E+02 -0.73146870091E+01  0.85034762044E+02  0.12136981995E+03  0.79836585506E+02 0.  0.
          6    2    1    2  501    0  0.58587450203E+02  0.15532177276E+03  0.24994660221E+03  0.34646784991E+03  0.17323199660E+03 0.  0.
         24    2    5    5    0    0  0.60369920284E+01  0.25405445725E+02  0.15714038407E+03  0.17831646927E+03  0.80136015376E+02 0.  0.
          5    1    5    5  501    0  0.52550458175E+02  0.12991632704E+03  0.92806218141E+02  0.16815138064E+03  0.47000000000E+01 0. -1.
        -11    1    6    6    0    0 -0.14176139679E+02 -0.25495120720E+02  0.47130838426E+02  0.55428152121E+02  0.00000000000E+00 0.  1.
         12    1    6    6    0    0  0.20213131707E+02  0.50900566446E+02  0.11000954565E+03  0.12288831715E+03  0.00000000000E+00 0. -1.
         -5    1    3    3    0  503 -0.25840886893E+02 -0.14800708576E+03  0.24504704858E+03  0.28747868597E+03  0.47000000000E+01 0.  1.
         11    1    4    4    0    0  0.11511024197E+02 -0.23062823102E+02  0.18560187228E+01  0.25842644853E+02  0.00000000000E+00 0. -1.
        -12    1    4    4    0    0 -0.44257587508E+02  0.15748136093E+02  0.83178743321E+02  0.95527175102E+02  0.00000000000E+00 0.  1.
</event>
<event>
12    1  0.8196217E-002  0.1945421E+03  0.7818608E-02  0.1154648E+00
         21   -1    0    0  501  502  0.00000000000E+00  0.00000000000E+00  0.59373879848E+02  0.59373879848E+02  0.00000000000E+00 0.  1.
         21   -1    0    0  502  503 -0.00000000000E+00 -0.00000000000E+00 -0.14317464303E+04  0.14317464303E+04  0.00000000000E+00 0.  1.
         -6    2    1    2    0  503  0.80617355674E+02  0.35040461539E+02 -0.12434526766E+04  0.12585790421E+04  0.17355014920E+03 0.  0.
        -24    2    3    3    0    0  0.83017062259E+02  0.85817243642E+02 -0.93461415450E+03  0.94554970972E+03  0.79399016624E+02 0.  0.
          6    2    1    2  501    0 -0.80617355674E+02 -0.35040461539E+02 -0.12891987389E+03  0.23254126808E+03  0.17241843143E+03 0.  0.
         24    2    5    5    0    0 -0.83779338443E+02  0.33406855680E+02 -0.10423752561E+03  0.15955947798E+03  0.80366471325E+02 0.  0.
          5    1    5    5  501    0  0.31619827698E+01 -0.68447317219E+02 -0.24682348279E+02  0.72981790100E+02  0.47000000000E+01 0. -1.
        -11    1    6    6    0    0 -0.65604993469E+02  0.34815257727E+02 -0.25172802888E+02  0.78420579849E+02  0.00000000000E+00 0.  1.
         12    1    6    6    0    0 -0.18174344974E+02 -0.14084020470E+01 -0.79064722722E+02  0.81138898135E+02  0.00000000000E+00 0. -1.
         -5    1    3    3    0  503 -0.23997065851E+01 -0.50776782103E+02 -0.30883852207E+03  0.31302933234E+03  0.47000000000E+01 0.  1.
         13    1    4    4    0    0  0.64068630078E+01  0.53814744771E+02 -0.51177171826E+03  0.51463323470E+03  0.00000000000E+00 0. -1.
        -14    1    4    4    0    0  0.76610199251E+02  0.32002498872E+02 -0.42284243624E+03  0.43091647502E+03  0.00000000000E+00 0.  1.
</event>
<event>
12    1  0.8196217E-002  0.2125244E+03  0.7818608E-02  0.1140002E+00
         21   -1    0    0  503  502  0.00000000000E+00  0.00000000000E+00  0.12614820308E+04  0.12614820308E+04  0.00000000000E+00 0.  1.
         21   -1    0    0  501  503 -0.00000000000E+00 -0.00000000000E+00 -0.43099231950E+02  0.43099231950E+02  0.00000000000E+00 0.  1.
          6    2    1    2  501    0 -0.55285787077E+02 -0.10714427685E+03  0.88662587568E+03  0.91174123188E+03  0.17501490267E+03 0.  0.
         24    2    3    3    0    0 -0.15206326702E+02 -0.50156413396E+02  0.27098387294E+03  0.29215173450E+03  0.95778277272E+02 0.  0.
         -6    2    1    2    0  502  0.55285787077E+02  0.10714427685E+03  0.33175692316E+03  0.39284003087E+03  0.17240713290E+03 0.  0.
        -24    2    5    5    0    0 -0.63775673074E+01  0.74568682327E+01  0.82535675869E+02  0.11738900289E+03  0.82896091348E+02 0.  0.
          5    1    3    3  501    0 -0.40079460376E+02 -0.56987863454E+02  0.61564200274E+03  0.61958949738E+03  0.47000000000E+01 0. -1.
        -13    1    4    4    0    0 -0.25848609112E+02 -0.67502850898E+02  0.25818111275E+03  0.26810869522E+03  0.00000000000E+00 0.  1.
         14    1    4    4    0    0  0.10642282411E+02  0.17346437502E+02  0.12802760190E+02  0.24043039272E+02  0.00000000000E+00 0. -1.
         -5    1    5    5    0  502  0.61663354385E+02  0.99687408617E+02  0.24922124729E+03  0.27545102797E+03  0.47000000000E+01 0.  1.
         13    1    6    6    0    0  0.34445938567E+02 -0.48376744615E+01  0.59519675671E+02  0.68938505713E+02  0.00000000000E+00 0. -1.
        -14    1    6    6    0    0 -0.40823505875E+02  0.12294542694E+02  0.23016000198E+02  0.48450497181E+02  0.00000000000E+00 0.  1.
</event>
<event>
12    1  0.8196217E-002  0.1939844E+03  0.7818608E-02  0.1154996E+00
         21   -1    0    0  501  502  0.00000000000E+00  0.00000000000E+00  0.11753701791E+03  0.11753701791E+03  0.00000000000E+00 0. -1.
         21   -1    0    0  502  503 -0.00000000000E+00 -0.00000000000E+00 -0.40432649806E+03  0.40432649806E+03  0.00000000000E+00 0.  1.
         -6    2    1    2    0  503  0.87826869385E+02 -0.25594808600E+02 -0.26276866144E+03  0.32639756242E+03  0.17064391611E+03 0.  0.
        -24    2    3    3    0    0  0.10450086395E+03 -0.59175209944E+02 -0.15236494366E+03  0.20970679009E+03  0.79622394531E+02 0.  0.
          6    2    1    2  501    0 -0.87826869385E+02  0.25594808600E+02 -0.24020818708E+02  0.19546595355E+03  0.17105930566E+03 0.  0.
         24    2    5    5    0    0 -0.35045126514E+02 -0.44026420608E+02 -0.43431742586E+02  0.10584507483E+03  0.78424339321E+02 0.  0.
          5    1    5    5  501    0 -0.52781742872E+02  0.69621229208E+02  0.19410923879E+02  0.89620878722E+02  0.47000000000E+01 0. -1.
        -13    1    6    6    0    0 -0.35805790874E+02 -0.12199263657E+02 -0.59250192652E+02  0.70295533451E+02  0.00000000000E+00 0.  1.
         14    1    6    6    0    0  0.76066436011E+00 -0.31827156951E+02  0.15818450065E+02  0.35549541380E+02  0.00000000000E+00 0. -1.
         -5    1    3    3    0  503 -0.16673994568E+02  0.33580401344E+02 -0.11040371777E+03  0.11669077233E+03  0.47000000000E+01 0.  1.
         11    1    4    4    0    0  0.15747287648E+02 -0.32916678100E+02 -0.66638529827E+01  0.37093014194E+02  0.00000000000E+00 0. -1.
        -12    1    4    4    0    0  0.88753576305E+02 -0.26258531844E+02 -0.14570109068E+03  0.17261377589E+03  0.00000000000E+00 0.  1.
</event>
<event>
12    1  0.8196217E-002  0.1776513E+03  0.7818608E-02  0.1170686E+00
         21   -1    0    0  501  502  0.00000000000E+00  0.00000000000E+00  0.17219540539E+03  0.17219540539E+03  0.00000000000E+00 0. -1.
         21   -1    0    0  502  503 -0.00000000000E+00 -0.00000000000E+00 -0.42219042949E+03  0.42219042949E+03  0.00000000000E+00 0. -1.
         -6    2    1    2    0  503 -0.39514876362E+02 -0.15359407302E+02 -0.35006195045E+03  0.39255998030E+03  0.17251849794E+03 0.  0.
        -24    2    3    3    0    0 -0.10679070859E+02  0.57988289139E+02 -0.18326722749E+03  0.20802283537E+03  0.78803167008E+02 0.  0.
          6    2    1    2  501    0  0.39514876362E+02  0.15359407302E+02  0.10006692635E+03  0.20182585459E+03  0.17006748362E+03 0.  0.
         24    2    5    5    0    0  0.65143306048E+02  0.45346050786E+01 -0.31618285215E+01  0.94810628650E+02  0.68664730242E+02 0.  0.
          5    1    5    5  501    0 -0.25628429686E+02  0.10824802223E+02  0.10322875487E+03  0.10701522594E+03  0.47000000000E+01 0. -1.
        -11    1    6    6    0    0 -0.74394591395E+01  0.14181146537E+02 -0.13395461018E+02  0.20877951176E+02  0.00000000000E+00 0.  1.
         12    1    6    6    0    0  0.72582765187E+02 -0.96465414587E+01  0.10233632497E+02  0.73932677474E+02  0.00000000000E+00 0. -1.
         -5    1    3    3    0  503 -0.28835805503E+02 -0.73347696441E+02 -0.16679472296E+03  0.18453714493E+03  0.47000000000E+01 0.  1.
         11    1    4    4    0    0  0.13841396214E+02  0.54166643055E+02 -0.17183241402E+03  0.18069861089E+03  0.00000000000E+00 0. -1.
        -12    1    4    4    0    0 -0.24520467073E+02  0.38216460843E+01 -0.11434813471E+02  0.27324224479E+02  0.00000000000E+00 0.  1.
</event>
<event>
12    1  0.8196217E-002  0.2317565E+03  0.7818608E-02  0.1126017E+00
         21   -1    0    0  501  502  0.00000000000E+00  0.00000000000E+00  0.54339944356E+03  0.54339944356E+03  0.00000000000E+00 0.  1.
         21   -1    0    0  502  503 -0.00000000000E+00 -0.00000000000E+00 -0.10787208628E+03  0.10787208628E+03  0.00000000000E+00 0.  1.
         -6    2    1    2    0  503  0.14042853018E+03 -0.56215663154E+02  0.11470055147E+03  0.25549263506E+03  0.17099677537E+03 0.  0.
        -24    2    3    3    0    0  0.17457412479E+02  0.12942151285E+02  0.68317351304E+02  0.10690531950E+03  0.79304642470E+02 0.  0.
          6    2    1    2  501    0 -0.14042853018E+03  0.56215663154E+02  0.32082680581E+03  0.39577889478E+03  0.17558679152E+03 0.  0.
         24    2    5    5    0    0 -0.10782349969E+03  0.74672611940E+02  0.13260279061E+03  0.20380463382E+03  0.82163998388E+02 0.  0.
          5    1    5    5  501    0 -0.32605030491E+02 -0.18456948786E+02  0.18822401521E+03  0.19197426096E+03  0.47000000000E+01 0. -1.
        -13    1    6    6    0    0 -0.11401552513E+03  0.42035259461E+02  0.10576743553E+03  0.16110013478E+03  0.00000000000E+00 0.  1.
         14    1    6    6    0    0  0.61920254420E+01  0.32637352479E+02  0.26835355082E+02  0.42704499040E+02  0.00000000000E+00 0. -1.
         -5    1    3    3    0  503  0.12297111770E+03 -0.69157814440E+02  0.46383200168E+02  0.14858731556E+03  0.47000000000E+01 0.  1.
         13    1    4    4    0    0 -0.25888348495E+02  0.80510173877E+01  0.15551732957E+01  0.27155920768E+02  0.00000000000E+00 0. -1.
        -14    1    4    4    0    0  0.43345760974E+02  0.48911338975E+01  0.66762178008E+02  0.79749398729E+02  0.00000000000E+00 0.  1.
</event>
<event>
12    1  0.8196217E-002  0.2084524E+03  0.7818608E-02  0.1143094E+00
         21   -1    0    0  503  502  0.00000000000E+00  0.00000000000E+00  0.35161697796E+03  0.35161697796E+03  0.00000000000E+00 0. -1.
         21   -1    0    0  501  503 -0.00000000000E+00 -0.00000000000E+00 -0.12285489487E+03  0.12285489487E+03  0.00000000000E+00 0. -1.
          6    2    1    2  501    0  0.18290524500E+02  0.11423088999E+03  0.12224942174E+03  0.24038354210E+03  0.17162775615E+03 0.  0.
         24    2    3    3    0    0 -0.17316291786E+02 -0.36188043608E+01  0.31081317611E+02  0.87118709092E+02  0.79439734787E+02 0.  0.
         -6    2    1    2    0  502 -0.18290524500E+02 -0.11423088999E+03  0.10651266135E+03  0.23408833074E+03  0.17340461367E+03 0.  0.
        -24    2    5    5    0    0 -0.43157032548E+02 -0.48526164019E+02  0.12540989180E+03  0.16118668771E+03  0.77692916545E+02 0.  0.
          5    1    3    3  501    0  0.35606816287E+02  0.11784969435E+03  0.91168104132E+02  0.15326483300E+03  0.47000000000E+01 0. -1.
        -11    1    4    4    0    0 -0.33259947572E+01 -0.12705576882E+02 -0.25199951504E+02  0.28417098389E+02  0.00000000000E+00 0.  1.
         12    1    4    4    0    0 -0.13990297029E+02  0.90867725209E+01  0.56281269116E+02  0.58701610703E+02  0.00000000000E+00 0. -1.
         -5    1    5    5    0  502  0.24866508048E+02 -0.65704725972E+02 -0.18897230444E+02  0.72901643027E+02  0.47000000000E+01 0.  1.
         11    1    6    6    0    0 -0.14523614248E+02 -0.60821175165E+02  0.10974439468E+03  0.12630907680E+03  0.00000000000E+00 0. -1.
        -12    1    6    6    0    0 -0.28633418301E+02  0.12295011146E+02  0.15665497122E+02  0.34877610909E+02  0.00000000000E+00 0.  1.
</event>
<event>
12    1  0.8196217E-002  0.2322084E+03  0.7818608E-02  0.1125102E+00
         21   -1    0    0  501  502  0.00000000000E+00  0.00000000000E+00  0.28064843899E+04  0.28064843899E+04  0.00000000000E+00 0. -1.
         21   -1    0    0  502  503 -0.00000000000E+00 -0.00000000000E+00 -0.27133750873E+02  0.27133750873E+02  0.00000000000E+00 0. -1.
         -6    2    1    2    0  503 -0.84891781353E+02  0.13171561372E+03  0.62392959820E+03  0.66572501877E+03  0.17130685818E+03 0.  0.
        -24    2    3    3    0    0 -0.69381067449E+02  0.73314860996E+01  0.30615215307E+03  0.32408692358E+03  0.80222877007E+02 0.  0.
          6    2    1    2  501    0  0.84891781353E+02 -0.13171561372E+03  0.21554210408E+04  0.21678931220E+04  0.17136250400E+03 0.  0.
         24    2    5    5    0    0  0.11050818360E+03 -0.14132286140E+03  0.16332250819E+04  0.16449598482E+04  0.79274992599E+02 0.  0.
          5    1    5    5  501    0 -0.25616402248E+02  0.96072476750E+01  0.52219595892E+03  0.52293327374E+03  0.47000000000E+01 0. -1.
        -13    1    6    6    0    0  0.86937526342E+01 -0.72250183262E+02  0.56161621474E+03  0.56631125980E+03  0.00000000000E+00 0.  1.
         14    1    6    6    0    0  0.10181443097E+03 -0.69072678133E+02  0.10716088671E+04  0.10786485884E+04  0.00000000000E+00 0. -1.
         -5    1    3    3    0  503 -0.15510713904E+02  0.12438412762E+03  0.31777744513E+03  0.34163809519E+03  0.47000000000E+01 0.  1.
         13    1    4    4    0    0 -0.83106528587E+02  0.10379546334E+02  0.19743603902E+03  0.21446542747E+03  0.00000000000E+00 0. -1.
        -14    1    4    4    0    0  0.13725461138E+02 -0.30480602341E+01  0.10871611405E+03  0.10962149611E+03  0.00000000000E+00 0.  1.
</event>
<event>
12    1  0.8196217E-002  0.1935058E+03  0.7818608E-02  0.1155350E+00
         21   -1    0    0  501  502  0.00000000000E+00  0.00000000000E+00  0.25254852561E+03  0.25254852561E+03  0.00000000000E+00 0.  1.
         21   -1    0    0  502  503 -0.00000000000E+00 -0.00000000000E+00 -0.19546515951E+03  0.19546515951E+03  0.00000000000E+00 0.  1.
         -6    2    1    2    0  503 -0.81101786151E+02 -0.36072263321E+02 -0.81589953357E+02  0.20994904444E+03  0.17188069372E+03 0.  0.
        -24    2    3    3    0    0 -0.84497631922E+02 -0.10396033545E+02  0.70273637688E+01  0.11750490217E+03  0.80685134191E+02 0.  0.
          6    2    1    2  501    0  0.81101786151E+02  0.36072263321E+02  0.13867331945E+03  0.23806464068E+03  0.17194701428E+03 0.  0.
         24    2    5    5    0    0  0.11333798465E+03  0.23765902695E+01  0.13030601007E+03  0.19045505402E+03  0.80264091559E+02 0.  0.
          5    1    5    5  501    0 -0.32236198501E+02  0.33695673051E+02  0.83673093775E+01  0.47609586665E+02  0.47000000000E+01 0. -1.
        -11    1    6    6    0    0  0.64765356746E+02 -0.96244450024E+01  0.18617680954E+02  0.68072016425E+02  0.00000000000E+00 0.  1.
         12    1    6    6    0    0  0.48572627906E+02  0.12001035272E+02  0.11168832912E+03  0.12238303759E+03  0.00000000000E+00 0. -1.
         -5    1    3    3    0  503  0.33958457708E+01 -0.25676229776E+02 -0.88617317126E+02  0.92444142263E+02  0.47000000000E+01 0.  1.
         13    1    4    4    0    0 -0.95695955245E+02 -0.88715489146E+01 -0.10470093911E+02  0.96674935205E+02  0.00000000000E+00 0. -1.
        -14    1    4    4    0    0  0.11198323324E+02 -0.15244846303E+01  0.17497457679E+02  0.20829966968E+02  0.00000000000E+00 0.  1.
</event>
<event>
12    1  0.8196217E-002  0.2903054E+03  0.7818608E-02  0.1090471E+00
         21   -1    0    0  503  502  0.00000000000E+00  0.00000000000E+00  0.34931530478E+03  0.34931530478E+03  0.00000000000E+00 0.  1.
         21   -1    0    0  501  503 -0.00000000000E+00 -0.00000000000E+00 -0.23965979817E+03  0.23965979817E+03  0.00000000000E+00 0. -1.
          6    2    1    2  501    0  0.21925738008E+03 -0.77955369021E+02  0.46547176412E+02  0.29188948366E+03  0.16994702928E+03 0.  0.
         24    2    3    3    0    0  0.13019991553E+03 -0.17118522759E+02  0.85017084845E+02  0.17728417092E+03  0.83406898488E+02 0.  0.
         -6    2    1    2    0  502 -0.21925738008E+03  0.77955369021E+02  0.63108330201E+02  0.29708561929E+03  0.17356948340E+03 0.  0.
        -24    2    5    5    0    0 -0.12865470480E+03  0.50726167487E+02 -0.32443806660E+02  0.16253980909E+03  0.79002606364E+02 0.  0.
          5    1    3    3  501    0  0.89057464547E+02 -0.60836846262E+02 -0.38469908433E+02  0.11460531275E+03  0.47000000000E+01 0. -1.
        -11    1    4    4    0    0  0.27945761774E+02  0.23918575078E+02  0.49193494910E+02  0.61425269852E+02  0.00000000000E+00 0.  1.
         12    1    4    4    0    0  0.10225415376E+03 -0.41037097836E+02  0.35823589935E+02  0.11585890106E+03  0.00000000000E+00 0. -1.
         -5    1    5    5    0  502 -0.90602675279E+02  0.27229201534E+02  0.95552136861E+02  0.13454581020E+03  0.47000000000E+01 0.  1.
         11    1    6    6    0    0 -0.14086042806E+02 -0.64919065135E+01 -0.30780024909E+02  0.34466960781E+02  0.00000000000E+00 0. -1.
        -12    1    6    6    0    0 -0.11456866200E+03  0.57218074000E+02 -0.16637817511E+01  0.12807284831E+03  0.00000000000E+00 0.  1.
</event>
<event>
12    1  0.8196217E-002  0.2032013E+03  0.7818608E-02  0.1147095E+00
         21   -1    0    0  503  502  0.00000000000E+00  0.00000000000E+00  0.29207281089E+03  0.29207281089E+03  0.00000000000E+00 0.  1.
         21   -1    0    0  501  503 -0.00000000000E+00 -0.00000000000E+00 -0.17481725166E+03  0.17481725166E+03  0.00000000000E+00 0. -1.
          6    2    1    2  501    0  0.96583978146E+01  0.10751493559E+03 -0.43614872671E+02  0.20782933852E+03  0.17215699465E+03 0.  0.
         24    2    3    3    0    0 -0.18126367874E+02  0.11826679309E+03  0.13561269908E+02  0.14318572379E+03  0.77476731328E+02 0.  0.
         -6    2    1    2    0  502 -0.96583978146E+01 -0.10751493559E+03  0.16087043190E+03  0.25906072403E+03  0.17198958356E+03 0.  0.
        -24    2    5    5    0    0  0.41397703082E+02 -0.72035106045E+02  0.39448923670E+02  0.12256597540E+03  0.81014655607E+02 0.  0.
          5    1    3    3  501    0  0.27784765688E+02 -0.10751857502E+02 -0.57176142579E+02  0.64643614722E+02  0.47000000000E+01 0. -1.
        -13    1    4    4    0    0 -0.47606093603E+02  0.55015873789E+02  0.75215690576E+01  0.73141373503E+02  0.00000000000E+00 0.  1.
         14    1    4    4    0    0  0.29479725729E+02  0.63250919300E+02  0.60397008505E+01  0.70044350291E+02  0.00000000000E+00 0. -1.
         -5    1    5    5    0  502 -0.51056100896E+02 -0.35479829541E+02  0.12142150823E+03  0.13649474863E+03  0.47000000000E+01 0.  1.
         11    1    6    6    0    0 -0.16013927169E+02  0.65742767582E+01 -0.56554991280E+00  0.17320127741E+02  0.00000000000E+00 0. -1.
        -12    1    6    6    0    0  0.57411630251E+02 -0.78609382803E+02  0.40014473583E+02  0.10524584766E+03  0.00000000000E+00 0.  1.
</event>
<event>
12    1  0.8196217E-002  0.4264460E+03  0.7818608E-02  0.1035097E+00
         21   -1    0    0  503  502  0.00000000000E+00  0.00000000000E+00  0.19090151656E+04  0.19090151656E+04  0.00000000000E+00 0.  1.
         21   -1    0    0  501  503 -0.00000000000E+00 -0.00000000000E+00 -0.19046789458E+03  0.19046789458E+03  0.00000000000E+00 0. -1.
          6    2    1    2  501    0  0.38160630540E+03  0.81543408696E+02  0.11660592736E+03  0.44210079091E+03  0.17199845117E+03 0.  0.
         24    2    3    3    0    0  0.23772390462E+03 -0.17340608061E+02  0.66238698388E+02  0.26033406739E+03  0.81073484975E+02 0.  0.
         -6    2    1    2    0  502 -0.38160630540E+03 -0.81543408696E+02  0.16019413436E+04  0.16573822692E+04  0.16860373112E+03 0.  0.
        -24    2    5    5    0    0 -0.80528167449E+02 -0.14767145778E+01  0.45224515734E+03  0.46621388005E+03  0.79641278048E+02 0.  0.
          5    1    3    3  501    0  0.14388240078E+03  0.98884016757E+02  0.50367228974E+02  0.18176672352E+03  0.47000000000E+01 0. -1.
        -11    1    4    4    0    0  0.21880553485E+03 -0.11825136753E+02  0.32863555186E+02  0.22157551579E+03  0.00000000000E+00 0.  1.
         12    1    4    4    0    0  0.18918369776E+02 -0.55154713074E+01  0.33375143202E+02  0.38758551605E+02  0.00000000000E+00 0. -1.
         -5    1    5    5    0  502 -0.30107813795E+03 -0.80066694119E+02  0.11496961863E+04  0.11911683892E+04  0.47000000000E+01 0.  1.
         13    1    6    6    0    0 -0.14006080691E+02 -0.30557436821E+02  0.22916345906E+03  0.23161566918E+03  0.00000000000E+00 0. -1.
        -14    1    6    6    0    0 -0.66522086759E+02  0.29080722243E+02  0.22308169828E+03  0.23459821087E+03  0.00000000000E+00 0.  1.
</event>
<event>
12    1  0.8196217E-002  0.1918028E+03  0.7818608E-02  0.1157973E+00
         21   -1    0    0  503  502  0.00000000000E+00  0.00000000000E+00  0.55937644760E+03  0.55937644760E+03  0.00000000000E+00 0. -1.
         21   -1    0    0  501  503 -0.00000000000E+00 -0.00000000000E+00 -0.25190994583E+03  0.25190994583E+03  0.00000000000E+00 0. -1.
          6    2    1    2  501    0  0.31979135625E+02  0.75617656628E+02 -0.19602695056E+03  0.27425329503E+03  0.17334246272E+03 0.  0.
         24    2    3    3    0    0  0.14337393904E+02 -0.26800966591E+02 -0.83022336102E+02  0.12065336560E+03  0.82101605737E+02 0.  0.
         -6    2    1    2    0  502 -0.31979135625E+02 -0.75617656628E+02  0.50349345233E+03  0.53703309840E+03  0.16780404385E+03 0.  0.
        -24    2    5    5    0    0 -0.71730450007E+02 -0.15057408727E+02  0.35965258822E+03  0.37591204202E+03  0.81165855562E+02 0.  0.
          5    1    3    3  501    0  0.17641741722E+02  0.10241862322E+03 -0.11300461446E+03  0.15359992943E+03  0.47000000000E+01 0. -1.
        -13    1    4    4    0    0 -0.23609650780E+02  0.15737362426E+02 -0.15660587269E+02  0.32408859586E+02  0.00000000000E+00 0.  1.
         14    1    4    4    0    0  0.37947044684E+02 -0.42538329016E+02 -0.67361748833E+02  0.88244506014E+02  0.00000000000E+00 0. -1.
         -5    1    5    5    0  502  0.39751314382E+02 -0.60560247900E+02  0.14384086411E+03  0.16112105638E+03  0.47000000000E+01 0.  1.
         11    1    6    6    0    0 -0.53464061131E+02  0.29408241749E+02  0.18792150821E+03  0.19757971496E+03  0.00000000000E+00 0. -1.
        -12    1    6    6    0    0 -0.18266388876E+02 -0.44465650476E+02  0.17173108001E+03  0.17833232707E+03  0.00000000000E+00 0.  1.
</event>
<event>
12    1  0.8196217E-002  0.2175606E+03  0.7818608E-02  0.1135969E+00
         21   -1    0    0  503  502  0.00000000000E+00  0.00000000000E+00  0.88415734880E+03  0.88415734880E+03  0.00000000000E+00 0.  1.
         21   -1    0    0  501  503 -0.00000000000E+00 -0.00000000000E+00 -0.80186189825E+02  0.80186189825E+02  0.00000000000E+00 0.  1.
          6    2    1    2  501    0 -0.10856741139E+02  0.13020905958E+03  0.12311767747E+03  0.24998117259E+03  0.17395504051E+03 0.  0.
         24    2    3    3    0    0  0.52325071180E+02  0.12450655772E+03  0.10666585659E+03  0.18427567551E+03  0.65879614711E+02 0.  0.
         -6    2    1    2    0  502  0.10856741139E+02 -0.13020905958E+03  0.68085348150E+03  0.71436236603E+03  0.17227843369E+03 0.  0.
        -24    2    5    5    0    0 -0.37094747973E+01 -0.62508468619E+02  0.16297373127E+03  0.19185201173E+03  0.79534196840E+02 0.  0.
          5    1    3    3  501    0 -0.63181812319E+02  0.57025018603E+01  0.16451820880E+02  0.65705497074E+02  0.47000000000E+01 0. -1.
        -11    1    4    4    0    0  0.29148293423E+02  0.32708365147E+02  0.30497345148E+01  0.43917662059E+02  0.00000000000E+00 0.  1.
         12    1    4    4    0    0  0.23176777757E+02  0.91798192570E+02  0.10361612208E+03  0.14035801346E+03  0.00000000000E+00 0. -1.
         -5    1    5    5    0  502  0.14566215936E+02 -0.67700590958E+02  0.51787975023E+03  0.52251035431E+03  0.47000000000E+01 0.  1.
         11    1    6    6    0    0 -0.15429035967E+01  0.14017807994E+02  0.28778226284E+01  0.14393100970E+02  0.00000000000E+00 0. -1.
        -12    1    6    6    0    0 -0.21665712006E+01 -0.76526276613E+02  0.16009590864E+03  0.17745891076E+03  0.00000000000E+00 0.  1.
</event>
<event>
12    1  0.8196217E-002  0.1972647E+03  0.7818608E-02  0.1152116E+00
         21   -1    0    0  503  502  0.00000000000E+00  0.00000000000E+00  0.59801913374E+02  0.59801913374E+02  0.00000000000E+00 0. -1.
         21   -1    0    0  501  503 -0.00000000000E+00 -0.00000000000E+00 -0.67070246155E+03  0.67070246155E+03  0.00000000000E+00 0. -1.
          6    2    1    2  501    0  0.85457419963E+02 -0.43958176776E+02 -0.36950718710E+03  0.41876070632E+03  0.17201649894E+03 0.  0.
         24    2    3    3    0    0 -0.14733227364E+02 -0.40653955770E+02 -0.22474114393E+03  0.24261195968E+03  0.80511918973E+02 0.  0.
         -6    2    1    2    0  502 -0.85457419963E+02  0.43958176776E+02 -0.24139336107E+03  0.31174366860E+03  0.17227323707E+03 0.  0.
        -24    2    5    5    0    0 -0.22646846703E+02 -0.14426001116E+02 -0.19808340866E+03  0.21555779480E+03  0.80666826750E+02 0.  0.
          5    1    3    3  501    0  0.10019064733E+03 -0.33042210064E+01 -0.14476604317E+03  0.17614874664E+03  0.47000000000E+01 0. -1.
        -11    1    4    4    0    0  0.16302912414E+02  0.46967302433E+01 -0.14368562148E+03  0.14468380023E+03  0.00000000000E+00 0.  1.
         12    1    4    4    0    0 -0.31036139778E+02 -0.45350686013E+02 -0.81055522449E+02  0.97928159452E+02  0.00000000000E+00 0. -1.
         -5    1    5    5    0  502 -0.62810573260E+02  0.58384177892E+02 -0.43309952416E+02  0.96185873805E+02  0.47000000000E+01 0.  1.
         13    1    6    6    0    0  0.18004813866E+01  0.19400900609E+02 -0.81962888842E+01  0.21138018572E+02  0.00000000000E+00 0. -1.
        -14    1    6    6    0    0 -0.24447328090E+02 -0.33826901725E+02 -0.18988711977E+03  0.19441977622E+03  0.00000000000E+00 0.  1.
</event>
<event>
12    1  0.8196217E-002  0.2506456E+03  0.7818608E-02  0.1112959E+00
         21   -1    0    0  501  502  0.00000000000E+00  0.00000000000E+00  0.82751436059E+02  0.82751436059E+02  0.00000000000E+00 0. -1.
         21   -1    0    0  502  503 -0.00000000000E+00 -0.00000000000E+00 -0.22195383009E+04  0.22195383009E+04  0.00000000000E+00 0.  1.
         -6    2    1    2    0  503 -0.14899292402E+03 -0.10509245719E+03 -0.20028036449E+04  0.20184265333E+04  0.17198812300E+03 0.  0.
        -24    2    3    3    0    0 -0.21795616459E+02  0.24527943110E+01 -0.72111477720E+03  0.72595077736E+03  0.80727592317E+02 0.  0.
          6    2    1    2  501    0  0.14899292402E+03  0.10509245719E+03 -0.13398321994E+03  0.28386320363E+03  0.17141615788E+03 0.  0.
         24    2    5    5    0    0  0.41774437265E+02 -0.13776811950E+02 -0.44807711097E+02  0.10055998919E+03  0.78547287001E+02 0.  0.
          5    1    5    5  501    0  0.10721848675E+03  0.11886926914E+03 -0.89175508845E+02  0.18330321444E+03  0.47000000000E+01 0. -1.
        -11    1    6    6    0    0  0.56098763818E+02 -0.31039855447E+02 -0.20104840789E+02  0.67191878611E+02  0.00000000000E+00 0.  1.
         12    1    6    6    0    0 -0.14324326553E+02  0.17263043496E+02 -0.24702870308E+02  0.33368110576E+02  0.00000000000E+00 0. -1.
         -5    1    3    3    0  503 -0.12719730756E+03 -0.10754525150E+03 -0.12816888677E+04  0.12924757559E+04  0.47000000000E+01 0.  1.
         11    1    4    4    0    0 -0.27982724344E+02 -0.10122565535E+02 -0.92267828978E+02  0.96947673819E+02  0.00000000000E+00 0. -1.
        -12    1    4    4    0    0  0.61871078858E+01  0.12575359846E+02 -0.62884694822E+03  0.62900310354E+03  0.00000000000E+00 0.  1.
</event>
<event>
12    1  0.8196217E-002  0.1755970E+03  0.7818608E-02  0.1172792E+00
         21   -1    0    0  501  502  0.00000000000E+00  0.00000000000E+00  0.70798336160E+03  0.70798336160E+03  0.00000000000E+00 0. -1.
         21   -1    0    0  502  503 -0.00000000000E+00 -0.00000000000E+00 -0.46178204632E+02  0.46178204632E+02  0.00000000000E+00 0. -1.
         -6    2    1    2    0  503 -0.18099117647E+02 -0.27305858611E+02  0.43357579239E+03  0.46778443651E+03  0.17251412500E+03 0.  0.
        -24    2    3    3    0    0 -0.26495847333E+02 -0.81094559211E+02  0.26650793833E+03  0.29200762564E+03  0.83448276066E+02 0.  0.
          6    2    1    2  501    0  0.18099117647E+02  0.27305858611E+02  0.22822936458E+03  0.28637712972E+03  0.16985296464E+03 0.  0.
         24    2    5    5    0    0  0.51491902613E+02  0.71512413579E+02  0.17257800790E+03  0.20771035725E+03  0.74799614766E+02 0.  0.
          5    1    5    5  501    0 -0.33392784966E+02 -0.44206554968E+02  0.55651356682E+02  0.78666772467E+02  0.47000000000E+01 0. -1.
        -13    1    6    6    0    0 -0.50979737197E+01  0.10284827693E+02  0.88717965670E+02  0.89457500800E+02  0.00000000000E+00 0.  1.
         14    1    6    6    0    0  0.56589876332E+02  0.61227585886E+02  0.83860042231E+02  0.11825285645E+03  0.00000000000E+00 0. -1.
         -5    1    3    3    0  503  0.83967296856E+01  0.53788700601E+02  0.16706785406E+03  0.17577681088E+03  0.47000000000E+01 0.  1.
         13    1    4    4    0    0 -0.32496187036E+02 -0.56582364246E+02  0.25681447087E+03  0.26497403376E+03  0.00000000000E+00 0. -1.
        -14    1    4    4    0    0  0.60003397037E+01 -0.24512194966E+02  0.96934674550E+01  0.27033591880E+02  0.00000000000E+00 0.  1.
</event>
<event>
12    1  0.8196217E-002  0.2580351E+03  0.7818608E-02  0.1108393E+00
         21   -1    0    0  501  502  0.00000000000E+00  0.00000000000E+00  0.99009574791E+02  0.99009574791E+02  0.00000000000E+00 0. -1.
         21   -1    0    0  502  503 -0.00000000000E+00 -0.00000000000E+00 -0.12041418339E+04  0.12041418339E+04  0.00000000000E+00 0.  1.
         -6    2    1    2    0  503 -0.17617979499E+03 -0.76629167660E+02 -0.98571331536E+03  0.10188223572E+04  0.17163014302E+03 0.  0.
        -24    2    3    3    0    0 -0.12993465543E+03  0.14751518319E+02 -0.63695392085E+03  0.65530585421E+03  0.81331686922E+02 0.  0.
          6    2    1    2  501    0  0.17617979499E+03  0.76629167660E+02 -0.11941894377E+03  0.28432905149E+03  0.17225207079E+03 0.  0.
         24    2    5    5    0    0  0.20427589274E+02  0.15002668593E+02 -0.66430802192E+02  0.10858375818E+03  0.82067134667E+02 0.  0.
          5    1    5    5  501    0  0.15575220571E+03  0.61626499067E+02 -0.52988141573E+02  0.17574529331E+03  0.47000000000E+01 0. -1.
        -11    1    6    6    0    0 -0.10954130007E+01 -0.30434170444E+02 -0.44046132825E+02  0.53549047396E+02  0.00000000000E+00 0.  1.
         12    1    6    6    0    0  0.21523002274E+02  0.45436839036E+02 -0.22384669367E+02  0.55034710785E+02  0.00000000000E+00 0. -1.
         -5    1    3    3    0  503 -0.46245139559E+02 -0.91380685979E+02 -0.34875939451E+03  0.36351650301E+03  0.47000000000E+01 0.  1.
         13    1    4    4    0    0 -0.39702757625E+02 -0.14749736905E+02 -0.82015364729E+02  0.92305924802E+02  0.00000000000E+00 0. -1.
        -14    1    4    4    0    0 -0.90231897804E+02  0.29501255224E+02 -0.55493855612E+03  0.56299992941E+03  0.00000000000E+00 0.  1.
</event>
<event>
12    1  0.8196217E-002  0.1771742E+03  0.7818608E-02  0.1170963E+00
         21   -1    0    0  501  502  0.00000000000E+00  0.00000000000E+00  0.24750876256E+03  0.24750876256E+03  0.00000000000E+00 0.  1.
         21   -1    0    0  502  503 -0.00000000000E+00 -0.00000000000E+00 -0.14719352898E+03  0.14719352898E+03  0.00000000000E+00 0.  1.
         -6    2    1    2    0  503  0.17572074299E+01 -0.36887501105E+02 -0.25089385541E+02  0.17894179640E+03  0.17328275655E+03 0.  0.
        -24    2    3    3    0    0 -0.59788409922E+02 -0.51411469663E+02 -0.30485801193E+01  0.11180986822E+03  0.79210855418E+02 0.  0.
          6    2    1    2  501    0 -0.17572074299E+01  0.36887501105E+02  0.12540461912E+03  0.21576049513E+03  0.17164643092E+03 0.  0.
         24    2    5    5    0    0  0.27387351799E+01 -0.81720011415E+01  0.14444934522E+03  0.16641108951E+03  0.82175148951E+02 0.  0.
          5    1    5    5  501    0 -0.44959426098E+01  0.45059502246E+02 -0.19044726099E+02  0.49349405618E+02  0.47000000000E+01 0. -1.
        -11    1    6    6    0    0  0.10075709772E+02  0.36220468179E+02  0.68186170149E+02  0.77863958557E+02  0.00000000000E+00 0.  1.
         12    1    6    6    0    0 -0.73369745918E+01 -0.44392469321E+02  0.76263175072E+02  0.88547130957E+02  0.00000000000E+00 0. -1.
         -5    1    3    3    0  503  0.61545617352E+02  0.14523968558E+02 -0.22040805422E+02  0.67131928183E+02  0.47000000000E+01 0.  1.
         13    1    4    4    0    0 -0.46006212300E+02 -0.64262710664E+02  0.20500873412E+02  0.81648964248E+02  0.00000000000E+00 0. -1.
        -14    1    4    4    0    0 -0.13782197622E+02  0.12851241001E+02 -0.23549453532E+02  0.30160903969E+02  0.00000000000E+00 0.  1.
</event>
<event>
12    1  0.8196217E-002  0.1872495E+03  0.7818608E-02  0.1163606E+00
         21   -1    0    0  503  502  0.00000000000E+00  0.00000000000E+00  0.32625447010E+02  0.32625447010E+02  0.00000000000E+00 0. -1.
         21   -1    0    0  501  503 -0.00000000000E+00 -0.00000000000E+00 -0.13449250214E+04  0.13449250214E+04  0.00000000000E+00 0. -1.
          6    2    1    2  501    0 -0.48541981098E+02  0.41438600313E+02 -0.98370195701E+03  0.99934578857E+03  0.16416145526E+03 0.  0.
         24    2    3    3    0    0  0.12125142339E+02 -0.19075018874E+02 -0.34116701867E+03  0.35110537410E+03  0.79807102887E+02 0.  0.
         -6    2    1    2    0  502  0.48541981098E+02 -0.41438600313E+02 -0.32859761738E+03  0.37820467984E+03  0.17603665578E+03 0.  0.
        -24    2    5    5    0    0  0.32299348114E+02 -0.95046417978E+02 -0.25674100067E+03  0.28697373878E+03  0.79755350070E+02 0.  0.
          5    1    3    3  501    0 -0.60667123437E+02  0.60513619187E+02 -0.64253493834E+03  0.64824041447E+03  0.47000000000E+01 0. -1.
        -11    1    4    4    0    0  0.33167526686E+02  0.16418673346E+02 -0.10430236546E+03  0.11067357906E+03  0.00000000000E+00 0.  1.
         12    1    4    4    0    0 -0.21042384347E+02 -0.35493692220E+02 -0.23686465321E+03  0.24043179504E+03  0.00000000000E+00 0. -1.
         -5    1    5    5    0  502  0.16242632984E+02  0.53607817665E+02 -0.71856616712E+02  0.91230941058E+02  0.47000000000E+01 0.  1.
         13    1    6    6    0    0  0.70291184796E+01  0.13943447527E+02 -0.22529515074E+02  0.27411809225E+02  0.00000000000E+00 0. -1.
        -14    1    6    6    0    0  0.25270229634E+02 -0.10898986550E+03 -0.23421148560E+03  0.25956192955E+03  0.00000000000E+00 0.  1.
</event>
<event>
12    1  0.8196217E-002  0.1848123E+03  0.7818608E-02  0.1163285E+00
         21   -1    0    0  501  502  0.00000000000E+00  0.00000000000E+00  0.72725736295E+03  0.72725736295E+03  0.00000000000E+00 0. -1.
         21   -1    0    0  502  503 -0.00000000000E+00 -0.00000000000E+00 -0.75451662247E+03  0.75451662247E+03  0.00000000000E+00 0. -1.
         -6    2    1    2    0  503 -0.57063682978E+02  0.34307614754E+02 -0.73112126406E+03  0.75411795753E+03  0.17240160892E+03 0.  0.
        -24    2    3    3    0    0 -0.44648149966E+02  0.84298475382E+02 -0.39918913460E+03  0.41818007610E+03  0.80143125846E+02 0.  0.
          6    2    1    2  501    0  0.57063682978E+02 -0.34307614754E+02  0.70386200454E+03  0.72765602789E+03  0.17212872262E+03 0.  0.
         24    2    5    5    0    0  0.10084624661E+03 -0.48931531833E+02  0.53387844219E+03  0.55145366327E+03  0.80688855716E+02 0.  0.
          5    1    5    5  501    0 -0.43782563635E+02  0.14623917079E+02  0.16998356235E+03  0.17620236462E+03  0.47000000000E+01 0. -1.
        -13    1    6    6    0    0  0.74111958875E+02 -0.25494242924E+02  0.18702523729E+03  0.20278308178E+03  0.00000000000E+00 0.  1.
         14    1    6    6    0    0  0.26734287739E+02 -0.23437288908E+02  0.34685320490E+03  0.34867058149E+03  0.00000000000E+00 0. -1.
         -5    1    3    3    0  503 -0.12415533012E+02 -0.49990860628E+02 -0.33193212946E+03  0.33593788142E+03  0.47000000000E+01 0.  1.
         13    1    4    4    0    0 -0.66031972831E+02  0.54157432597E+02 -0.23950268820E+03  0.25427305519E+03  0.00000000000E+00 0. -1.
        -14    1    4    4    0    0  0.21383822865E+02  0.30141042785E+02 -0.15968644640E+03  0.16390702091E+03  0.00000000000E+00 0.  1.
</event>
<event>
12    1  0.8196217E-002  0.1968836E+03  0.7818608E-02  0.1153291E+00
         21   -1    0    0  501  502  0.00000000000E+00  0.00000000000E+00  0.52132345012E+03  0.52132345012E+03  0.00000000000E+00 0. -1.
         21   -1    0    0  502  503 -0.00000000000E+00 -0.00000000000E+00 -0.93205502958E+02  0.93205502958E+02  0.00000000000E+00 0.  1.
         -6    2    1    2    0  503 -0.87097073058E+02  0.14051098627E+02  0.68568765650E+02  0.20460362264E+03  0.17139904687E+03 0.  0.
        -24    2    3    3    0    0 -0.10025502852E+03  0.34781822821E+02  0.16313826459E+01  0.13315015554E+03  0.80408062828E+02 0.  0.
          6    2    1    2  501    0  0.87097073058E+02 -0.14051098627E+02  0.35954918151E+03  0.40992533043E+03  0.17601087778E+03 0.  0.
         24    2    5    5    0    0  0.10912749331E+03  0.30307076204E+02  0.19763513919E+03  0.24054046041E+03  0.77283479406E+02 0.  0.
          5    1    5    5  501    0 -0.22030420251E+02 -0.44358174832E+02  0.16191404232E+03  0.16938487002E+03  0.47000000000E+01 0. -1.
        -13    1    6    6    0    0  0.37039919505E+02  0.17133988269E+02  0.14537938516E+02  0.43322982899E+02  0.00000000000E+00 0.  1.
         14    1    6    6    0    0  0.72087573804E+02  0.13173087935E+02  0.18309720067E+03  0.19721747751E+03  0.00000000000E+00 0. -1.
         -5    1    3    3    0  503  0.13157955467E+02 -0.20730724194E+02  0.66937383004E+02  0.71453467104E+02  0.47000000000E+01 0.  1.
         13    1    4    4    0    0 -0.49792600834E+01 -0.12108069470E+02  0.21447818393E+02  0.25127819068E+02  0.00000000000E+00 0. -1.
        -14    1    4    4    0    0 -0.95275768441E+02  0.46889892292E+02 -0.19816435747E+02  0.10802233647E+03  0.00000000000E+00 0.  1.
</event>
<event>
12    1  0.8196217E-002  0.2069725E+03  0.7818608E-02  0.1143992E+00
         21   -1    0    0  501  502  0.00000000000E+00  0.00000000000E+00  0.11359357490E+04  0.11359357490E+04  0.00000000000E+00 0.  1.
         21   -1    0    0  502  503 -0.00000000000E+00 -0.00000000000E+00 -0.38498149344E+02  0.38498149344E+02  0.00000000000E+00 0. -1.
         -6    2    1    2    0  503  0.94021359252E+02  0.61193018104E+02  0.46443775738E+03  0.50845611100E+03  0.17389820261E+03 0.  0.
        -24    2    3    3    0    0  0.25008728735E+02  0.52566309316E+02  0.12100249467E+03  0.15801776700E+03  0.83302806567E+02 0.  0.
          6    2    1    2  501    0 -0.94021359252E+02 -0.61193018104E+02  0.63299984226E+03  0.66597778733E+03  0.17393392841E+03 0.  0.
         24    2    5    5    0    0 -0.11769680479E+03 -0.90940090804E+02  0.52251354015E+03  0.54903879465E+03  0.79376069533E+02 0.  0.
          5    1    5    5  501    0  0.23675445536E+02  0.29747072700E+02  0.11048630211E+03  0.11693899268E+03  0.47000000000E+01 0. -1.
        -11    1    6    6    0    0 -0.67167750853E+02 -0.77697996955E+02  0.22988686305E+03  0.25178652722E+03  0.00000000000E+00 0.  1.
         12    1    6    6    0    0 -0.50529053934E+02 -0.13242093849E+02  0.29262667710E+03  0.29725226743E+03  0.00000000000E+00 0. -1.
         -5    1    3    3    0  503  0.69012630516E+02  0.86267087882E+01  0.34343526271E+03  0.35043834400E+03  0.47000000000E+01 0.  1.
         11    1    4    4    0    0  0.50556466972E+02  0.94623227000E+01  0.64544097080E+02  0.82531402336E+02  0.00000000000E+00 0. -1.
        -12    1    4    4    0    0 -0.25547738237E+02  0.43103986616E+02  0.56458397591E+02  0.75486364661E+02  0.00000000000E+00 0.  1.
</event>
<event>
12    1  0.8196217E-002  0.2214782E+03  0.7818608E-02  0.1132871E+00
         21   -1    0    0  503  502  0.00000000000E+00  0.00000000000E+00  0.74706565757E+02  0.74706565757E+02  0.00000000000E+00 0. -1.
         21   -1    0    0  501  503 -0.00000000000E+00 -0.00000000000E+00 -0.70583728284E+03  0.70583728284E+03  0.00000000000E+00 0. -1.
          6    2    1    2  501    0  0.62325061182E+01  0.13938749158E+03 -0.41975550043E+03  0.47438692401E+03  0.17140757449E+03 0.  0.
         24    2    3    3    0    0  0.50154146222E+02  0.13437868256E+03 -0.25303527598E+03  0.30184150426E+03  0.80674494680E+02 0.  0.
         -6    2    1    2    0  502 -0.62325061182E+01 -0.13938749158E+03 -0.21137521665E+03  0.30615692458E+03  0.17200250962E+03 0.  0.
        -24    2    5    5    0    0 -0.63221160795E+02 -0.11518308692E+03 -0.11640075355E+03  0.19268534837E+03  0.79463509644E+02 0.  0.
          5    1    3    3  501    0 -0.43921640103E+02  0.50088090137E+01 -0.16672022445E+03  0.17254541975E+03  0.47000000000E+01 0. -1.
        -13    1    4    4    0    0  0.49416955959E+01  0.11400754617E+03 -0.16169003980E+03  0.19790353688E+03  0.00000000000E+00 0.  1.
         14    1    4    4    0    0  0.45212450626E+02  0.20371136388E+02 -0.91345236185E+02  0.10393796738E+03  0.00000000000E+00 0. -1.
         -5    1    5    5    0  502  0.56988654677E+02 -0.24204404651E+02 -0.94974463102E+02  0.11347157621E+03  0.47000000000E+01 0.  1.
         13    1    6    6    0    0 -0.28790323647E+02 -0.10433738737E+03 -0.11292455997E+03  0.15641972184E+03  0.00000000000E+00 0. -1.
        -14    1    6    6    0    0 -0.34430837148E+02 -0.10845699558E+02 -0.34761935816E+01  0.36265626528E+02  0.00000000000E+00 0.  1.
</event>
<event>
12    1  0.8196217E-002  0.1923797E+03  0.7818608E-02  0.1156797E+00
         21   -1    0    0  501  502  0.00000000000E+00  0.00000000000E+00  0.39033390324E+03  0.39033390324E+03  0.00000000000E+00 0. -1.
         21   -1    0    0  502  503 -0.00000000000E+00 -0.00000000000E+00 -0.17032095508E+03  0.17032095508E+03  0.00000000000E+00 0.  1.
         -6    2    1    2    0  503  0.20264351207E+02 -0.82188188386E+02 -0.78228499225E+02  0.20574934361E+03  0.17043342414E+03 0.  0.
        -24    2    3    3    0    0  0.31346384739E+02 -0.32639968767E+02  0.21770431997E+02  0.93500896938E+02  0.78870163063E+02 0.  0.
          6    2    1    2  501    0 -0.20264351207E+02  0.82188188386E+02  0.29824144738E+03  0.35490551471E+03  0.17275537966E+03 0.  0.
         24    2    5    5    0    0 -0.20354940810E+02  0.75676240526E+02  0.81446497215E+02  0.13796184901E+03  0.79112090599E+02 0.  0.
          5    1    5    5  501    0  0.90589602362E-01  0.65119478596E+01  0.21679495016E+03  0.21694366570E+03  0.47000000000E+01 0. -1.
        -13    1    6    6    0    0  0.18175824768E+02  0.61007038375E+02  0.25754294784E+02  0.68669520438E+02  0.00000000000E+00 0.  1.
         14    1    6    6    0    0 -0.38530765578E+02  0.14669202151E+02  0.55692202430E+02  0.69292328574E+02  0.00000000000E+00 0. -1.
         -5    1    3    3    0  503 -0.11082033532E+02 -0.49548219619E+02 -0.99998931221E+02  0.11224844667E+03  0.47000000000E+01 0.  1.
         11    1    4    4    0    0  0.13861768010E+02  0.21456475342E+02 -0.11075960886E+02  0.27842518852E+02  0.00000000000E+00 0. -1.
        -12    1    4    4    0    0  0.17484616729E+02 -0.54096444109E+02  0.32846392882E+02  0.65658378086E+02  0.00000000000E+00 0.  1.
</event>
<event>
12    1  0.8196217E-002  0.2013374E+03  0.7818608E-02  0.1148790E+00
         21   -1    0    0  503  502  0.00000000000E+00  0.00000000000E+00  0.13892161059E+03  0.13892161059E+03  0.00000000000E+00 0. -1.
         21   -1    0    0  501  503 -0.00000000000E+00 -0.00000000000E+00 -0.42056385305E+03  0.42056385305E+03  0.00000000000E+00 0.  1.
          6    2    1    2  501    0 -0.76396199118E+02 -0.71389880631E+02 -0.29653634713E+03  0.35842788319E+03  0.17205768795E+03 0.  0.
         24    2    3    3    0    0 -0.73194647226E+02 -0.41045330817E+02 -0.30526090231E+03  0.32634596459E+03  0.79216756803E+02 0.  0.
         -6    2    1    2    0  502  0.76396199118E+02  0.71389880631E+02  0.14894104663E+02  0.20105758045E+03  0.17108308510E+03 0.  0.
        -24    2    5    5    0    0  0.19717848095E+02  0.10299068138E+03  0.27772279791E+02  0.13473274742E+03  0.79910823531E+02 0.  0.
          5    1    3    3  501    0 -0.32015518920E+01 -0.30344549814E+02  0.87245551855E+01  0.32081918601E+02  0.47000000000E+01 0. -1.
        -11    1    4    4    0    0  0.16204137139E+02 -0.22090184489E+01 -0.65936126390E+02  0.67933986975E+02  0.00000000000E+00 0.  1.
         12    1    4    4    0    0 -0.89398784365E+02 -0.38836312368E+02 -0.23932477592E+03  0.25841197761E+03  0.00000000000E+00 0. -1.
         -5    1    5    5    0  502  0.56678351023E+02 -0.31600800748E+02 -0.12878175128E+02  0.66324833036E+02  0.47000000000E+01 0.  1.
         13    1    6    6    0    0 -0.31258558661E+02  0.41795428693E+02  0.11359749875E+02  0.53413474577E+02  0.00000000000E+00 0. -1.
        -14    1    6    6    0    0  0.50976406755E+02  0.61195252686E+02  0.16412529916E+02  0.81319272840E+02  0.00000000000E+00 0.  1.
</event>
<event>
12    1  0.8196217E-002  0.3809805E+03  0.7818608E-02  0.1050581E+00
         21   -1    0    0  501  502  0.00000000000E+00  0.00000000000E+00  0.23310214505E+03  0.23310214505E+03  0.00000000000E+00 0. -1.
         21   -1    0    0  502  503 -0.00000000000E+00 -0.00000000000E+00 -0.81813477446E+03  0.81813477446E+03  0.00000000000E+00 0. -1.
         -6    2    1    2    0  503 -0.20972020652E+03 -0.26730000618E+03 -0.54951225693E+03  0.66860417000E+03  0.17215097240E+03 0.  0.
        -24    2    3    3    0    0 -0.50770574799E+02 -0.12330361967E+03 -0.15555562519E+03  0.22002434161E+03  0.80198032905E+02 0.  0.
          6    2    1    2  501    0  0.20972020652E+03  0.26730000618E+03 -0.35520372486E+02  0.38263274951E+03  0.17237826373E+03 0.  0.
         24    2    5    5    0    0  0.21323907674E+03  0.19998009832E+03  0.63445100299E+01  0.30313991442E+03  0.79941299304E+02 0.  0.
          5    1    5    5  501    0 -0.35188702174E+01  0.67319907860E+02 -0.41864882516E+02  0.79492835085E+02  0.47000000000E+01 0. -1.
        -11    1    6    6    0    0  0.62413518386E+02  0.21112351117E+02 -0.16892718328E+02  0.68018692868E+02  0.00000000000E+00 0.  1.
         12    1    6    6    0    0  0.15082555835E+03  0.17886774721E+03  0.23237228357E+02  0.23512122155E+03  0.00000000000E+00 0. -1.
         -5    1    3    3    0  503 -0.15894963172E+03 -0.14399638652E+03 -0.39395663173E+03  0.44857982839E+03  0.47000000000E+01 0.  1.
         11    1    4    4    0    0 -0.72653033993E+02 -0.93838128136E+02 -0.11364018742E+03  0.16431113729E+03  0.00000000000E+00 0. -1.
        -12    1    4    4    0    0  0.21882459194E+02 -0.29465491532E+02 -0.41915437774E+02  0.55713204318E+02  0.00000000000E+00 0.  1.
</event>
<event>
12    1  0.8196217E-002  0.2117186E+03  0.7818608E-02  0.1140238E+00
         21   -1    0    0  503  502  0.00000000000E+00  0.00000000000E+00  0.91318655262E+02  0.91318655262E+02  0.00000000000E+00 0.  1.
         21   -1    0    0  501  503 -0.00000000000E+00 -0.00000000000E+00 -0.90435218456E+03  0.90435218456E+03  0.00000000000E+00 0.  1.
          6    2    1    2  501    0 -0.11539444568E+03  0.41657978634E+02 -0.74319921359E+03  0.77273230808E+03  0.17239165753E+03 0.  0.
         24    2    3    3    0    0 -0.21896517653E+02 -0.35044601917E+02 -0.35811923170E+03  0.36908167837E+03  0.79147454716E+02 0.  0.
         -6    2    1    2    0  502  0.11539444568E+03 -0.41657978634E+02 -0.69834315707E+02  0.22293853175E+03  0.17254996960E+03 0.  0.
        -24    2    5    5    0    0  0.67744315674E+02  0.26049366322E+02 -0.91540138095E+02  0.13721775144E+03  0.71980918560E+02 0.  0.
          5    1    3    3  501    0 -0.93497928022E+02  0.76702580552E+02 -0.38507998189E+03  0.40365062970E+03  0.47000000000E+01 0. -1.
        -13    1    4    4    0    0 -0.27152788064E+02  0.80479803182E+01 -0.26304484206E+03  0.26456498790E+03  0.00000000000E+00 0.  1.
         14    1    4    4    0    0  0.52562704105E+01 -0.43092582236E+02 -0.95074389636E+02  0.10451669047E+03  0.00000000000E+00 0. -1.
         -5    1    5    5    0  502  0.47650130002E+02 -0.67707344956E+02  0.21705822388E+02  0.85720780303E+02  0.47000000000E+01 0.  1.
         11    1    6    6    0    0 -0.51667253107E+01 -0.13682667318E+02 -0.31565322980E+02  0.34789079467E+02  0.00000000000E+00 0. -1.
        -12    1    6    6    0    0  0.72911040984E+02  0.39732033640E+02 -0.59974815115E+02  0.10242867198E+03  0.00000000000E+00 0.  1.
</event>
<event>
12    1  0.8196217E-002  0.1942123E+03  0.7818608E-02  0.1154845E+00
         21   -1    0    0  501  502  0.00000000000E+00  0.00000000000E+00  0.12019731454E+03  0.12019731454E+03  0.00000000000E+00 0.  1.
         21   -1    0    0  502  503 -0.00000000000E+00 -0.00000000000E+00 -0.41526987334E+03  0.41526987334E+03  0.00000000000E+00 0.  1.
         -6    2    1    2    0  503 -0.45963543197E+02 -0.75398527505E+02 -0.28066208539E+03  0.34130578182E+03  0.17297642983E+03 0.  0.
        -24    2    3    3    0    0 -0.39502737459E+02 -0.11979121933E+03 -0.22195597698E+03  0.26727234165E+03  0.79117927176E+02 0.  0.
          6    2    1    2  501    0  0.45963543197E+02  0.75398527505E+02 -0.14410473419E+02  0.19416140607E+03  0.17231774316E+03 0.  0.
         24    2    5    5    0    0 -0.41830359291E+02  0.40476342964E+02 -0.66015089320E+00  0.98565958180E+02  0.79540549499E+02 0.  0.
          5    1    5    5  501    0  0.87793902488E+02  0.34922184541E+02 -0.13750322526E+02  0.95595447887E+02  0.47000000000E+01 0. -1.
        -13    1    6    6    0    0 -0.31627491672E+01  0.55319358656E+02 -0.94903581992E+01  0.56216557375E+02  0.00000000000E+00 0.  1.
         14    1    6    6    0    0 -0.38667610123E+02 -0.14843015691E+02  0.88302073060E+01  0.42349400805E+02  0.00000000000E+00 0. -1.
         -5    1    3    3    0  503 -0.64608057388E+01  0.44392691825E+02 -0.58706108407E+02  0.74033440164E+02  0.47000000000E+01 0.  1.
         13    1    4    4    0    0  0.19389327262E+02 -0.23626412738E+02 -0.21817082577E+02  0.37551810646E+02  0.00000000000E+00 0. -1.
        -14    1    4    4    0    0 -0.58892064721E+02 -0.96164806591E+02 -0.20013889440E+03  0.22972053101E+03  0.00000000000E+00 0.  1.
</event>
<event>
12    1  0.8196217E-002  0.1755612E+03  0.7818608E-02  0.1172358E+00
         21   -1    0    0  501  502  0.00000000000E+00  0.00000000000E+00  0.31337165472E+03  0.31337165472E+03  0.00000000000E+00 0. -1.
         21   -1    0    0  502  503 -0.00000000000E+00 -0.00000000000E+00 -0.99621712432E+02  0.99621712432E+02  0.00000000000E+00 0. -1.
         -6    2    1    2    0  503  0.27065388903E+02 -0.52413819996E+01  0.79774861745E+02  0.19215164492E+03  0.17262160559E+03 0.  0.
        -24    2    3    3    0    0  0.48621819056E+02  0.15765500020E+02 -0.14212031478E+02  0.93350861165E+02  0.76809954838E+02 0.  0.
          6    2    1    2  501    0 -0.27065388903E+02  0.52413819996E+01  0.13397508054E+03  0.22084172223E+03  0.17338320769E+03 0.  0.
         24    2    5    5    0    0  0.65598205072E+01  0.29454276722E+02  0.15349172182E+03  0.17479926068E+03  0.78003123044E+02 0.  0.
          5    1    5    5  501    0 -0.33625209410E+02 -0.24212894723E+02 -0.19516641279E+02  0.46042461549E+02  0.47000000000E+01 0. -1.
        -11    1    6    6    0    0  0.39478471166E+02  0.13073863779E+02  0.50374969276E+02  0.65323143903E+02  0.00000000000E+00 0.  1.
         12    1    6    6    0    0 -0.32918650659E+02  0.16380412943E+02  0.10311675254E+03  0.10947611678E+03  0.00000000000E+00 0. -1.
         -5    1    3    3    0  503 -0.21556430154E+02 -0.21006882020E+02  0.93986893223E+02  0.98800783756E+02  0.47000000000E+01 0.  1.
         13    1    4    4    0    0 -0.89876549293E+00  0.78665518278E+01  0.27191374301E+02  0.28320685963E+02  0.00000000000E+00 0. -1.
        -14    1    4    4    0    0  0.49520584549E+02  0.78989481925E+01 -0.41403405779E+02  0.65030175201E+02  0.00000000000E+00 0.  1.
</event>
<event>
12    1  0.8196217E-002  0.3063432E+03  0.7818608E-02  0.1082304E+00
         21   -1    0    0  503  502  0.00000000000E+00  0.00000000000E+00  0.12024571370E+03  0.12024571370E+03  0.00000000000E+00 0. -1.
         21   -1    0    0  501  503 -0.00000000000E+00 -0.00000000000E+00 -0.10123002717E+04  0.10123002717E+04  0.00000000000E+00 0.  1.
          6    2    1    2  501    0 -0.21651968763E+03 -0.12881621874E+03 -0.72023951967E+03  0.78268199390E+03  0.17427491082E+03 0.  0.
         24    2    3    3    0    0 -0.17527181225E+03 -0.12781347273E+03 -0.42443000847E+03  0.48397185072E+03  0.83853611843E+02 0.  0.
         -6    2    1    2    0  502  0.21651968763E+03  0.12881621874E+03 -0.17181503832E+03  0.34986399148E+03  0.17149347450E+03 0.  0.
        -24    2    5    5    0    0  0.41025496263E+02  0.93285335541E+01 -0.68228970438E+02  0.11358516980E+03  0.80475372063E+02 0.  0.
          5    1    3    3  501    0 -0.41247875380E+02 -0.10027460095E+01 -0.29580951120E+03  0.29871014318E+03  0.47000000000E+01 0. -1.
        -11    1    4    4    0    0 -0.17577970026E+03 -0.95483736594E+02 -0.37198388366E+03  0.42235962956E+03  0.00000000000E+00 0.  1.
         12    1    4    4    0    0  0.50788801043E+00 -0.32329736139E+02 -0.52446124809E+02  0.61612221162E+02  0.00000000000E+00 0. -1.
         -5    1    5    5    0  502  0.17549419137E+03  0.11948768519E+03 -0.10358606788E+03  0.23627882168E+03  0.47000000000E+01 0.  1.
         11    1    6    6    0    0  0.62331180703E+02  0.19516905983E+02 -0.39248307138E+02  0.76200494225E+02  0.00000000000E+00 0. -1.
        -12    1    6    6    0    0 -0.21305684440E+02 -0.10188372429E+02 -0.28980663300E+02  0.37384675571E+02  0.00000000000E+00 0.  1.
</event>
<event>
12    1  0.8196217E-002  0.1854211E+03  0.7818608E-02  0.1162841E+00
         21   -1    0    0  501  502  0.00000000000E+00  0.00000000000E+00  0.52404235885E+03  0.52404235885E+03  0.00000000000E+00 0.  1.
         21   -1    0    0  502  503 -0.00000000000E+00 -0.00000000000E+00 -0.86209701853E+03  0.86209701853E+03  0.00000000000E+00 0.  1.
         -6    2    1    2    0  503  0.28194778025E+02  0.63101765347E+02 -0.83529213020E+03  0.85545481924E+03  0.17121105890E+03 0.  0.
        -24    2    3    3    0    0 -0.18500378612E+02  0.21963962797E+02 -0.71465056910E+03  0.71962686661E+03  0.79452574264E+02 0.  0.
          6    2    1    2  501    0 -0.28194778025E+02 -0.63101765347E+02  0.49723747053E+03  0.53068455813E+03  0.17205876859E+03 0.  0.
         24    2    5    5    0    0 -0.10951618576E+02 -0.10909574930E+03  0.36944176821E+03  0.39369330061E+03  0.80531822179E+02 0.  0.
          5    1    5    5  501    0 -0.17243159449E+02  0.45993983950E+02  0.12779570231E+03  0.13699125752E+03  0.47000000000E+01 0. -1.
        -11    1    6    6    0    0  0.23205561730E+02 -0.20215545024E+01  0.74834692871E+02  0.78376119034E+02  0.00000000000E+00 0.  1.
         12    1    6    6    0    0 -0.34157180305E+02 -0.10707419480E+03  0.29460707534E+03  0.31531718158E+03  0.00000000000E+00 0. -1.
         -5    1    3    3    0  503  0.46695156637E+02  0.41137802551E+02 -0.12064156110E+03  0.13582795263E+03  0.47000000000E+01 0.  1.
         13    1    4    4    0    0 -0.22355182621E+02  0.18351355203E+02 -0.81948159387E+02  0.86902400742E+02  0.00000000000E+00 0. -1.
        -14    1    4    4    0    0  0.38548040091E+01  0.36126075939E+01 -0.63270240972E+03  0.63272446587E+03  0.00000000000E+00 0.  1.
</event>
<event>
12    1  0.8196217E-002  0.2999979E+03  0.7818608E-02  0.1085244E+00
         21   -1    0    0  503  502  0.00000000000E+00  0.00000000000E+00  0.15712206667E+03  0.15712206667E+03  0.00000000000E+00 0.  1.
         21   -1    0    0  501  503 -0.00000000000E+00 -0.00000000000E+00 -0.86145237724E+03  0.86145237724E+03  0.00000000000E+00 0. -1.
          6    2    1    2  501    0  0.18088066614E+03 -0.16602178187E+03 -0.64700247808E+03  0.71316964648E+03  0.17238819733E+03 0.  0.
         24    2    3    3    0    0  0.20843144352E+02 -0.71684011681E+02 -0.30983427300E+03  0.32818118979E+03  0.78310806488E+02 0.  0.
         -6    2    1    2    0  502 -0.18088066614E+03  0.16602178187E+03 -0.57327832491E+02  0.30540479743E+03  0.17235011599E+03 0.  0.
        -24    2    5    5    0    0 -0.25173284860E+02  0.53525354529E+02 -0.54141099794E+02  0.11322654681E+03  0.79939566972E+02 0.  0.
          5    1    3    3  501    0  0.16003752178E+03 -0.94337770186E+02 -0.33716820508E+03  0.38498845669E+03  0.47000000000E+01 0. -1.
        -13    1    4    4    0    0  0.19233590619E+02 -0.21287941995E+02 -0.22510689007E+02  0.36466952190E+02  0.00000000000E+00 0.  1.
         14    1    4    4    0    0  0.16095537336E+01 -0.50396069686E+02 -0.28732358399E+03  0.29171423760E+03  0.00000000000E+00 0. -1.
         -5    1    5    5    0  502 -0.15570738128E+03  0.11249642734E+03 -0.31867326973E+01  0.19217825062E+03  0.47000000000E+01 0.  1.
         11    1    6    6    0    0 -0.20967490721E+02  0.74832543671E+02 -0.41629479197E+02  0.88162116567E+02  0.00000000000E+00 0. -1.
        -12    1    6    6    0    0 -0.42057941384E+01 -0.21307189142E+02 -0.12511620597E+02  0.25064430243E+02  0.00000000000E+00 0.  1.
</event>
<event>
12    1  0.8196217E-002  0.2798527E+03  0.7818608E-02  0.1095900E+00
         21   -1    0    0  501  502  0.00000000000E+00  0.00000000000E+00  0.50421812587E+03  0.50421812587E+03  0.00000000000E+00 0. -1.
         21   -1    0    0  502  503 -0.00000000000E+00 -0.00000000000E+00 -0.16419731736E+03  0.16419731736E+03  0.00000000000E+00 0.  1.
         -6    2    1    2    0  503  0.18187013801E+03 -0.12580841105E+03  0.25026368726E+03  0.37543233685E+03  0.17150225364E+03 0.  0.
        -24    2    3    3    0    0  0.15157092134E+03 -0.24612591417E+02  0.16907888214E+03  0.24212180079E+03  0.80347832452E+02 0.  0.
          6    2    1    2  501    0 -0.18187013801E+03  0.12580841105E+03  0.89757121253E+02  0.29298310639E+03  0.16993603627E+03 0.  0.
         24    2    5    5    0    0 -0.15254081241E+03  0.27195131631E+02  0.47823938194E+02  0.18178387051E+03  0.82158212476E+02 0.  0.
          5    1    5    5  501    0 -0.29329325597E+02  0.98613279423E+02  0.41933183059E+02  0.11119923588E+03  0.47000000000E+01 0. -1.
        -11    1    6    6    0    0 -0.96869634479E+02  0.34592429448E+02  0.66632927987E+02  0.12255737167E+03  0.00000000000E+00 0.  1.
         12    1    6    6    0    0 -0.55671177929E+02 -0.73972978167E+01 -0.18808989794E+02  0.59226498834E+02  0.00000000000E+00 0. -1.
         -5    1    3    3    0  503  0.30299216666E+02 -0.10119581964E+03  0.81184805114E+02  0.13331053606E+03  0.47000000000E+01 0.  1.
         11    1    4    4    0    0  0.35816659216E+02 -0.32065954281E+02  0.17293581060E+02  0.51089396622E+02  0.00000000000E+00 0. -1.
        -12    1    4    4    0    0  0.11575426212E+03  0.74533628638E+01  0.15178530108E+03  0.19103240417E+03  0.00000000000E+00 0.  1.
</event>
<event>
12    1  0.8196217E-002  0.3702892E+03  0.7818608E-02  0.1054654E+00
         21   -1    0    0  501  502  0.00000000000E+00  0.00000000000E+00  0.41066550272E+03  0.41066550272E+03  0.00000000000E+00 0.  1.
         21   -1    0    0  502  503 -0.00000000000E+00 -0.00000000000E+00 -0.34043271305E+03  0.34043271305E+03  0.00000000000E+00 0.  1.
         -6    2    1    2    0  503  0.32574931232E+03 -0.31351820161E+02  0.89845616857E+02  0.38103320162E+03  0.17325852004E+03 0.  0.
        -24    2    3    3    0    0  0.14626963519E+03 -0.73637528991E+01 -0.21563166327E+02  0.16837763776E+03  0.80231089473E+02 0.  0.
          6    2    1    2  501    0 -0.32574931232E+03  0.31351820161E+02 -0.19612827186E+02  0.37006501414E+03  0.17166216998E+03 0.  0.
         24    2    5    5    0    0 -0.12394134624E+03 -0.37610386355E+02 -0.36220637364E+02  0.15610204899E+03  0.79245925180E+02 0.  0.
          5    1    5    5  501    0 -0.20180796607E+03  0.68962206517E+02  0.16607810178E+02  0.21396296515E+03  0.47000000000E+01 0. -1.
        -11    1    6    6    0    0 -0.95882784820E+02  0.99426101449E+01 -0.18872660480E+02  0.98226988323E+02  0.00000000000E+00 0.  1.
         12    1    6    6    0    0 -0.28058561421E+02 -0.47552996500E+02 -0.17347976884E+02  0.57875060667E+02  0.00000000000E+00 0. -1.
         -5    1    3    3    0  503  0.17947967712E+03 -0.23988067262E+02  0.11140878318E+03  0.21265556386E+03  0.47000000000E+01 0.  1.
         11    1    4    4    0    0  0.61279996325E+02  0.33786378726E+02 -0.23829192619E+02  0.73922850039E+02  0.00000000000E+00 0. -1.
        -12    1    4    4    0    0  0.84989638868E+02 -0.41150131625E+02  0.22660262914E+01  0.94454787718E+02  0.00000000000E+00 0.  1.
</event>
<event>
12    1  0.8196217E-002  0.1998751E+03  0.7818608E-02  0.1150285E+00
         21   -1    0    0  501  502  0.00000000000E+00  0.00000000000E+00  0.17788213146E+04  0.17788213146E+04  0.00000000000E+00 0. -1.
         21   -1    0    0  502  503 -0.00000000000E+00 -0.00000000000E+00 -0.23139394387E+02  0.23139394387E+02  0.00000000000E+00 0. -1.
         -6    2    1    2    0  503 -0.95611192283E+02 -0.35643063070E+02  0.10524425539E+04  0.10708686025E+04  0.16944706115E+03 0.  0.
        -24    2    3    3    0    0 -0.62901964684E+02 -0.79702689907E+02  0.88986257004E+03  0.89921346730E+03  0.80126713956E+02 0.  0.
          6    2    1    2  501    0  0.95611192283E+02  0.35643063070E+02  0.70323936626E+03  0.73109210643E+03  0.17186661629E+03 0.  0.
         24    2    5    5    0    0  0.12522447982E+03  0.35002815763E+02  0.63072657839E+03  0.65262204131E+03  0.10579765905E+03 0.  0.
          5    1    5    5  501    0 -0.29613287536E+02  0.64024730698E+00  0.72512787866E+02  0.78470065116E+02  0.47000000000E+01 0. -1.
        -11    1    6    6    0    0 -0.13678904236E+01  0.16715935280E+02  0.25829028216E+03  0.25883423938E+03  0.00000000000E+00 0.  1.
         12    1    6    6    0    0  0.12659237024E+03  0.18286880483E+02  0.37243629623E+03  0.39378780194E+03  0.00000000000E+00 0. -1.
         -5    1    3    3    0  503 -0.32709227599E+02  0.44059626838E+02  0.16257998389E+03  0.17165513522E+03  0.47000000000E+01 0.  1.
         11    1    4    4    0    0 -0.67393925306E+02 -0.57667472575E+02  0.44339208004E+03  0.45217697332E+03  0.00000000000E+00 0. -1.
        -12    1    4    4    0    0  0.44919606222E+01 -0.22035217332E+02  0.44647049000E+03  0.44703649398E+03  0.00000000000E+00 0.  1.
</event>
<event>
12    1  0.8196217E-002  0.2170172E+03  0.7818608E-02  0.1136169E+00
         21   -1    0    0  501  502  0.00000000000E+00  0.00000000000E+00  0.47992147640E+02  0.47992147640E+02  0.00000000000E+00 0. -1.
         21   -1    0    0  502  503 -0.00000000000E+00 -0.00000000000E+00 -0.10847785521E+04  0.10847785521E+04  0.00000000000E+00 0.  1.
         -6    2    1    2    0  503  0.46183684420E+02 -0.12335768083E+03 -0.69389978186E+03  0.72697803900E+03  0.17219207823E+03 0.  0.
        -24    2    3    3    0    0 -0.40423681171E+02 -0.55506105268E+02 -0.28992944892E+03  0.30826716982E+03  0.79085781999E+02 0.  0.
          6    2    1    2  501    0 -0.46183684420E+02  0.12335768083E+03 -0.34288662262E+03  0.40579266075E+03  0.17247143944E+03 0.  0.
         24    2    5    5    0    0  0.40780805227E+02  0.48763704178E+02 -0.14869866281E+03  0.18027517241E+03  0.79667261450E+02 0.  0.
          5    1    5    5  501    0 -0.86964489647E+02  0.74593976653E+02 -0.19418795980E+03  0.22551748834E+03  0.47000000000E+01 0. -1.
        -11    1    6    6    0    0  0.34811100808E+02 -0.12171882428E+02 -0.33526361268E+02  0.49839586286E+02  0.00000000000E+00 0.  1.
         12    1    6    6    0    0  0.59697044191E+01  0.60935586606E+02 -0.11517230154E+03  0.13043558613E+03  0.00000000000E+00 0. -1.
         -5    1    3    3    0  503  0.86607365591E+02 -0.67851575563E+02 -0.40397033293E+03  0.41871086918E+03  0.47000000000E+01 0.  1.
         11    1    4    4    0    0 -0.42957493469E+02 -0.47743000491E+02 -0.29268507423E+03  0.29964861592E+03  0.00000000000E+00 0. -1.
        -12    1    4    4    0    0  0.25338122973E+01 -0.77631047771E+01  0.27556253110E+01  0.86185539038E+01  0.00000000000E+00 0.  1.
</event>
<event>
12    1  0.8196217E-002  0.1939713E+03  0.7818608E-02  0.1155002E+00
         21   -1    0    0  503  502  0.00000000000E+00  0.00000000000E+00  0.10261919377E+04  0.10261919377E+04  0.00000000000E+00 0. -1.
         21   -1    0    0  501  503 -0.00000000000E+00 -0.00000000000E+00 -0.38752627619E+02  0.38752627619E+02  0.00000000000E+00 0. -1.
          6    2    1    2  501    0 -0.69824830884E+02 -0.53980864654E+02  0.36783284822E+03  0.41568571737E+03  0.17234897923E+03 0.  0.
         24    2    3    3    0    0  0.27075318942E+02 -0.30604317556E+02  0.18641211811E+03  0.20863095818E+03  0.84307187030E+02 0.  0.
         -6    2    1    2    0  502  0.69824830884E+02  0.53980864654E+02  0.61960646187E+03  0.64925884796E+03  0.17272939327E+03 0.  0.
        -24    2    5    5    0    0  0.46633315986E+02 -0.35880049476E+02  0.35746516119E+03  0.37113480768E+03  0.80608063508E+02 0.  0.
          5    1    3    3  501    0 -0.96900149826E+02 -0.23376547098E+02  0.18142073012E+03  0.20705475920E+03  0.47000000000E+01 0. -1.
        -13    1    4    4    0    0  0.30475359357E+02 -0.58252404467E+02  0.13501478446E+03  0.15017017739E+03  0.00000000000E+00 0.  1.
         14    1    4    4    0    0 -0.34000404151E+01  0.27648086911E+02  0.51397333647E+02  0.58460780791E+02  0.00000000000E+00 0. -1.
         -5    1    5    5    0  502  0.23191514898E+02  0.89860914131E+02  0.26214130069E+03  0.27812404027E+03  0.47000000000E+01 0.  1.
         11    1    6    6    0    0  0.66663770676E+02 -0.17246944194E+02  0.29520240502E+03  0.30312699539E+03  0.00000000000E+00 0. -1.
        -12    1    6    6    0    0 -0.20030454690E+02 -0.18633105282E+02  0.62262756164E+02  0.68007812292E+02  0.00000000000E+00 0.  1.
</event>
<event>
12    1  0.8196217E-002  0.2034069E+03  0.7818608E-02  0.1147233E+00
         21   -1    0    0  501  502  0.00000000000E+00  0.00000000000E+00  0.45127115347E+03  0.45127115347E+03  0.00000000000E+00 0. -1.
         21   -1    0    0  502  503 -0.00000000000E+00 -0.00000000000E+00 -0.10004473192E+03  0.10004473192E+03  0.00000000000E+00 0.  1.
         -6    2    1    2    0  503  0.42682678864E+02  0.96196663992E+02  0.93151531389E+02  0.22372210642E+03  0.17406540110E+03 0.  0.
        -24    2    3    3    0    0 -0.30921014925E+02  0.25745769397E+02  0.31678115864E+01  0.87707430305E+02  0.77869149826E+02 0.  0.
          6    2    1    2  501    0 -0.42682678864E+02 -0.96196663992E+02  0.25807489017E+03  0.32759377897E+03  0.17216104626E+03 0.  0.
         24    2    5    5    0    0 -0.79873132368E+02 -0.81163573878E+02  0.25063467174E+03  0.28652590247E+03  0.79448795526E+02 0.  0.
          5    1    5    5  501    0  0.37190453505E+02 -0.15033090114E+02  0.74402184307E+01  0.41067876504E+02  0.47000000000E+01 0. -1.
        -11    1    6    6    0    0 -0.72117084215E+02 -0.19472621094E+02  0.11248767095E+03  0.13503159972E+03  0.00000000000E+00 0.  1.
         12    1    6    6    0    0 -0.77560481529E+01 -0.61690952784E+02  0.13814700079E+03  0.15149430275E+03  0.00000000000E+00 0. -1.
         -5    1    3    3    0  503  0.73603693788E+02  0.70450894595E+02  0.89983719803E+02  0.13601467611E+03  0.47000000000E+01 0.  1.
         11    1    4    4    0    0 -0.45829012187E+02  0.41740512287E+02  0.13628463037E+02  0.63468919392E+02  0.00000000000E+00 0. -1.
        -12    1    4    4    0    0  0.14907997263E+02 -0.15994742890E+02 -0.10460651451E+02  0.24238510913E+02  0.00000000000E+00 0.  1.
</event>
<event>
12    1  0.8196217E-002  0.2588189E+03  0.7818608E-02  0.1107884E+00
         21   -1    0    0  501  502  0.00000000000E+00  0.00000000000E+00  0.16182880795E+03  0.16182880795E+03  0.00000000000E+00 0.  1.
         21   -1    0    0  502  503 -0.00000000000E+00 -0.00000000000E+00 -0.41441739839E+03  0.41441739839E+03  0.00000000000E+00 0. -1.
         -6    2    1    2    0  503 -0.75920895089E+02  0.17785730477E+03 -0.13891323594E+03  0.29374155310E+03  0.17201746925E+03 0.  0.
        -24    2    3    3    0    0 -0.54052073988E+02  0.62530429731E+02 -0.13383412954E+03  0.17615575139E+03  0.79294345161E+02 0.  0.
          6    2    1    2  501    0  0.75920895089E+02 -0.17785730477E+03 -0.11367535450E+03  0.28250465324E+03  0.17172533218E+03 0.  0.
         24    2    5    5    0    0 -0.25743081686E+02 -0.93123117151E+02 -0.69482726583E+02  0.14289618256E+03  0.79100243326E+02 0.  0.
          5    1    5    5  501    0  0.10166397677E+03 -0.84734187616E+02 -0.44192627918E+02  0.13960847068E+03  0.47000000000E+01 0. -1.
        -13    1    6    6    0    0  0.13883662915E+01  0.10259319719E+02 -0.25124077129E+02  0.27173524865E+02  0.00000000000E+00 0.  1.
         14    1    6    6    0    0 -0.27131447977E+02 -0.10338243687E+03 -0.44358649454E+02  0.11572265769E+03  0.00000000000E+00 0. -1.
         -5    1    3    3    0  503 -0.21868821100E+02  0.11532687504E+03 -0.50791064047E+01  0.11758580171E+03  0.47000000000E+01 0.  1.
         11    1    4    4    0    0 -0.56993710802E+02  0.72247318226E+02 -0.81744025361E+02  0.12308551395E+03  0.00000000000E+00 0. -1.
        -12    1    4    4    0    0  0.29416368135E+01 -0.97168884948E+01 -0.52090104176E+02  0.53070237442E+02  0.00000000000E+00 0.  1.
</event>
<event>
12    1  0.8196217E-002  0.2441835E+03  0.7818608E-02  0.1117830E+00
         21   -1    0    0  501  502  0.00000000000E+00  0.00000000000E+00  0.50030366836E+03  0.50030366836E+03  0.00000000000E+00 0.  1.
         21   -1    0    0  502  503 -0.00000000000E+00 -0.00000000000E+00 -0.22647469807E+03  0.22647469807E+03  0.00000000000E+00 0. -1.
         -6    2    1    2    0  503 -0.14668039733E+03  0.96456655380E+02 -0.11521132994E+03  0.26999858596E+03  0.16972495558E+03 0.  0.
        -24    2    3    3    0    0 -0.12634796086E+03  0.76312757291E+02 -0.15031260196E+03  0.22446427033E+03  0.77478295071E+02 0.  0.
          6    2    1    2  501    0  0.14668039733E+03 -0.96456655380E+02  0.38904030023E+03  0.45677978047E+03  0.16271566400E+03 0.  0.
         24    2    5    5    0    0  0.10859282875E+03 -0.63901913377E+02  0.37554481790E+03  0.40467707275E+03  0.82787474751E+02 0.  0.
          5    1    5    5  501    0  0.38087568586E+02 -0.32554742003E+02  0.13495482337E+02  0.52102707715E+02  0.47000000000E+01 0. -1.
        -13    1    6    6    0    0  0.47154201141E+02 -0.74740873090E+02  0.21878488919E+03  0.23595877719E+03  0.00000000000E+00 0.  1.
         14    1    6    6    0    0  0.61438627607E+02  0.10838959713E+02  0.15675992871E+03  0.16871829556E+03  0.00000000000E+00 0. -1.
         -5    1    3    3    0  503 -0.20332436470E+02  0.20143898089E+02  0.35101272017E+02  0.45534315634E+02  0.47000000000E+01 0.  1.
         13    1    4    4    0    0 -0.65412222327E+02  0.61664888939E+02 -0.41766841340E+02  0.99125104757E+02  0.00000000000E+00 0. -1.
        -14    1    4    4    0    0 -0.60935738537E+02  0.14647868352E+02 -0.10854576061E+03  0.12533916557E+03  0.00000000000E+00 0.  1.
</event>
<event>
12    1  0.8196217E-002  0.2716153E+03  0.7818608E-02  0.1100523E+00
         21   -1    0    0  503  502  0.00000000000E+00  0.00000000000E+00  0.67398338256E+02  0.67398338256E+02  0.00000000000E+00 0.  1.
         21   -1    0    0  501  503 -0.00000000000E+00 -0.00000000000E+00 -0.11149817917E+04  0.11149817917E+04  0.00000000000E+00 0. -1.
          6    2    1    2  501    0 -0.71629826776E+02 -0.19639515752E+03 -0.43631883017E+03  0.51395429053E+03  0.17341568904E+03 0.  0.
         24    2    3    3    0    0 -0.94568808557E+02 -0.19041161657E+03 -0.30356405599E+03  0.37901756567E+03  0.79393549608E+02 0.  0.
         -6    2    1    2    0  502  0.71629826776E+02  0.19639515752E+03 -0.61126462327E+03  0.66842583942E+03  0.17160062113E+03 0.  0.
        -24    2    5    5    0    0  0.35362259922E+02  0.55602827199E+02 -0.39315173309E+03  0.40625578098E+03  0.78315455248E+02 0.  0.
          5    1    3    3  501    0  0.22938981781E+02 -0.59835409508E+01 -0.13275477418E+03  0.13493672486E+03  0.47000000000E+01 0. -1.
        -11    1    4    4    0    0 -0.74413131120E+02 -0.65972320552E+02 -0.11296172061E+03  0.15049920759E+03  0.00000000000E+00 0.  1.
         12    1    4    4    0    0 -0.20155677437E+02 -0.12443929602E+03 -0.19060233538E+03  0.22851835808E+03  0.00000000000E+00 0. -1.
         -5    1    5    5    0  502  0.36267566854E+02  0.14079233032E+03 -0.21811289018E+03  0.26217005845E+03  0.47000000000E+01 0.  1.
         13    1    6    6    0    0  0.18960174281E+02  0.64039987822E+02 -0.17477279116E+03  0.18709926985E+03  0.00000000000E+00 0. -1.
        -14    1    6    6    0    0  0.16402085641E+02 -0.84371606227E+01 -0.21837894193E+03  0.21915651113E+03  0.00000000000E+00 0.  1.
</event>
<event>
12    1  0.8196217E-002  0.2098914E+03  0.7818608E-02  0.1141780E+00
         21   -1    0    0  501  502  0.00000000000E+00  0.00000000000E+00  0.14875268731E+03  0.14875268731E+03  0.00000000000E+00 0. -1.
         21   -1    0    0  502  503 -0.00000000000E+00 -0.00000000000E+00 -0.74994795255E+03  0.74994795255E+03  0.00000000000E+00 0. -1.
         -6    2    1    2    0  503 -0.38133696266E+02  0.11334787258E+03 -0.65067143584E+03  0.68368685159E+03  0.17248905647E+03 0.  0.
        -24    2    3    3    0    0 -0.95629574417E+01  0.92360307931E+01 -0.43416361071E+03  0.44170897851E+03  0.80199915271E+02 0.  0.
          6    2    1    2  501    0  0.38133696266E+02 -0.11334787258E+03  0.49476170606E+02  0.21501378828E+03  0.17170066594E+03 0.  0.
         24    2    5    5    0    0  0.27172857970E+02 -0.13764045641E+03  0.72597564923E+02  0.17941942804E+03  0.85074468986E+02 0.  0.
          5    1    5    5  501    0  0.10960838296E+02  0.24292583837E+02 -0.23121394317E+02  0.35594360238E+02  0.47000000000E+01 0. -1.
        -13    1    6    6    0    0  0.39994987692E+01 -0.73130181675E+01 -0.17439518324E+02  0.19329072003E+02  0.00000000000E+00 0.  1.
         14    1    6    6    0    0  0.23173359201E+02 -0.13032743825E+03  0.90037083246E+02  0.16009035604E+03  0.00000000000E+00 0. -1.
         -5    1    3    3    0  503 -0.28570738824E+02  0.10411184178E+03 -0.21650782513E+03  0.24197787308E+03  0.47000000000E+01 0.  1.
         11    1    4    4    0    0  0.86954437151E+01  0.41946072119E+02 -0.19687976361E+03  0.20148628993E+03  0.00000000000E+00 0. -1.
        -12    1    4    4    0    0 -0.18258401157E+02 -0.32710041326E+02 -0.23728384710E+03  0.24022268858E+03  0.00000000000E+00 0.  1.
</event>
<event>
12    1  0.8196217E-002  0.1909379E+03  0.7818608E-02  0.1157973E+00
         21   -1    0    0  503  502  0.00000000000E+00  0.00000000000E+00  0.88718880660E+02  0.88718880660E+02  0.00000000000E+00 0.  1.
         21   -1    0    0  501  503 -0.00000000000E+00 -0.00000000000E+00 -0.51677710403E+03  0.51677710403E+03  0.00000000000E+00 0.  1.
          6    2    1    2  501    0 -0.61221364177E+02 -0.48127320261E+02 -0.35391922380E+03  0.40213942043E+03  0.17433588872E+03 0.  0.
         24    2    3    3    0    0 -0.60167519604E+02 -0.85523296403E+02 -0.16879069351E+03  0.21321024759E+03  0.77678483632E+02 0.  0.
         -6    2    1    2    0  502  0.61221364177E+02  0.48127320261E+02 -0.74138999562E+02  0.20335656426E+03  0.17260650794E+03 0.  0.
        -24    2    5    5    0    0  0.67119840519E+02  0.93265218678E+02 -0.38437502854E+02  0.14531426276E+03  0.80220442083E+02 0.  0.
          5    1    3    3  501    0 -0.10538445736E+01  0.37395976141E+02 -0.18512853029E+03  0.18892917283E+03  0.47000000000E+01 0. -1.
        -13    1    4    4    0    0  0.10876381192E+02 -0.48888410238E+02 -0.58725923524E+02  0.77182293417E+02  0.00000000000E+00 0.  1.
         14    1    4    4    0    0 -0.71043900796E+02 -0.36634886164E+02 -0.11006476999E+03  0.13602795418E+03  0.00000000000E+00 0. -1.
         -5    1    5    5    0  502 -0.58984763416E+01 -0.45137898417E+02 -0.35701496708E+02  0.58042301504E+02  0.47000000000E+01 0.  1.
         13    1    6    6    0    0  0.36772323861E+02  0.46686977939E+02 -0.61140813179E+02  0.85264745044E+02  0.00000000000E+00 0. -1.
        -14    1    6    6    0    0  0.30347516658E+02  0.46578240739E+02  0.22703310325E+02  0.60049517711E+02  0.00000000000E+00 0.  1.
</event>
<event>
12    1  0.8196217E-002  0.2502668E+03  0.7818608E-02  0.1113212E+00
         21   -1    0    0  501  502  0.00000000000E+00  0.00000000000E+00  0.79256430556E+02  0.79256430556E+02  0.00000000000E+00 0. -1.
         21   -1    0    0  502  503 -0.00000000000E+00 -0.00000000000E+00 -0.10009186465E+04  0.10009186465E+04  0.00000000000E+00 0.  1.
         -6    2    1    2    0  503  0.22211221586E+02 -0.18020222302E+03 -0.21182358124E+03  0.32751022319E+03  0.17154456326E+03 0.  0.
        -24    2    3    3    0    0 -0.23812825454E+01 -0.14902132717E+03 -0.22892950027E+03  0.28401606277E+03  0.77739188060E+02 0.  0.
          6    2    1    2  501    0 -0.22211221586E+02  0.18020222302E+03 -0.70983863473E+03  0.75266485389E+03  0.17224202558E+03 0.  0.
         24    2    5    5    0    0 -0.41248599151E+02  0.22979886117E+02 -0.28354687892E+03  0.29788134931E+03  0.78134138652E+02 0.  0.
          5    1    5    5  501    0  0.19037377565E+02  0.15722233690E+03 -0.42629175581E+03  0.45478350458E+03  0.47000000000E+01 0. -1.
        -11    1    6    6    0    0 -0.29813594364E+02 -0.62618425156E+00 -0.26267053350E+03  0.26435780995E+03  0.00000000000E+00 0.  1.
         12    1    6    6    0    0 -0.11435004787E+02  0.23606070368E+02 -0.20876345423E+02  0.33523539356E+02  0.00000000000E+00 0. -1.
         -5    1    3    3    0  503  0.24592504132E+02 -0.31180895846E+02  0.17105919030E+02  0.43494160425E+02  0.47000000000E+01 0.  1.
         13    1    4    4    0    0  0.30107856834E+02 -0.11540319986E+03 -0.14314691137E+03  0.18632074446E+03  0.00000000000E+00 0. -1.
        -14    1    4    4    0    0 -0.32489139380E+02 -0.33618127306E+02 -0.85782588903E+02  0.97695318312E+02  0.00000000000E+00 0.  1.
</event>
<event>
12    1  0.8196217E-002  0.2754958E+03  0.7818608E-02  0.1098391E+00
         21   -1    0    0  501  502  0.00000000000E+00  0.00000000000E+00  0.52320807029E+03  0.52320807029E+03  0.00000000000E+00 0. -1.
         21   -1    0    0  502  503 -0.00000000000E+00 -0.00000000000E+00 -0.14425013421E+03  0.14425013421E+03  0.00000000000E+00 0.  1.
         -6    2    1    2    0  503  0.13166995240E+03  0.17022782378E+03  0.18877228348E+03  0.33269183486E+03  0.16951222262E+03 0.  0.
        -24    2    3    3    0    0  0.39049786634E+02  0.18562363514E+02  0.98129457609E+02  0.13314455017E+03  0.78921692923E+02 0.  0.
          6    2    1    2  501    0 -0.13166995240E+03 -0.17022782378E+03  0.19018565260E+03  0.33476636964E+03  0.17199840532E+03 0.  0.
         24    2    5    5    0    0 -0.96828508463E+02 -0.36687365874E+02  0.12636598024E+03  0.18264135298E+03  0.81656475495E+02 0.  0.
          5    1    5    5  501    0 -0.34841443939E+02 -0.13354045791E+03  0.63819672359E+02  0.15212501666E+03  0.47000000000E+01 0. -1.
        -11    1    6    6    0    0 -0.65126130114E+02 -0.10526522295E+02  0.20510758479E+02  0.69086262807E+02  0.00000000000E+00 0.  1.
         12    1    6    6    0    0 -0.31702378349E+02 -0.26160843579E+02  0.10585522177E+03  0.11355509018E+03  0.00000000000E+00 0. -1.
         -5    1    3    3    0  503  0.92620165768E+02  0.15166546027E+03  0.90642825870E+02  0.19954728469E+03  0.47000000000E+01 0.  1.
         11    1    4    4    0    0  0.12487427278E+02  0.16260252768E+02 -0.92590254961E+01  0.22495804347E+02  0.00000000000E+00 0. -1.
        -12    1    4    4    0    0  0.26562359356E+02  0.23021107467E+01  0.10738848311E+03  0.11064874582E+03  0.00000000000E+00 0.  1.
</event>
<event>
12    1  0.8196217E-002  0.2194925E+03  0.7818608E-02  0.1134290E+00
         21   -1    0    0  503  502  0.00000000000E+00  0.00000000000E+00  0.20059249861E+03  0.20059249861E+03  0.00000000000E+00 0. -1.
         21   -1    0    0  501  503 -0.00000000000E+00 -0.00000000000E+00 -0.28811272952E+03  0.28811272952E+03  0.00000000000E+00 0.  1.
          6    2    1    2  501    0  0.12242616730E+03 -0.58881474516E+02 -0.14361970382E+03  0.26230437815E+03  0.17240003768E+03 0.  0.
         24    2    3    3    0    0  0.12342947541E+03  0.12528273590E+02 -0.10246157468E+03  0.17974264158E+03  0.80107739192E+02 0.  0.
         -6    2    1    2    0  502 -0.12242616730E+03  0.58881474516E+02  0.56099472903E+02  0.22640084998E+03  0.17220627030E+03 0.  0.
        -24    2    5    5    0    0 -0.10738514803E+03  0.81924137132E+02 -0.64753086724E+01  0.15788158371E+03  0.81495586318E+02 0.  0.
          5    1    3    3  501    0 -0.10033081041E+01 -0.71409748106E+02 -0.41158129140E+02  0.82561736574E+02  0.47000000000E+01 0. -1.
        -13    1    4    4    0    0  0.93854102945E+02 -0.20632351180E+02 -0.42404582474E+02  0.10503539960E+03  0.00000000000E+00 0.  1.
         14    1    4    4    0    0  0.29575372462E+02  0.33160624770E+02 -0.60056992204E+02  0.74707241978E+02  0.00000000000E+00 0. -1.
         -5    1    5    5    0  502 -0.15041019276E+02 -0.23042662617E+02  0.62574781576E+02  0.68519266273E+02  0.47000000000E+01 0.  1.
         13    1    6    6    0    0 -0.41522790275E+02 -0.11070858572E+02  0.53888036805E+01  0.43309874473E+02  0.00000000000E+00 0. -1.
        -14    1    6    6    0    0 -0.65862357751E+02  0.92994995704E+02 -0.11864112353E+02  0.11457170923E+03  0.00000000000E+00 0.  1.
</event>
<event>
12    1  0.8196217E-002  0.1757374E+03  0.7818608E-02  0.1173677E+00
         21   -1    0    0  503  502  0.00000000000E+00  0.00000000000E+00  0.16838670643E+04  0.16838670643E+04  0.00000000000E+00 0. -1.
         21   -1    0    0  501  503 -0.00000000000E+00 -0.00000000000E+00 -0.21362557597E+02  0.21362557597E+02  0.00000000000E+00 0. -1.
          6    2    1    2  501    0 -0.31904603867E+02  0.25565505037E+02  0.46309265833E+03  0.49301164980E+03  0.16411635459E+03 0.  0.
         24    2    3    3    0    0 -0.82496588782E+02  0.22694544122E+02  0.32677969383E+03  0.34750870947E+03  0.81588022182E+02 0.  0.
         -6    2    1    2    0  502  0.31904603867E+02 -0.25565505037E+02  0.11994118483E+04  0.12122179721E+04  0.17091556706E+03 0.  0.
        -24    2    5    5    0    0 -0.42737432750E+01  0.46676613182E+02  0.75567327799E+03  0.76115943344E+03  0.78259880865E+02 0.  0.
          5    1    3    3  501    0  0.50591984915E+02  0.28709609146E+01  0.13631296450E+03  0.14550294033E+03  0.47000000000E+01 0. -1.
        -13    1    4    4    0    0 -0.10937356080E+02  0.42183953707E+02  0.13641810704E+03  0.14320967718E+03  0.00000000000E+00 0.  1.
         14    1    4    4    0    0 -0.71559232702E+02 -0.19489409584E+02  0.19036158679E+03  0.20429903229E+03  0.00000000000E+00 0. -1.
         -5    1    5    5    0  502  0.36178347142E+02 -0.72242118218E+02  0.44373857036E+03  0.45105853863E+03  0.47000000000E+01 0.  1.
         11    1    6    6    0    0 -0.33916646818E+02  0.44240357334E+02  0.35146934435E+03  0.35586268161E+03  0.00000000000E+00 0. -1.
        -12    1    6    6    0    0  0.29642903543E+02  0.24362558471E+01  0.40420393364E+03  0.40529675183E+03  0.00000000000E+00 0.  1.
</event>
<event>
12    1  0.8196217E-002  0.2772586E+03  0.7818608E-02  0.1097365E+00
         21   -1    0    0  503  502  0.00000000000E+00  0.00000000000E+00  0.39252497253E+03  0.39252497253E+03  0.00000000000E+00 0.  1.
         21   -1    0    0  501  503 -0.00000000000E+00 -0.00000000000E+00 -0.15375524560E+04  0.15375524560E+04  0.00000000000E+00 0.  1.
          6    2    1    2  501    0 -0.94794121115E+02  0.19235127114E+03 -0.14744501751E+04  0.15002918627E+04  0.17574816503E+03 0.  0.
         24    2    3    3    0    0 -0.54745735315E+02  0.30745563227E+02 -0.75716595735E+03  0.76392305763E+03  0.79597523970E+02 0.  0.
         -6    2    1    2    0  502  0.94794121115E+02 -0.19235127114E+03  0.32942269157E+03  0.42978556589E+03  0.17381422847E+03 0.  0.
        -24    2    5    5    0    0  0.99507077843E+02 -0.12459196904E+03  0.14561932940E+03  0.23377714534E+03  0.89565324184E+02 0.  0.
          5    1    3    3  501    0 -0.40048385800E+02  0.16160570791E+03 -0.71728421771E+03  0.73636880502E+03  0.47000000000E+01 0. -1.
        -13    1    4    4    0    0  0.15468594488E+02  0.19732130587E+02 -0.10770592443E+03  0.11058571585E+03  0.00000000000E+00 0.  1.
         14    1    4    4    0    0 -0.70214329803E+02  0.11013432639E+02 -0.64946003292E+03  0.65333734178E+03  0.00000000000E+00 0. -1.
         -5    1    5    5    0  502 -0.47129567279E+01 -0.67759302092E+02  0.18380336217E+03  0.19600842055E+03  0.47000000000E+01 0.  1.
         13    1    6    6    0    0  0.88988735670E+02 -0.61648145449E+02  0.12786288522E+03  0.16753628362E+03  0.00000000000E+00 0. -1.
        -14    1    6    6    0    0  0.10518342173E+02 -0.62943823595E+02  0.17756444181E+02  0.66240861715E+02  0.00000000000E+00 0.  1.
</event>
<event>
12    1  0.8196217E-002  0.4449693E+03  0.7818608E-02  0.1029261E+00
         21   -1    0    0  503  502  0.00000000000E+00  0.00000000000E+00  0.79311936547E+03  0.79311936547E+03  0.00000000000E+00 0. -1.
         21   -1    0    0  501  503 -0.00000000000E+00 -0.00000000000E+00 -0.27790068424E+03  0.27790068424E+03  0.00000000000E+00 0.  1.
          6    2    1    2  501    0 -0.40856318762E+03 -0.34954016983E+02  0.42907963943E+03  0.61814808607E+03  0.17277748046E+03 0.  0.
         24    2    3    3    0    0 -0.28706194828E+03  0.10725479813E+02  0.21469363287E+03  0.36748373400E+03  0.80195640106E+02 0.  0.
         -6    2    1    2    0  502  0.40856318762E+03  0.34954016983E+02  0.86139041799E+02  0.45287196365E+03  0.17183544267E+03 0.  0.
        -24    2    5    5    0    0  0.25542089351E+03 -0.28708187162E+02  0.98571612178E+02  0.28649258605E+03  0.79357710945E+02 0.  0.
          5    1    3    3  501    0 -0.12150123934E+03 -0.45679496796E+02  0.21438600656E+03  0.25066435206E+03  0.47000000000E+01 0. -1.
        -11    1    4    4    0    0 -0.20036057982E+03 -0.17770101513E+02  0.11249832151E+03  0.23046911029E+03  0.00000000000E+00 0.  1.
         12    1    4    4    0    0 -0.86701368463E+02  0.28495581326E+02  0.10219531135E+03  0.13701462371E+03  0.00000000000E+00 0. -1.
         -5    1    5    5    0  502  0.15314229411E+03  0.63662204145E+02 -0.12432570379E+02  0.16637937760E+03  0.47000000000E+01 0.  1.
         11    1    6    6    0    0  0.17166803086E+02  0.23804190598E+01  0.33253279630E+02  0.37498615031E+02  0.00000000000E+00 0. -1.
        -12    1    6    6    0    0  0.23825409042E+03 -0.31088606221E+02  0.65318332548E+02  0.24899397102E+03  0.00000000000E+00 0.  1.
</event>
<event>
12    1  0.8196217E-002  0.2705519E+03  0.7818608E-02  0.1100965E+00
         21   -1    0    0  501  502  0.00000000000E+00  0.00000000000E+00  0.95831121939E+02  0.95831121939E+02  0.00000000000E+00 0.  1.
         21   -1    0    0  502  503 -0.00000000000E+00 -0.00000000000E+00 -0.10883317855E+04  0.10883317855E+04  0.00000000000E+00 0. -1.
         -6    2    1    2    0  503 -0.18767321921E+03  0.91663066865E+02 -0.81955794925E+03  0.86305928933E+03  0.17196729246E+03 0.  0.
        -24    2    3    3    0    0 -0.71678262080E+02  0.10986077843E+03 -0.47573750673E+03  0.49971293462E+03  0.78610926860E+02 0.  0.
          6    2    1    2  501    0  0.18767321921E+03 -0.91663066865E+02 -0.17294271428E+03  0.32110361808E+03  0.17197382383E+03 0.  0.
         24    2    5    5    0    0  0.13565329699E+03 -0.73491645536E+02 -0.19542181150E+03  0.26140711338E+03  0.79631372997E+02 0.  0.
          5    1    5    5  501    0  0.52019922225E+02 -0.18171421328E+02  0.22479097226E+02  0.59696504701E+02  0.47000000000E+01 0. -1.
        -13    1    6    6    0    0  0.28756487968E+02 -0.31492081219E+02 -0.10826395369E+02  0.43998836535E+02  0.00000000000E+00 0.  1.
         14    1    6    6    0    0  0.10689680902E+03 -0.41999564317E+02 -0.18459541613E+03  0.21740827684E+03  0.00000000000E+00 0. -1.
         -5    1    3    3    0  503 -0.11599495713E+03 -0.18197711561E+02 -0.34382044251E+03  0.36334635471E+03  0.47000000000E+01 0.  1.
         11    1    4    4    0    0 -0.85375118191E+02  0.10985279293E+03 -0.43807982416E+03  0.45964168573E+03  0.00000000000E+00 0. -1.
        -12    1    4    4    0    0  0.13696856111E+02  0.79854951156E-02 -0.37657682574E+02  0.40071248894E+02  0.00000000000E+00 0.  1.
</event>
<event>
12    1  0.8196217E-002  0.4035037E+03  0.7818608E-02  0.1042617E+00
         21   -1    0    0  503  502  0.00000000000E+00  0.00000000000E+00  0.28323565376E+03  0.28323565376E+03  0.00000000000E+00 0.  1.
         21   -1    0    0  501  503 -0.00000000000E+00 -0.00000000000E+00 -0.57652792772E+03  0.57652792772E+03  0.00000000000E+00 0.  1.
          6    2    1    2  501    0  0.21698713422E+03 -0.29274154746E+03 -0.11895090345E+03  0.42067158565E+03  0.17330388200E+03 0.  0.
         24    2    3    3    0    0  0.23423763272E+03 -0.23734795928E+03 -0.11730086709E+03  0.36244064946E+03  0.80015052364E+02 0.  0.
         -6    2    1    2    0  502 -0.21698713422E+03  0.29274154746E+03 -0.17434137052E+03  0.43909199583E+03  0.17212157711E+03 0.  0.
        -24    2    5    5    0    0 -0.23972365148E+02  0.79839730580E+02 -0.33097774536E+02  0.11885188574E+03  0.77982377459E+02 0.  0.
          5    1    3    3  501    0 -0.17250498498E+02 -0.55393588176E+02 -0.16500363588E+01  0.58230936189E+02  0.47000000000E+01 0. -1.
        -11    1    4    4    0    0  0.14807757233E+03 -0.17236304311E+03 -0.42611656853E+02  0.23119632211E+03  0.00000000000E+00 0.  1.
         12    1    4    4    0    0  0.86160060390E+02 -0.64984916168E+02 -0.74689210235E+02  0.13124432735E+03  0.00000000000E+00 0. -1.
         -5    1    5    5    0  502 -0.19301476907E+03  0.21290181688E+03 -0.14124359598E+03  0.32024011010E+03  0.47000000000E+01 0.  1.
         11    1    6    6    0    0 -0.27795091633E+01 -0.15483557673E+02 -0.95469147817E+01  0.18401353517E+02  0.00000000000E+00 0. -1.
        -12    1    6    6    0    0 -0.21192855985E+02  0.95323288254E+02 -0.23550859754E+02  0.10045053222E+03  0.00000000000E+00 0.  1.
</event>
<event>
12    1  0.8196217E-002  0.2048692E+03  0.7818608E-02  0.1145701E+00
         21   -1    0    0  501  502  0.00000000000E+00  0.00000000000E+00  0.51612447520E+03  0.51612447520E+03  0.00000000000E+00 0. -1.
         21   -1    0    0  502  503 -0.00000000000E+00 -0.00000000000E+00 -0.98299625946E+02  0.98299625946E+02  0.00000000000E+00 0.  1.
         -6    2    1    2    0  503 -0.51705540234E+02  0.98445830462E+02  0.81197641039E+02  0.22037341257E+03  0.17206492853E+03 0.  0.
        -24    2    3    3    0    0 -0.69201619524E+02  0.10000172964E+02  0.13537726234E+02  0.10755186679E+03  0.80593215681E+02 0.  0.
          6    2    1    2  501    0  0.51705540234E+02 -0.98445830462E+02  0.33662720822E+03  0.39405068858E+03  0.17202622891E+03 0.  0.
         24    2    5    5    0    0  0.43726068421E+02 -0.74715350455E+01  0.25717342738E+03  0.27291032501E+03  0.79837840964E+02 0.  0.
          5    1    5    5  501    0  0.79794718129E+01 -0.90974295417E+02  0.79453780833E+02  0.12114036357E+03  0.47000000000E+01 0. -1.
        -11    1    6    6    0    0 -0.14648398121E+02  0.77489672742E+01  0.14135065339E+03  0.14231875940E+03  0.00000000000E+00 0.  1.
         12    1    6    6    0    0  0.58374466542E+02 -0.15220502320E+02  0.11582277399E+03  0.13059156561E+03  0.00000000000E+00 0. -1.
         -5    1    3    3    0  503  0.17496079291E+02  0.88445657498E+02  0.67659914805E+02  0.11282154578E+03  0.47000000000E+01 0.  1.
         13    1    4    4    0    0 -0.51679714541E+01  0.19010705623E+02  0.34368918815E+02  0.39614863848E+02  0.00000000000E+00 0. -1.
        -14    1    4    4    0    0 -0.64033648070E+02 -0.90105326587E+01 -0.20831192581E+02  0.67937002939E+02  0.00000000000E+00 0.  1.
</event>
<event>
12    1  0.8196217E-002  0.1833405E+03  0.7818608E-02  0.1164785E+00
         21   -1    0    0  501  502  0.00000000000E+00  0.00000000000E+00  0.10676632208E+03  0.10676632208E+03  0.00000000000E+00 0.  1.
         21   -1    0    0  502  503 -0.00000000000E+00 -0.00000000000E+00 -0.42951730744E+03  0.42951730744E+03  0.00000000000E+00 0.  1.
         -6    2    1    2    0  503  0.36494062769E+02 -0.53883951971E+02 -0.30045984062E+03  0.35159302920E+03  0.17060552589E+03 0.  0.
        -24    2    3    3    0    0  0.59460912667E+02 -0.42018045793E+02 -0.94397613021E+02  0.14386241623E+03  0.80525580732E+02 0.  0.
          6    2    1    2  501    0 -0.36494062769E+02  0.53883951971E+02 -0.22291144745E+02  0.18469060032E+03  0.17140135885E+03 0.  0.
         24    2    5    5    0    0  0.33166847167E+02  0.54055272007E+02 -0.40859876528E+02  0.11244408121E+03  0.83379432155E+02 0.  0.
          5    1    5    5  501    0 -0.69660909935E+02 -0.17132003534E+00  0.18568731784E+02  0.72246519111E+02  0.47000000000E+01 0. -1.
        -11    1    6    6    0    0  0.25316890611E+02  0.27112272379E+02  0.22333950350E+02  0.43299256368E+02  0.00000000000E+00 0.  1.
         12    1    6    6    0    0  0.78499565561E+01  0.26942999627E+02 -0.63193826878E+02  0.69144824842E+02  0.00000000000E+00 0. -1.
         -5    1    3    3    0  503 -0.22966849899E+02 -0.11865906178E+02 -0.20606222760E+03  0.20773061297E+03  0.47000000000E+01 0.  1.
         11    1    4    4    0    0  0.80621283050E+01  0.23755571057E+02 -0.21752857967E+02  0.33204094608E+02  0.00000000000E+00 0. -1.
        -12    1    4    4    0    0  0.51398784362E+02 -0.65773616850E+02 -0.72644755055E+02  0.11065832162E+03  0.00000000000E+00 0.  1.
</event>
<event>
12    1  0.8196217E-002  0.2151636E+03  0.7818608E-02  0.1139153E+00
         21   -1    0    0  501  502  0.00000000000E+00  0.00000000000E+00  0.28343878777E+03  0.28343878777E+03  0.00000000000E+00 0.  1.
         21   -1    0    0  502  503 -0.00000000000E+00 -0.00000000000E+00 -0.21552084416E+03  0.21552084416E+03  0.00000000000E+00 0. -1.
         -6    2    1    2    0  503  0.11316633300E+02  0.12795697054E+03 -0.95379361573E+02  0.23535634362E+03  0.17261035128E+03 0.  0.
        -24    2    3    3    0    0 -0.27952632701E+02  0.58232538374E+02 -0.11288582424E+03  0.15330673711E+03  0.81162603031E+02 0.  0.
          6    2    1    2  501    0 -0.11316633300E+02 -0.12795697054E+03  0.16329730518E+03  0.26360328830E+03  0.16223326177E+03 0.  0.
         24    2    5    5    0    0  0.98650346570E+01 -0.14258796137E+03  0.92466627889E+02  0.18809299896E+03  0.80001583415E+02 0.  0.
          5    1    5    5  501    0 -0.21181667957E+02  0.14630990828E+02  0.70830677293E+02  0.75510289338E+02  0.47000000000E+01 0. -1.
        -11    1    6    6    0    0 -0.24849257095E+02 -0.11237147652E+02  0.22033916466E+02  0.35060697945E+02  0.00000000000E+00 0.  1.
         12    1    6    6    0    0  0.34714291752E+02 -0.13135081372E+03  0.70432711423E+02  0.15303230102E+03  0.00000000000E+00 0. -1.
         -5    1    3    3    0  503  0.39269266001E+02  0.69724432170E+02  0.17506462662E+02  0.82049606511E+02  0.47000000000E+01 0.  1.
         13    1    4    4    0    0 -0.28458334847E+02  0.66759048069E+02 -0.46097772736E+02  0.85974717054E+02  0.00000000000E+00 0. -1.
        -14    1    4    4    0    0  0.50570214693E+00 -0.85265096942E+01 -0.66788051499E+02  0.67332020059E+02  0.00000000000E+00 0.  1.
</event>
<event>
12    1  0.8196217E-002  0.1903690E+03  0.7818608E-02  0.1158401E+00
         21   -1    0    0  501  502  0.00000000000E+00  0.00000000000E+00  0.13629107812E+03  0.13629107812E+03  0.00000000000E+00 0. -1.
         21   -1    0    0  502  503 -0.00000000000E+00 -0.00000000000E+00 -0.29491592311E+03  0.29491592311E+03  0.00000000000E+00 0.  1.
         -6    2    1    2    0  503 -0.30547039074E+02 -0.72677685327E+02 -0.14909550722E+03  0.24180537122E+03  0.17327781086E+03 0.  0.
        -24    2    3    3    0    0 -0.44453115981E+02  0.18490716279E+02 -0.10398322096E+03  0.13903249154E+03  0.78737140876E+02 0.  0.
          6    2    1    2  501    0  0.30547039074E+02  0.72677685327E+02 -0.95293377717E+01  0.18940163001E+03  0.17195057904E+03 0.  0.
         24    2    5    5    0    0  0.56014765590E+02  0.87678098181E+01  0.36175441258E+02  0.10667258972E+03  0.82800062765E+02 0.  0.
          5    1    5    5  501    0 -0.25467726515E+02  0.63909875509E+02 -0.45704779029E+02  0.82729040291E+02  0.47000000000E+01 0. -1.
        -11    1    6    6    0    0 -0.10247354999E+02 -0.18288729382E+02 -0.81422027687E+01  0.22489583651E+02  0.00000000000E+00 0.  1.
         12    1    6    6    0    0  0.66262120589E+02  0.27056539200E+02  0.44317644026E+02  0.84183006067E+02  0.00000000000E+00 0. -1.
         -5    1    3    3    0  503  0.13906076906E+02 -0.91168401605E+02 -0.45112286260E+02  0.10277287968E+03  0.47000000000E+01 0.  1.
         11    1    4    4    0    0 -0.51679033904E+02  0.96675130992E+01 -0.23231530546E+02  0.57479451687E+02  0.00000000000E+00 0. -1.
        -12    1    4    4    0    0  0.72259179230E+01  0.88232031793E+01 -0.80751690417E+02  0.81553039854E+02  0.00000000000E+00 0.  1.
</event>
<event>
12    1  0.8196217E-002  0.2572537E+03  0.7818608E-02  0.1108975E+00
         21   -1    0    0  503  502  0.00000000000E+00  0.00000000000E+00  0.60469535690E+03  0.60469535690E+03  0.00000000000E+00 0.  1.
         21   -1    0    0  501  503 -0.00000000000E+00 -0.00000000000E+00 -0.12018484200E+03  0.12018484200E+03  0.00000000000E+00 0. -1.
          6    2    1    2  501    0  0.12980632675E+03  0.13850524329E+03  0.13200896699E+03  0.28914670026E+03  0.17362621351E+03 0.  0.
         24    2    3    3    0    0  0.61150528573E+02  0.14656742730E+03  0.56687582801E+02  0.18680404858E+03  0.80379553581E+02 0.  0.
         -6    2    1    2    0  502 -0.12980632675E+03 -0.13850524329E+03  0.35250154791E+03  0.43573349864E+03  0.17196789142E+03 0.  0.
        -24    2    5    5    0    0 -0.12532425421E+03 -0.11307123534E+03  0.17559292774E+03  0.25688795740E+03  0.81653373653E+02 0.  0.
          5    1    3    3  501    0  0.68655798182E+02 -0.80621840036E+01  0.75321384191E+02  0.10234265167E+03  0.47000000000E+01 0. -1.
        -13    1    4    4    0    0  0.78450075248E+02  0.93544364302E+02  0.42275919243E+02  0.12919835814E+03  0.00000000000E+00 0.  1.
         14    1    4    4    0    0 -0.17299546674E+02  0.53023062997E+02  0.14411663557E+02  0.57605690441E+02  0.00000000000E+00 0. -1.
         -5    1    5    5    0  502 -0.44820725484E+01 -0.25434007954E+02  0.17690862017E+03  0.17884554125E+03  0.47000000000E+01 0.  1.
         13    1    6    6    0    0 -0.52481332083E+02 -0.54402127405E+02  0.13543128797E+03  0.15509840568E+03  0.00000000000E+00 0. -1.
        -14    1    6    6    0    0 -0.72842922123E+02 -0.58669107936E+02  0.40161639770E+02  0.10178955172E+03  0.00000000000E+00 0.  1.
</event>
<event>
12    1  0.8196217E-002  0.2413651E+03  0.7818608E-02  0.1118955E+00
         21   -1    0    0  503  502  0.00000000000E+00  0.00000000000E+00  0.12745896653E+04  0.12745896653E+04  0.00000000000E+00 0. -1.
         21   -1    0    0  501  503 -0.00000000000E+00 -0.00000000000E+00 -0.47504216745E+02  0.47504216745E+02  0.00000000000E+00 0.  1.
          6    2    1    2  501    0 -0.16609471488E+03  0.33098269956E+02  0.48267877997E+03  0.53966279748E+03  0.17197145274E+03 0.  0.
         24    2    3    3    0    0 -0.87504617407E+02  0.83016023876E+02  0.33247759208E+03  0.36288420029E+03  0.81208837565E+02 0.  0.
         -6    2    1    2    0  502  0.16609471488E+03 -0.33098269956E+02  0.74440666856E+03  0.78243108455E+03  0.17138892637E+03 0.  0.
        -24    2    5    5    0    0  0.42416377901E+02 -0.27218988347E+02  0.48969773928E+03  0.49918273831E+03  0.82701317582E+02 0.  0.
          5    1    3    3  501    0 -0.78590097476E+02 -0.49917753920E+02  0.15020118789E+03  0.17677859718E+03  0.47000000000E+01 0. -1.
        -13    1    4    4    0    0 -0.29371061565E+02  0.81887865056E+01  0.20269972994E+02  0.36614031287E+02  0.00000000000E+00 0.  1.
         14    1    4    4    0    0 -0.58133555842E+02  0.74827237370E+02  0.31220761909E+03  0.32627016901E+03  0.00000000000E+00 0. -1.
         -5    1    5    5    0  502  0.12367833698E+03 -0.58792816085E+01  0.25470892928E+03  0.28324834624E+03  0.47000000000E+01 0.  1.
         13    1    6    6    0    0  0.53156249622E+02 -0.14682784605E+01  0.43013018757E+03  0.43340480036E+03  0.00000000000E+00 0. -1.
        -14    1    6    6    0    0 -0.10739871721E+02 -0.25750709887E+02  0.59567551706E+02  0.65777937947E+02  0.00000000000E+00 0.  1.
</event>
<event>
12    1  0.8196217E-002  0.2427512E+03  0.7818608E-02  0.1118032E+00
         21   -1    0    0  503  502  0.00000000000E+00  0.00000000000E+00  0.36208553050E+03  0.36208553050E+03  0.00000000000E+00 0. -1.
         21   -1    0    0  501  503 -0.00000000000E+00 -0.00000000000E+00 -0.18308335626E+03  0.18308335626E+03  0.00000000000E+00 0. -1.
          6    2    1    2  501    0  0.16103809835E+03  0.51659472563E+02 -0.19373631416E+01  0.24240285358E+03  0.17364740085E+03 0.  0.
         24    2    3    3    0    0  0.84105883035E+02 -0.12841577912E+02 -0.55997265840E+02  0.12828224043E+03  0.77986753640E+02 0.  0.
         -6    2    1    2    0  502 -0.16103809835E+03 -0.51659472563E+02  0.18093953739E+03  0.30276603318E+03  0.17414414844E+03 0.  0.
        -24    2    5    5    0    0 -0.18564255876E+03 -0.22133780183E+02  0.14821977855E+03  0.25207265490E+03  0.81353898175E+02 0.  0.
          5    1    3    3  501    0  0.76932215314E+02  0.64501050475E+02  0.54059902699E+02  0.11412061315E+03  0.47000000000E+01 0. -1.
        -13    1    4    4    0    0 -0.87873459998E+01  0.12216522670E+02  0.31051691127E+01  0.15365641903E+02  0.00000000000E+00 0.  1.
         14    1    4    4    0    0  0.92893229035E+02 -0.25058100582E+02 -0.59102434953E+02  0.11291659853E+03  0.00000000000E+00 0. -1.
         -5    1    5    5    0  502  0.24604460416E+02 -0.29525692380E+02  0.32719758839E+02  0.50693378279E+02  0.47000000000E+01 0.  1.
         11    1    6    6    0    0 -0.14902264799E+03 -0.18731365705E+02  0.70141659407E+02  0.16576629953E+03  0.00000000000E+00 0. -1.
        -12    1    6    6    0    0 -0.36619910771E+02 -0.34024144778E+01  0.78078119141E+02  0.86306355372E+02  0.00000000000E+00 0.  1.
</event>
<event>
12    1  0.8196217E-002  0.2475161E+03  0.7818608E-02  0.1114967E+00
         21   -1    0    0  503  502  0.00000000000E+00  0.00000000000E+00  0.19819170546E+03  0.19819170546E+03  0.00000000000E+00 0. -1.
         21   -1    0    0  501  503 -0.00000000000E+00 -0.00000000000E+00 -0.40161109468E+03  0.40161109468E+03  0.00000000000E+00 0. -1.
          6    2    1    2  501    0 -0.14479138489E+03 -0.10305112453E+03 -0.24604872231E+03  0.34864249176E+03  0.17154455371E+03 0.  0.
         24    2    3    3    0    0 -0.51007016371E+02 -0.94498491048E+02 -0.72964615239E+02  0.15154136686E+03  0.78161821014E+02 0.  0.
         -6    2    1    2    0  502  0.14479138489E+03  0.10305112453E+03  0.42629333090E+02  0.25116030838E+03  0.17227931118E+03 0.  0.
        -24    2    5    5    0    0  0.97755374864E+02  0.65862576378E+02 -0.40140643675E+02  0.14884543455E+03  0.81545691675E+02 0.  0.
          5    1    3    3  501    0 -0.93784368518E+02 -0.85526334827E+01 -0.17308410707E+03  0.19710112490E+03  0.47000000000E+01 0. -1.
        -11    1    4    4    0    0  0.45346828992E+01 -0.21588960669E+02 -0.53461557984E+02  0.57834114100E+02  0.00000000000E+00 0.  1.
         12    1    4    4    0    0 -0.55541699271E+02 -0.72909530379E+02 -0.19503057256E+02  0.93707252763E+02  0.00000000000E+00 0. -1.
         -5    1    5    5    0  502  0.47036010025E+02  0.37188548153E+02  0.82769976766E+02  0.10231487383E+03  0.47000000000E+01 0.  1.
         13    1    6    6    0    0  0.56312444320E+02  0.25892742041E+01  0.11141292477E+02  0.57462371377E+02  0.00000000000E+00 0. -1.
        -14    1    6    6    0    0  0.41442930545E+02  0.63273302173E+02 -0.51281936153E+02  0.91383063177E+02  0.00000000000E+00 0.  1.
</event>
<event>
12    1  0.8196217E-002  0.1947697E+03  0.7818608E-02  0.1154565E+00
         21   -1    0    0  503  502  0.00000000000E+00  0.00000000000E+00  0.50658655724E+03  0.50658655724E+03  0.00000000000E+00 0.  1.
         21   -1    0    0  501  503 -0.00000000000E+00 -0.00000000000E+00 -0.17286626845E+03  0.17286626845E+03  0.00000000000E+00 0. -1.
          6    2    1    2  501    0  0.28719249884E+02 -0.84960750989E+02 -0.89391974530E+02  0.21430392894E+03  0.17289339006E+03 0.  0.
         24    2    3    3    0    0  0.48506508866E+02  0.11447320171E+02 -0.64042051701E+02  0.11256524215E+03  0.78010427587E+02 0.  0.
         -6    2    1    2    0  502 -0.28719249884E+02  0.84960750989E+02  0.42311226332E+03  0.46514889675E+03  0.17116186566E+03 0.  0.
        -24    2    5    5    0    0 -0.20213482396E+02 -0.16819855236E+02  0.26143510870E+03  0.27385532078E+03  0.77181139242E+02 0.  0.
          5    1    3    3  501    0 -0.19787258981E+02 -0.96408071160E+02 -0.25349922829E+02  0.10173868679E+03  0.47000000000E+01 0. -1.
        -11    1    4    4    0    0  0.19477244892E+02 -0.23701415142E+02  0.37135021872E+01  0.30901622074E+02  0.00000000000E+00 0.  1.
         12    1    4    4    0    0  0.29029263973E+02  0.35148735313E+02 -0.67755553888E+02  0.81663620074E+02  0.00000000000E+00 0. -1.
         -5    1    5    5    0  502 -0.85057674885E+01  0.10178060622E+03  0.16167715462E+03  0.19129357597E+03  0.47000000000E+01 0.  1.
         13    1    6    6    0    0 -0.20807191239E+02  0.26418590618E+02  0.70846280976E+02  0.78422424508E+02  0.00000000000E+00 0. -1.
        -14    1    6    6    0    0  0.59370884350E+00 -0.43238445854E+02  0.19058882773E+03  0.19543289627E+03  0.00000000000E+00 0.  1.
</event>
<event>
12    1  0.8196217E-002  0.2296836E+03  0.7818608E-02  0.1127076E+00
         21   -1    0    0  503  502  0.00000000000E+00  0.00000000000E+00  0.93037139845E+02  0.93037139845E+02  0.00000000000E+00 0. -1.
         21   -1    0    0  501  503 -0.00000000000E+00 -0.00000000000E+00 -0.56716125325E+03  0.56716125325E+03  0.00000000000E+00 0. -1.
          6    2    1    2  501    0  0.72679174547E+02  0.13390011982E+03 -0.21200956480E+03  0.31168930141E+03  0.17026643988E+03 0.  0.
         24    2    3    3    0    0 -0.17597491590E+02  0.31269722683E+02 -0.11314729459E+03  0.14293292869E+03  0.79624396786E+02 0.  0.
         -6    2    1    2    0  502 -0.72679174547E+02 -0.13390011982E+03 -0.26211454860E+03  0.34850909168E+03  0.17188090613E+03 0.  0.
        -24    2    5    5    0    0 -0.33759584980E+01 -0.12585216215E+03 -0.21875025163E+03  0.26622751640E+03  0.84706871559E+02 0.  0.
          5    1    3    3  501    0  0.90276666137E+02  0.10263039713E+03 -0.98862270202E+02  0.16875637272E+03  0.47000000000E+01 0. -1.
        -13    1    4    4    0    0 -0.19873223844E+01  0.14362747905E+01  0.12558611657E+02  0.12795743913E+02  0.00000000000E+00 0.  1.
         14    1    4    4    0    0 -0.15610169205E+02  0.29833447893E+02 -0.12570590625E+03  0.13013718478E+03  0.00000000000E+00 0. -1.
         -5    1    5    5    0  502 -0.69303216049E+02 -0.80479576717E+01 -0.43364296973E+02  0.82281575273E+02  0.47000000000E+01 0.  1.
         13    1    6    6    0    0 -0.27798373140E+02 -0.10171532341E+03 -0.11083394209E+03  0.15298012710E+03  0.00000000000E+00 0. -1.
        -14    1    6    6    0    0  0.24422414642E+02 -0.24136838733E+02 -0.10791630954E+03  0.11324738931E+03  0.00000000000E+00 0.  1.
</event>
<event>
12    1  0.8196217E-002  0.2204505E+03  0.7818608E-02  0.1134421E+00
         21   -1    0    0  503  502  0.00000000000E+00  0.00000000000E+00  0.17905292174E+03  0.17905292174E+03  0.00000000000E+00 0.  1.
         21   -1    0    0  501  503 -0.00000000000E+00 -0.00000000000E+00 -0.26573373176E+03  0.26573373176E+03  0.00000000000E+00 0. -1.
          6    2    1    2  501    0 -0.39520732647E+02  0.12429705705E+03 -0.42671676975E+02  0.21998628462E+03  0.17193442559E+03 0.  0.
         24    2    3    3    0    0 -0.45798235157E+02  0.20714915807E+02 -0.63654796284E+02  0.11400964418E+03  0.80122904307E+02 0.  0.
         -6    2    1    2    0  502  0.39520732647E+02 -0.12429705705E+03 -0.44009133042E+02  0.22480036889E+03  0.17772663098E+03 0.  0.
        -24    2    5    5    0    0  0.85780098649E+01 -0.34049909630E+02  0.35764485227E+02  0.10034989728E+03  0.86936901730E+02 0.  0.
          5    1    3    3  501    0  0.62775025095E+01  0.10358214125E+03  0.20983119309E+02  0.10597664044E+03  0.47000000000E+01 0. -1.
        -13    1    4    4    0    0  0.16273890139E+02 -0.51608367560E+01  0.51160533641E+01  0.17822674835E+02  0.00000000000E+00 0.  1.
         14    1    4    4    0    0 -0.62072125296E+02  0.25875752563E+02 -0.68770849648E+02  0.96186969340E+02  0.00000000000E+00 0. -1.
         -5    1    5    5    0  502  0.30942722782E+02 -0.90247147425E+02 -0.79773618269E+02  0.12445047161E+03  0.47000000000E+01 0.  1.
         11    1    6    6    0    0  0.24533706451E+02 -0.18643455565E+02 -0.22403175678E+02  0.38097027025E+02  0.00000000000E+00 0. -1.
        -12    1    6    6    0    0 -0.15955696587E+02 -0.15406454065E+02  0.58167660905E+02  0.62252870260E+02  0.00000000000E+00 0.  1.
</event>
<event>
12    1  0.8196217E-002  0.1950768E+03  0.7818608E-02  0.1154404E+00
         21   -1    0    0  503  502  0.00000000000E+00  0.00000000000E+00  0.86740543811E+03  0.86740543811E+03  0.00000000000E+00 0. -1.
         21   -1    0    0  501  503 -0.00000000000E+00 -0.00000000000E+00 -0.55140069176E+02  0.55140069176E+02  0.00000000000E+00 0.  1.
          6    2    1    2  501    0 -0.87902445601E+02  0.37751122198E+01  0.61714191050E+03  0.64663223839E+03  0.17183719797E+03 0.  0.
         24    2    3    3    0    0 -0.27861148875E+02  0.64381118874E+02  0.29818570763E+03  0.31643048990E+03  0.79324438967E+02 0.  0.
         -6    2    1    2    0  502  0.87902445601E+02 -0.37751122198E+01  0.19512345844E+03  0.27591326890E+03  0.17410880653E+03 0.  0.
        -24    2    5    5    0    0  0.84351657538E+02  0.30526182482E+02  0.58335917632E+02  0.13476757030E+03  0.81927826610E+02 0.  0.
          5    1    3    3  501    0 -0.60041296725E+02 -0.60606006654E+02  0.31895620287E+03  0.33020174849E+03  0.47000000000E+01 0. -1.
        -13    1    4    4    0    0 -0.40681975310E+02  0.32913772403E+02  0.79867050211E+02  0.95483429130E+02  0.00000000000E+00 0.  1.
         14    1    4    4    0    0  0.12820826435E+02  0.31467346471E+02  0.21831865742E+03  0.22094706077E+03  0.00000000000E+00 0. -1.
         -5    1    5    5    0  502  0.35507880623E+01 -0.34301294702E+02  0.13678754080E+03  0.14114569860E+03  0.47000000000E+01 0.  1.
         13    1    6    6    0    0 -0.16464414041E+02  0.42888689620E+01  0.49996513760E+01  0.17733241119E+02  0.00000000000E+00 0. -1.
        -14    1    6    6    0    0  0.10081607158E+03  0.26237313520E+02  0.53336266256E+02  0.11703432918E+03  0.00000000000E+00 0.  1.
</event>
<event>
12    1  0.8196217E-002  0.2094724E+03  0.7818608E-02  0.1142316E+00
         21   -1    0    0  501  502  0.00000000000E+00  0.00000000000E+00  0.39871383303E+03  0.39871383303E+03  0.00000000000E+00 0. -1.
         21   -1    0    0  502  503 -0.00000000000E+00 -0.00000000000E+00 -0.18919771125E+03  0.18919771125E+03  0.00000000000E+00 0.  1.
         -6    2    1    2    0  503 -0.56959967674E+02  0.10146494741E+03 -0.86649914028E+02  0.22515403489E+03  0.17218175965E+03 0.  0.
        -24    2    3    3    0    0 -0.97341005270E+02  0.68270970281E+02 -0.26210705493E+02  0.14510744693E+03  0.78949182281E+02 0.  0.
          6    2    1    2  501    0  0.56959967674E+02 -0.10146494741E+03  0.29616603581E+03  0.36275750939E+03  0.17418127448E+03 0.  0.
         24    2    5    5    0    0  0.33100016197E+02 -0.98106072491E+02  0.30851194743E+03  0.33527859276E+03  0.80695108418E+02 0.  0.
          5    1    5    5  501    0  0.23859951477E+02 -0.33588749180E+01 -0.12345911624E+02  0.27478916627E+02  0.47000000000E+01 0. -1.
        -11    1    6    6    0    0 -0.27512658779E+01 -0.72854300441E+02  0.10990373968E+03  0.13188688545E+03  0.00000000000E+00 0.  1.
         12    1    6    6    0    0  0.35851282075E+02 -0.25251772050E+02  0.19860820775E+03  0.20339170731E+03  0.00000000000E+00 0. -1.
         -5    1    3    3    0  503  0.40381037595E+02  0.33193977127E+02 -0.60439208535E+02  0.80046587955E+02  0.47000000000E+01 0.  1.
         13    1    4    4    0    0 -0.18523212626E+02 -0.14741066901E+02  0.90292111086E+01  0.25336438436E+02  0.00000000000E+00 0. -1.
        -14    1    4    4    0    0 -0.78817792643E+02  0.83012037182E+02 -0.35239916602E+02  0.11977100850E+03  0.00000000000E+00 0.  1.
</event>
<event>
12    1  0.8196217E-002  0.2250833E+03  0.7818608E-02  0.1133155E+00
         21   -1    0    0  503  502  0.00000000000E+00  0.00000000000E+00  0.29452295147E+03  0.29452295147E+03  0.00000000000E+00 0. -1.
         21   -1    0    0  501  503 -0.00000000000E+00 -0.00000000000E+00 -0.16070847114E+03  0.16070847114E+03  0.00000000000E+00 0. -1.
          6    2    1    2  501    0 -0.10470397494E+03 -0.57388389404E+02  0.54530925433E+02  0.23159468618E+03  0.19080389732E+03 0.  0.
         24    2    3    3    0    0  0.55495572498E+00 -0.88221896109E+02  0.39300154938E+02  0.12076051280E+03  0.72492677862E+02 0.  0.
         -6    2    1    2    0  502  0.10470397494E+03  0.57388389404E+02  0.79283554895E+02  0.22363673643E+03  0.17167165811E+03 0.  0.
        -24    2    5    5    0    0  0.58044214404E+02 -0.44459784331E+01 -0.15775028735E+02  0.10092224413E+03  0.80916934436E+02 0.  0.
          5    1    3    3  501    0 -0.10525893066E+03  0.30833506705E+02  0.15230770495E+02  0.11083417339E+03  0.47000000000E+01 0. -1.
        -11    1    4    4    0    0  0.18345031330E+02 -0.37988616796E+02  0.51014406409E+02  0.66197770671E+02  0.00000000000E+00 0.  1.
         12    1    4    4    0    0 -0.17790075605E+02 -0.50233279313E+02 -0.11714251472E+02  0.54562742124E+02  0.00000000000E+00 0. -1.
         -5    1    5    5    0  502  0.46659760535E+02  0.61834367837E+02  0.95058583630E+02  0.12271449230E+03  0.47000000000E+01 0.  1.
         11    1    6    6    0    0  0.62476516608E+02 -0.31487675472E+02 -0.13970192849E+01  0.69976713963E+02  0.00000000000E+00 0. -1.
        -12    1    6    6    0    0 -0.44323022047E+01  0.27041697039E+02 -0.14378009450E+02  0.30945530167E+02  0.00000000000E+00 0.  1.
</event>
<event>
12    1  0.8196217E-002  0.1761017E+03  0.7818608E-02  0.1171751E+00
         21   -1    0    0  501  502  0.00000000000E+00  0.00000000000E+00  0.85591060840E+03  0.85591060840E+03  0.00000000000E+00 0. -1.
         21   -1    0    0  502  503 -0.00000000000E+00 -0.00000000000E+00 -0.36190627364E+02  0.36190627364E+02  0.00000000000E+00 0. -1.
         -6    2    1    2    0  503 -0.42001574499E+01 -0.34793929532E+02  0.42707090762E+03  0.46176985488E+03  0.17208596657E+03 0.  0.
        -24    2    3    3    0    0  0.54213309046E+02 -0.15677432404E+02  0.34305346100E+03  0.35756527309E+03  0.83560652529E+02 0.  0.
          6    2    1    2  501    0  0.42001574499E+01  0.34793929532E+02  0.39264907342E+03  0.43033138089E+03  0.17257909393E+03 0.  0.
         24    2    5    5    0    0 -0.59816552595E+02 -0.45131332963E+01  0.20584289524E+03  0.22893172209E+03  0.80249906696E+02 0.  0.
          5    1    5    5  501    0  0.64016710045E+02  0.39307062828E+02  0.18680617819E+03  0.20139965879E+03  0.47000000000E+01 0. -1.
        -11    1    6    6    0    0  0.89858173601E+01  0.20194805410E+02  0.83825354617E+02  0.86690628997E+02  0.00000000000E+00 0.  1.
         12    1    6    6    0    0 -0.68802369955E+02 -0.24707938706E+02  0.12201754062E+03  0.14224109310E+03  0.00000000000E+00 0. -1.
         -5    1    3    3    0  503 -0.58413466496E+02 -0.19116497128E+02  0.84017446617E+02  0.10420458179E+03  0.47000000000E+01 0.  1.
         11    1    4    4    0    0  0.69533236798E+01 -0.37907252271E+02  0.73422047335E+02  0.82922286026E+02  0.00000000000E+00 0. -1.
        -12    1    4    4    0    0  0.47259985366E+02  0.22229819867E+02  0.26963141367E+03  0.27464298706E+03  0.00000000000E+00 0.  1.
</event>
<event>
12    1  0.8196217E-002  0.1824893E+03  0.7818608E-02  0.1167481E+00
         21   -1    0    0  503  502  0.00000000000E+00  0.00000000000E+00  0.56146434029E+02  0.56146434029E+02  0.00000000000E+00 0.  1.
         21   -1    0    0  501  503 -0.00000000000E+00 -0.00000000000E+00 -0.57209061836E+03  0.57209061836E+03  0.00000000000E+00 0.  1.
          6    2    1    2  501    0 -0.48722655854E+02  0.92059174214E+01 -0.29665460451E+03  0.34829054288E+03  0.17562375061E+03 0.  0.
         24    2    3    3    0    0 -0.55320015265E+02  0.60391867952E+02 -0.12513680474E+03  0.16911472890E+03  0.78949919726E+02 0.  0.
         -6    2    1    2    0  502  0.48722655854E+02 -0.92059174214E+01 -0.21928957983E+03  0.27994650951E+03  0.16680372374E+03 0.  0.
        -24    2    5    5    0    0  0.26661313815E+02  0.44443417221E+02 -0.64394513616E+02  0.11447891311E+03  0.79200537716E+02 0.  0.
          5    1    3    3  501    0  0.65973594111E+01 -0.51185950531E+02 -0.17151779976E+03  0.17917581399E+03  0.47000000000E+01 0. -1.
        -11    1    4    4    0    0 -0.26847362106E+02 -0.10951374217E+02 -0.66276139097E+02  0.72341136726E+02  0.00000000000E+00 0.  1.
         12    1    4    4    0    0 -0.28472653160E+02  0.71343242170E+02 -0.58860665646E+02  0.96773592170E+02  0.00000000000E+00 0. -1.
         -5    1    5    5    0  502  0.22061342039E+02 -0.53649334642E+02 -0.15489506621E+03  0.16546759640E+03  0.47000000000E+01 0.  1.
         13    1    6    6    0    0 -0.15117257242E+02 -0.14393843795E+02 -0.23899136138E+02  0.31731418402E+02  0.00000000000E+00 0. -1.
        -14    1    6    6    0    0  0.41778571057E+02  0.58837261016E+02 -0.40495377478E+02  0.82747494708E+02  0.00000000000E+00 0.  1.
</event>
<event>
12    1  0.8196217E-002  0.2047157E+03  0.7818608E-02  0.1146990E+00
         21   -1    0    0  501  502  0.00000000000E+00  0.00000000000E+00  0.25321623635E+03  0.25321623635E+03  0.00000000000E+00 0. -1.
         21   -1    0    0  502  503 -0.00000000000E+00 -0.00000000000E+00 -0.16874914111E+03  0.16874914111E+03  0.00000000000E+00 0. -1.
         -6    2    1    2    0  503  0.89849355183E+02 -0.41369918029E+02 -0.35867654545E+01  0.19911564515E+03  0.17277094233E+03 0.  0.
        -24    2    3    3    0    0  0.12766696973E+03 -0.39416568219E+02  0.17625358300E+02  0.15545752174E+03  0.77484622994E+02 0.  0.
          6    2    1    2  501    0 -0.89849355183E+02  0.41369918029E+02  0.88053860693E+02  0.22284973230E+03  0.17923209550E+03 0.  0.
         24    2    5    5    0    0  0.12233522630E+02 -0.17414934781E+02 -0.22181402824E+01  0.74365062979E+02  0.71220105421E+02 0.  0.
          5    1    5    5  501    0 -0.10208287781E+03  0.58784852810E+02  0.90272000976E+02  0.14848466932E+03  0.47000000000E+01 0. -1.
        -13    1    6    6    0    0  0.28101506136E+02 -0.33501218551E+02  0.14706724028E+02  0.46133653911E+02  0.00000000000E+00 0.  1.
         14    1    6    6    0    0 -0.15867983505E+02  0.16086283770E+02 -0.16924864310E+02  0.28231409069E+02  0.00000000000E+00 0. -1.
         -5    1    3    3    0  503 -0.37817614548E+02 -0.19533498096E+01 -0.21212123754E+02  0.43658123411E+02  0.47000000000E+01 0.  1.
         11    1    4    4    0    0  0.84370012002E+02  0.14081821510E+02  0.70658354629E+01  0.85828448973E+02  0.00000000000E+00 0. -1.
        -12    1    4    4    0    0  0.43296957730E+02 -0.53498389729E+02  0.10559522837E+02  0.69629072770E+02  0.00000000000E+00 0.  1.
</event>
<event>
12    1  0.8196217E-002  0.1935791E+03  0.7818608E-02  0.1155297E+00
         21   -1    0    0  501  502  0.00000000000E+00  0.00000000000E+00  0.63360692927E+03  0.63360692927E+03  0.00000000000E+00 0.  1.
         21   -1    0    0  502  503 -0.00000000000E+00 -0.00000000000E+00 -0.62570881222E+02  0.62570881222E+02  0.00000000000E+00 0. -1.
         -6    2    1    2    0  503  0.72329188140E+02  0.52177797061E+02  0.20370353069E+03  0.28101242556E+03  0.17181042152E+03 0.  0.
        -24    2    3    3    0    0  0.25646435984E+02  0.93094469947E+02  0.16449949564E+03  0.20744273185E+03  0.81535776921E+02 0.  0.
          6    2    1    2  501    0 -0.72329188140E+02 -0.52177797061E+02  0.36733251735E+03  0.41516538493E+03  0.17168309344E+03 0.  0.
         24    2    5    5    0    0  0.27974557588E+02 -0.31981822386E+02  0.15813652992E+03  0.18224099814E+03  0.79995040304E+02 0.  0.
          5    1    5    5  501    0 -0.10030374573E+03 -0.20195974676E+02  0.20919598743E+03  0.23292438678E+03  0.47000000000E+01 0. -1.
        -11    1    6    6    0    0  0.52313369845E+01 -0.25219676287E+02  0.15633826314E+03  0.15844573671E+03  0.00000000000E+00 0.  1.
         12    1    6    6    0    0  0.22743220604E+02 -0.67621460988E+01  0.17982667780E+01  0.23795261434E+02  0.00000000000E+00 0. -1.
         -5    1    3    3    0  503  0.46682752156E+02 -0.40916672885E+02  0.39204035049E+02  0.73569693713E+02  0.47000000000E+01 0.  1.
         13    1    4    4    0    0  0.28338801202E+02  0.12346049060E+02  0.89805395125E+01  0.32189480749E+02  0.00000000000E+00 0. -1.
        -14    1    4    4    0    0 -0.26923652187E+01  0.80748420886E+02  0.15551895613E+03  0.17525325110E+03  0.00000000000E+00 0.  1.
</event>
<event>
12    1  0.8196217E-002  0.1784775E+03  0.7818608E-02  0.1169747E+00
         21   -1    0    0  501  502  0.00000000000E+00  0.00000000000E+00  0.15295447136E+04  0.15295447136E+04  0.00000000000E+00 0. -1.
         21   -1    0    0  502  503 -0.00000000000E+00 -0.00000000000E+00 -0.21076994187E+02  0.21076994187E+02  0.00000000000E+00 0. -1.
         -6    2    1    2    0  503  0.31515976649E+02 -0.34129363914E+02  0.63459702605E+03  0.65871128472E+03  0.17037928534E+03 0.  0.
        -24    2    3    3    0    0  0.75273947005E+02 -0.60595057806E+02  0.42977521474E+03  0.44754959948E+03  0.79094757483E+02 0.  0.
          6    2    1    2  501    0 -0.31515976649E+02  0.34129363914E+02  0.87387069333E+03  0.89191042304E+03  0.17232569106E+03 0.  0.
         24    2    5    5    0    0  0.35645445371E+02  0.41645413185E+02  0.66623454720E+03  0.67350253219E+03  0.82050294168E+02 0.  0.
          5    1    5    5  501    0 -0.67161422019E+02 -0.75160492715E+01  0.20763614613E+03  0.21840789085E+03  0.47000000000E+01 0. -1.
        -13    1    6    6    0    0  0.55324241562E+02  0.69559661626E+01  0.30327299651E+03  0.30835639702E+03  0.00000000000E+00 0.  1.
         14    1    6    6    0    0 -0.19678796192E+02  0.34689447023E+02  0.36296155069E+03  0.36514613517E+03  0.00000000000E+00 0. -1.
         -5    1    3    3    0  503 -0.43757970357E+02  0.26465693892E+02  0.20482181131E+03  0.21116168524E+03  0.47000000000E+01 0.  1.
         11    1    4    4    0    0  0.20056077010E+02 -0.46736096410E+02  0.93012372418E+02  0.10600853907E+03  0.00000000000E+00 0. -1.
        -12    1    4    4    0    0  0.55217869995E+02 -0.13858961396E+02  0.33676284232E+03  0.34154106041E+03  0.00000000000E+00 0.  1.
</event>
<event>
12    1  0.8196217E-002  0.1860119E+03  0.7818608E-02  0.1162260E+00
         21   -1    0    0  503  502  0.00000000000E+00  0.00000000000E+00  0.64750592057E+03  0.64750592057E+03  0.00000000000E+00 0.  1.
         21   -1    0    0  501  503 -0.00000000000E+00 -0.00000000000E+00 -0.58946656238E+02  0.58946656238E+02  0.00000000000E+00 0.  1.
          6    2    1    2  501    0 -0.48132681469E+02  0.50931965268E+02  0.18399224509E+03  0.26117189554E+03  0.17160067790E+03 0.  0.
         24    2    3    3    0    0 -0.51077370421E+02 -0.19168518240E+02  0.15804691430E+03  0.18621858227E+03  0.81989044401E+02 0.  0.
         -6    2    1    2    0  502  0.48132681469E+02 -0.50931965268E+02  0.40456701924E+03  0.44528068126E+03  0.17230667989E+03 0.  0.
        -24    2    5    5    0    0  0.12703056864E+01 -0.71663095188E+02  0.13717031699E+03  0.17297763613E+03  0.77255121837E+02 0.  0.
          5    1    3    3  501    0  0.29446889523E+01  0.70100483507E+02  0.25945330788E+02  0.74953313274E+02  0.47000000000E+01 0. -1.
        -11    1    4    4    0    0 -0.39906279705E+02  0.19911134257E+02  0.35179235630E+02  0.56802667603E+02  0.00000000000E+00 0.  1.
         12    1    4    4    0    0 -0.11171090716E+02 -0.39079652497E+02  0.12286767867E+03  0.12941591467E+03  0.00000000000E+00 0. -1.
         -5    1    5    5    0  502  0.46862375783E+02  0.20731129921E+02  0.26739670226E+03  0.27230304514E+03  0.47000000000E+01 0.  1.
         13    1    6    6    0    0 -0.32423183358E+02 -0.11024504384E+02  0.60974679142E+02  0.69933640062E+02  0.00000000000E+00 0. -1.
        -14    1    6    6    0    0  0.33693489044E+02 -0.60638590805E+02  0.76195637845E+02  0.10304399607E+03  0.00000000000E+00 0.  1.
</event>
<event>
12    1  0.8196217E-002  0.1976473E+03  0.7818608E-02  0.1151818E+00
         21   -1    0    0  501  502  0.00000000000E+00  0.00000000000E+00  0.25199215658E+03  0.25199215658E+03  0.00000000000E+00 0. -1.
         21   -1    0    0  502  503 -0.00000000000E+00 -0.00000000000E+00 -0.25591881545E+03  0.25591881545E+03  0.00000000000E+00 0.  1.
         -6    2    1    2    0  503 -0.78816751490E+02  0.54423203008E+02 -0.16164735853E+03  0.25533176535E+03  0.17288862466E+03 0.  0.
        -24    2    3    3    0    0 -0.11814083496E+03  0.44951599462E+02 -0.15195623387E+03  0.21347363936E+03  0.80637426264E+02 0.  0.
          6    2    1    2  501    0  0.78816751490E+02 -0.54423203008E+02  0.15772069966E+03  0.25257920667E+03  0.17247165333E+03 0.  0.
         24    2    5    5    0    0  0.43722248456E+02 -0.32573697179E+02  0.78213676335E+01  0.97012742454E+02  0.79859987784E+02 0.  0.
          5    1    5    5  501    0  0.35094503035E+02 -0.21849505829E+02  0.14989933202E+03  0.15556646422E+03  0.47000000000E+01 0. -1.
        -13    1    6    6    0    0  0.62325576870E+02 -0.71476375912E+01  0.15426085065E+02  0.64602866467E+02  0.00000000000E+00 0.  1.
         14    1    6    6    0    0 -0.18603328415E+02 -0.25426059588E+02 -0.76047174316E+01  0.32409875987E+02  0.00000000000E+00 0. -1.
         -5    1    3    3    0  503  0.39324083465E+02  0.94716035460E+01 -0.96911246623E+01  0.41858125989E+02  0.47000000000E+01 0.  1.
         13    1    4    4    0    0 -0.38298227513E+02  0.53522043831E+02 -0.44995466976E+02  0.79724246343E+02  0.00000000000E+00 0. -1.
        -14    1    4    4    0    0 -0.79842607442E+02 -0.85704443692E+01 -0.10696076689E+03  0.13374939302E+03  0.00000000000E+00 0.  1.
</event>
<event>
12    1  0.8196217E-002  0.2095439E+03  0.7818608E-02  0.1142252E+00
         21   -1    0    0  501  502  0.00000000000E+00  0.00000000000E+00  0.18082355483E+03  0.18082355483E+03  0.00000000000E+00 0. -1.
         21   -1    0    0  502  503 -0.00000000000E+00 -0.00000000000E+00 -0.24159270877E+03  0.24159270877E+03  0.00000000000E+00 0.  1.
         -6    2    1    2    0  503  0.22010555092E+02 -0.11674133546E+03 -0.19578674886E+02  0.21045660320E+03  0.17261417491E+03 0.  0.
        -24    2    3    3    0    0  0.82301904492E-01 -0.13623863013E+03 -0.52931611185E+02  0.16578557068E+03  0.78244034080E+02 0.  0.
          6    2    1    2  501    0 -0.22010555092E+02  0.11674133546E+03 -0.41190479052E+02  0.21195966040E+03  0.17063773947E+03 0.  0.
         24    2    5    5    0    0 -0.30677035523E+02  0.40923300926E+02 -0.84473335391E+02  0.12410194647E+03  0.75164829935E+02 0.  0.
          5    1    5    5  501    0  0.86664804317E+01  0.75818034537E+02  0.43282856339E+02  0.87857713930E+02  0.47000000000E+01 0. -1.
        -13    1    6    6    0    0  0.18060954459E+02 -0.97186246023E+01 -0.21812260562E+02  0.29940348210E+02  0.00000000000E+00 0.  1.
         14    1    6    6    0    0 -0.48737989982E+02  0.50641925528E+02 -0.62661074829E+02  0.94161598263E+02  0.00000000000E+00 0. -1.
         -5    1    3    3    0  503  0.21928253187E+02  0.19497294664E+02  0.33352936300E+02  0.44671032525E+02  0.47000000000E+01 0.  1.
         11    1    4    4    0    0  0.20774974257E+02 -0.13382576270E+03 -0.51546217940E+02  0.14490668343E+03  0.00000000000E+00 0. -1.
        -12    1    4    4    0    0 -0.20692672352E+02 -0.24128674251E+01 -0.13853932454E+01  0.20878887248E+02  0.00000000000E+00 0.  1.
</event>
<event>
12    1  0.8196217E-002  0.2118432E+03  0.7818608E-02  0.1140448E+00
         21   -1    0    0  503  502  0.00000000000E+00  0.00000000000E+00  0.86099227248E+02  0.86099227248E+02  0.00000000000E+00 0. -1.
         21   -1    0    0  501  503 -0.00000000000E+00 -0.00000000000E+00 -0.62759425315E+03  0.62759425315E+03  0.00000000000E+00 0.  1.
          6    2    1    2  501    0 -0.12255736066E+03 -0.10663117800E+02 -0.42139316777E+03  0.47164578513E+03  0.17246314405E+03 0.  0.
         24    2    3    3    0    0 -0.11060038391E+03 -0.56011601832E+02 -0.22446889603E+03  0.26915945695E+03  0.81797209753E+02 0.  0.
         -6    2    1    2    0  502  0.12255736066E+03  0.10663117800E+02 -0.12010185814E+03  0.24204769528E+03  0.17037787922E+03 0.  0.
        -24    2    5    5    0    0  0.11453703799E+02 -0.35308866712E+01 -0.27004209545E+02  0.96326198909E+02  0.91683448733E+02 0.  0.
          5    1    3    3  501    0 -0.11956976750E+02  0.45348484031E+02 -0.19692427174E+03  0.20248632818E+03  0.47000000000E+01 0. -1.
        -11    1    4    4    0    0 -0.34619469301E+02 -0.49612923781E+02 -0.15350642840E+03  0.16499749520E+03  0.00000000000E+00 0.  1.
         12    1    4    4    0    0 -0.75980914604E+02 -0.63986780511E+01 -0.70962467621E+02  0.10416196175E+03  0.00000000000E+00 0. -1.
         -5    1    5    5    0  502  0.11110365686E+03  0.14194004472E+02 -0.93097648594E+02  0.14572149637E+03  0.47000000000E+01 0.  1.
         13    1    6    6    0    0  0.39846069693E+02 -0.12424321801E+02  0.15431492715E+02  0.44499483251E+02  0.00000000000E+00 0. -1.
        -14    1    6    6    0    0 -0.28392365894E+02  0.88934351293E+01 -0.42435702261E+02  0.51826715657E+02  0.00000000000E+00 0.  1.
</event>
<event>
12    1  0.8196217E-002  0.2242988E+03  0.7818608E-02  0.1131608E+00
         21   -1    0    0  501  502  0.00000000000E+00  0.00000000000E+00  0.37916970997E+03  0.37916970997E+03  0.00000000000E+00 0. -1.
         21   -1    0    0  502  503 -0.00000000000E+00 -0.00000000000E+00 -0.29596567476E+03  0.29596567476E+03  0.00000000000E+00 0. -1.
         -6    2    1    2    0  503 -0.13545364856E+03  0.18591256036E+02 -0.21149664765E+03  0.30478631531E+03  0.17166985852E+03 0.  0.
        -24    2    3    3    0    0 -0.14043160994E+03  0.44706805163E+02 -0.11310093703E+03  0.20275392891E+03  0.81225600858E+02 0.  0.
          6    2    1    2  501    0  0.13545364856E+03 -0.18591256036E+02  0.29470068285E+03  0.37034906942E+03  0.17781061564E+03 0.  0.
         24    2    5    5    0    0  0.90071205371E+02 -0.35917809913E+02  0.29675004816E+03  0.32150169982E+03  0.76810421129E+02 0.  0.
          5    1    5    5  501    0  0.45382443185E+02  0.17326553876E+02 -0.20493653101E+01  0.48847369600E+02  0.47000000000E+01 0. -1.
        -13    1    6    6    0    0  0.46594708505E+02 -0.76681666147E+01  0.47731986673E+02  0.67143206593E+02  0.00000000000E+00 0.  1.
         14    1    6    6    0    0  0.43476496866E+02 -0.28249643298E+02  0.24901806149E+03  0.25435849322E+03  0.00000000000E+00 0. -1.
         -5    1    3    3    0  503  0.49779613800E+01 -0.26115549127E+02 -0.98395710622E+02  0.10203238640E+03  0.47000000000E+01 0.  1.
         11    1    4    4    0    0 -0.34496333638E+02 -0.81159692655E+00 -0.72886263897E+02  0.80641572336E+02  0.00000000000E+00 0. -1.
        -12    1    4    4    0    0 -0.10593527630E+03  0.45518402090E+02 -0.40214673135E+02  0.12211235658E+03  0.00000000000E+00 0.  1.
</event>
<event>
12    1  0.8196217E-002  0.2202116E+03  0.7818608E-02  0.1133764E+00
         21   -1    0    0  501  502  0.00000000000E+00  0.00000000000E+00  0.40312658211E+03  0.40312658211E+03  0.00000000000E+00 0. -1.
         21   -1    0    0  502  503 -0.00000000000E+00 -0.00000000000E+00 -0.15578322413E+03  0.15578322413E+03  0.00000000000E+00 0.  1.
         -6    2    1    2    0  503 -0.11573881710E+02 -0.13675777089E+03 -0.98803031832E+01  0.22043314958E+03  0.17221065707E+03 0.  0.
        -24    2    3    3    0    0 -0.29357994683E+02 -0.60900311086E+02 -0.66020612068E+02  0.12428507023E+03  0.80729905990E+02 0.  0.
          6    2    1    2  501    0  0.11573881710E+02  0.13675777089E+03  0.25722366116E+03  0.33847665666E+03  0.17194706338E+03 0.  0.
         24    2    5    5    0    0  0.12528472852E+02  0.16600378462E+03  0.24446077610E+03  0.30620868805E+03  0.79299876697E+02 0.  0.
          5    1    5    5  501    0 -0.95459114154E+00 -0.29246013726E+02  0.12762885055E+02  0.32267968607E+02  0.47000000000E+01 0. -1.
        -11    1    6    6    0    0 -0.36594661051E+01  0.16000184181E+01 -0.53740014856E+01  0.66956435896E+01  0.00000000000E+00 0.  1.
         12    1    6    6    0    0  0.16187938957E+02  0.16440376620E+03  0.24983477759E+03  0.29951304446E+03  0.00000000000E+00 0. -1.
         -5    1    3    3    0  503  0.17784112973E+02 -0.75857459807E+02  0.56140308884E+02  0.96148079358E+02  0.47000000000E+01 0.  1.
         11    1    4    4    0    0 -0.34417623615E+02  0.20455154284E+01 -0.22706320645E+01  0.34553042104E+02  0.00000000000E+00 0. -1.
        -12    1    4    4    0    0  0.50596289316E+01 -0.62945826514E+02 -0.63749980003E+02  0.89732028122E+02  0.00000000000E+00 0.  1.
</event>
<event>
12    1  0.8196217E-002  0.1738283E+03  0.7818608E-02  0.1174176E+00
         21   -1    0    0  503  502  0.00000000000E+00  0.00000000000E+00  0.63337627924E+02  0.63337627924E+02  0.00000000000E+00 0. -1.
         21   -1    0    0  501  503 -0.00000000000E+00 -0.00000000000E+00 -0.49766101758E+03  0.49766101758E+03  0.00000000000E+00 0. -1.
          6    2    1    2  501    0 -0.66859054924E+01 -0.13700088327E+02 -0.27740834436E+03  0.32682216085E+03  0.17211897499E+03 0.  0.
         24    2    3    3    0    0 -0.24526118553E+02  0.49061051211E+02 -0.21430091263E+03  0.23592732174E+03  0.82026232090E+02 0.  0.
         -6    2    1    2    0  502  0.66859054924E+01  0.13700088327E+02 -0.15691504530E+03  0.23417648465E+03  0.17315860005E+03 0.  0.
        -24    2    5    5    0    0  0.66730274872E+02 -0.17342329969E+02 -0.90631265429E+02  0.13938942065E+03  0.80384689611E+02 0.  0.
          5    1    3    3  501    0  0.17840213061E+02 -0.62761139538E+02 -0.63107431728E+02  0.90894839114E+02  0.47000000000E+01 0. -1.
        -13    1    4    4    0    0  0.10943442238E+02 -0.57565447684E+01 -0.49599292207E+00  0.12375085642E+02  0.00000000000E+00 0.  1.
         14    1    4    4    0    0 -0.35469560791E+02  0.54817595980E+02 -0.21380491971E+03  0.22355223609E+03  0.00000000000E+00 0. -1.
         -5    1    5    5    0  502 -0.60044369380E+02  0.31042418296E+02 -0.66283779871E+02  0.94787064001E+02  0.47000000000E+01 0.  1.
         11    1    6    6    0    0  0.36535268656E+02  0.13540180175E+02  0.32257543094E-01  0.38963616048E+02  0.00000000000E+00 0. -1.
        -12    1    6    6    0    0  0.30195006216E+02 -0.30882510145E+02 -0.90663522972E+02  0.10042580461E+03  0.00000000000E+00 0.  1.
</event>
<event>
12    1  0.8196217E-002  0.1975782E+03  0.7818608E-02  0.1151853E+00
         21   -1    0    0  501  502  0.00000000000E+00  0.00000000000E+00  0.23461983442E+03  0.23461983442E+03  0.00000000000E+00 0.  1.
         21   -1    0    0  502  503 -0.00000000000E+00 -0.00000000000E+00 -0.23622989958E+03  0.23622989958E+03  0.00000000000E+00 0.  1.
         -6    2    1    2    0  503  0.53297248810E+02 -0.82804049267E+02  0.12740322963E+03  0.23509298306E+03  0.17128928881E+03 0.  0.
        -24    2    3    3    0    0  0.29018370931E+02 -0.10796618302E+03  0.44200236746E+02  0.14471917651E+03  0.80568086702E+02 0.  0.
          6    2    1    2  501    0 -0.53297248810E+02  0.82804049267E+02 -0.12901329478E+03  0.23575675093E+03  0.17099622239E+03 0.  0.
         24    2    5    5    0    0 -0.61296032210E+01  0.87559092413E+02 -0.14264205714E+03  0.18620646951E+03  0.81375218108E+02 0.  0.
          5    1    5    5  501    0 -0.47167645589E+02 -0.47550431454E+01  0.13628762354E+02  0.49550281422E+02  0.47000000000E+01 0. -1.
        -13    1    6    6    0    0 -0.31702262317E+02  0.86720086376E+02 -0.97255354159E+02  0.13410447692E+03  0.00000000000E+00 0.  1.
         14    1    6    6    0    0  0.25572659097E+02  0.83900603664E+00 -0.45386702978E+02  0.52101992588E+02  0.00000000000E+00 0. -1.
         -5    1    3    3    0  503  0.24278877879E+02  0.25162133754E+02  0.83202992881E+02  0.90373806551E+02  0.47000000000E+01 0.  1.
         11    1    4    4    0    0  0.46263360149E+01 -0.55088784947E+01 -0.20081489491E+02  0.21331126257E+02  0.00000000000E+00 0. -1.
        -12    1    4    4    0    0  0.24392034916E+02 -0.10245730453E+03  0.64281726237E+02  0.12338805026E+03  0.00000000000E+00 0.  1.
</event>
<event>
12    1  0.8196217E-002  0.1781583E+03  0.7818608E-02  0.1169749E+00
         21   -1    0    0  503  502  0.00000000000E+00  0.00000000000E+00  0.24838670585E+03  0.24838670585E+03  0.00000000000E+00 0.  1.
         21   -1    0    0  501  503 -0.00000000000E+00 -0.00000000000E+00 -0.24606773257E+03  0.24606773257E+03  0.00000000000E+00 0. -1.
          6    2    1    2  501    0  0.53661503418E+01  0.48872925374E+02 -0.17056859573E+03  0.24619958024E+03  0.17059668536E+03 0.  0.
         24    2    3    3    0    0  0.95001728119E+01  0.66541407523E+00 -0.17923934679E+03  0.19682016944E+03  0.80751096590E+02 0.  0.
         -6    2    1    2    0  502 -0.53661503418E+01 -0.48872925374E+02  0.17288756902E+03  0.24825485818E+03  0.17123961190E+03 0.  0.
        -24    2    5    5    0    0 -0.14370902062E+02 -0.77082588399E+02  0.51660516236E+02  0.12337508012E+03  0.80027202855E+02 0.  0.
          5    1    3    3  501    0 -0.41340224701E+01  0.48207511299E+02  0.86707510592E+01  0.49379410804E+02  0.47000000000E+01 0. -1.
        -13    1    4    4    0    0  0.91233309449E+01 -0.58596136286E+01  0.53667283182E+01  0.12098430156E+02  0.00000000000E+00 0.  1.
         14    1    4    4    0    0  0.37684186708E+00  0.65250277039E+01 -0.18460607511E+03  0.18472173928E+03  0.00000000000E+00 0. -1.
         -5    1    5    5    0  502  0.90047517207E+01  0.28209663026E+02  0.12122705278E+03  0.12487977806E+03  0.47000000000E+01 0.  1.
         13    1    6    6    0    0 -0.42453061929E+02 -0.70868258616E+02  0.44060417293E+02  0.93626347352E+02  0.00000000000E+00 0. -1.
        -14    1    6    6    0    0  0.28082159867E+02 -0.62143297833E+01  0.76000989427E+01  0.29748732769E+02  0.00000000000E+00 0.  1.
</event>
<event>
12    1  0.8196217E-002  0.2503050E+03  0.7818608E-02  0.1113208E+00
         21   -1    0    0  501  502  0.00000000000E+00  0.00000000000E+00  0.18647748063E+03  0.18647748063E+03  0.00000000000E+00 0. -1.
         21   -1    0    0  502  503 -0.00000000000E+00 -0.00000000000E+00 -0.35147465533E+03  0.35147465533E+03  0.00000000000E+00 0. -1.
         -6    2    1    2    0  503  0.14868914717E+03 -0.10319271804E+03 -0.14034156059E+03  0.28643571423E+03  0.17202460642E+03 0.  0.
        -24    2    3    3    0    0  0.92953795660E+02 -0.52224872144E+01 -0.12095991903E+03  0.17197028903E+03  0.79213608669E+02 0.  0.
          6    2    1    2  501    0 -0.14868914717E+03  0.10319271804E+03 -0.24655614108E+02  0.25151642173E+03  0.17290289631E+03 0.  0.
         24    2    5    5    0    0 -0.11595259349E+03  0.24974736112E+02 -0.65489257749E+02  0.15728685579E+03  0.79884734117E+02 0.  0.
          5    1    5    5  501    0 -0.32736553679E+02  0.78217981931E+02  0.40833643641E+02  0.94229565939E+02  0.47000000000E+01 0. -1.
        -11    1    6    6    0    0  0.94098358609E+01  0.40981012674E+01  0.55738766205E+01  0.11679364088E+02  0.00000000000E+00 0.  1.
         12    1    6    6    0    0 -0.12536242935E+03  0.20876634844E+02 -0.71063134369E+02  0.14560749171E+03  0.00000000000E+00 0. -1.
         -5    1    3    3    0  503  0.55735351507E+02 -0.97970230828E+02 -0.19381641566E+02  0.11446542520E+03  0.47000000000E+01 0.  1.
         13    1    4    4    0    0  0.10034911331E+03 -0.14287027246E+02 -0.79290182047E+02  0.12868953593E+03  0.00000000000E+00 0. -1.
        -14    1    4    4    0    0 -0.73953176460E+01  0.90645400320E+01 -0.41669736981E+02  0.43280753102E+02  0.00000000000E+00 0.  1.
</event>
<event>
12    1  0.8196217E-002  0.2891571E+03  0.7818608E-02  0.1091886E+00
         21   -1    0    0  503  502  0.00000000000E+00  0.00000000000E+00  0.25410605004E+04  0.25410605004E+04  0.00000000000E+00 0.  1.
         21   -1    0    0  501  503 -0.00000000000E+00 -0.00000000000E+00 -0.34979357280E+02  0.34979357280E+02  0.00000000000E+00 0. -1.
          6    2    1    2  501    0  0.21189036611E+03 -0.73105412119E+02  0.89207114385E+03  0.93776477883E+03  0.18267437200E+03 0.  0.
         24    2    3    3    0    0  0.50510826429E+02 -0.65867990703E+02  0.53228398754E+03  0.54334796384E+03  0.70787220845E+02 0.  0.
         -6    2    1    2    0  502 -0.21189036611E+03  0.73105412119E+02  0.16140099993E+04  0.16382750789E+04  0.16933702405E+03 0.  0.
        -24    2    5    5    0    0 -0.13471542486E+03  0.54168754390E+02  0.63871803577E+03  0.65973991207E+03  0.78825901271E+02 0.  0.
          5    1    3    3  501    0  0.16137953968E+03 -0.72374214164E+01  0.35978715631E+03  0.39441681499E+03  0.47000000000E+01 0. -1.
        -13    1    4    4    0    0  0.64976879815E+02 -0.41352672389E+02  0.44271298768E+03  0.44936269081E+03  0.00000000000E+00 0.  1.
         14    1    4    4    0    0 -0.14466053387E+02 -0.24515318314E+02  0.89570999854E+02  0.93985273035E+02  0.00000000000E+00 0. -1.
         -5    1    5    5    0  502 -0.77174941246E+02  0.18936657729E+02  0.97529196352E+03  0.97853516680E+03  0.47000000000E+01 0.  1.
         13    1    6    6    0    0 -0.81028923636E+02 -0.68559361995E+01  0.26094571889E+03  0.27332281013E+03  0.00000000000E+00 0. -1.
        -14    1    6    6    0    0 -0.53686501229E+02  0.61024690589E+02  0.37777231687E+03  0.38641710194E+03  0.00000000000E+00 0.  1.
</event>
<event>
12    1  0.8196217E-002  0.2014847E+03  0.7818608E-02  0.1148570E+00
         21   -1    0    0  501  502  0.00000000000E+00  0.00000000000E+00  0.56983853543E+03  0.56983853543E+03  0.00000000000E+00 0.  1.
         21   -1    0    0  502  503 -0.00000000000E+00 -0.00000000000E+00 -0.75981740673E+02  0.75981740673E+02  0.00000000000E+00 0. -1.
         -6    2    1    2    0  503  0.64432243838E+02  0.81732646659E+02  0.16494853921E+03  0.26010442752E+03  0.17208879410E+03 0.  0.
        -24    2    3    3    0    0 -0.26119035088E+02  0.50526502551E+01  0.62357473556E+02  0.10317650548E+03  0.77776625711E+02 0.  0.
          6    2    1    2  501    0 -0.64432243838E+02 -0.81732646659E+02  0.32890825554E+03  0.38571584858E+03  0.17252343523E+03 0.  0.
         24    2    5    5    0    0 -0.93765313948E+02 -0.84473119261E+02  0.32246027762E+03  0.35519363353E+03  0.79083782649E+02 0.  0.
          5    1    5    5  501    0  0.29333070111E+02  0.27404726026E+01  0.64479779235E+01  0.30522215049E+02  0.47000000000E+01 0. -1.
        -13    1    6    6    0    0 -0.31173613479E+01 -0.19391795742E+02  0.13958563072E+03  0.14096066113E+03  0.00000000000E+00 0.  1.
         14    1    6    6    0    0 -0.90647952601E+02 -0.65081323519E+02  0.18287464690E+03  0.21423297239E+03  0.00000000000E+00 0. -1.
         -5    1    3    3    0  503  0.90551278925E+02  0.76679996404E+02  0.10259106565E+03  0.15692792204E+03  0.47000000000E+01 0.  1.
         11    1    4    4    0    0  0.18964067074E+02 -0.78551961271E+01 -0.49771286882E+01  0.21121357820E+02  0.00000000000E+00 0. -1.
        -12    1    4    4    0    0 -0.45083102162E+02  0.12907846382E+02  0.67334602244E+02  0.82055147664E+02  0.00000000000E+00 0.  1.
</event>
<event>
12    1  0.8196217E-002  0.1980273E+03  0.7818608E-02  0.1152851E+00
         21   -1    0    0  501  502  0.00000000000E+00  0.00000000000E+00  0.75695767789E+03  0.75695767789E+03  0.00000000000E+00 0.  1.
         21   -1    0    0  502  503 -0.00000000000E+00 -0.00000000000E+00 -0.27398188137E+03  0.27398188137E+03  0.00000000000E+00 0.  1.
         -6    2    1    2    0  503 -0.40422167662E+02 -0.73935024275E+02 -0.22372257954E+03  0.29877515939E+03  0.17920508871E+03 0.  0.
        -24    2    3    3    0    0  0.20234394761E+02  0.20662777067E+02 -0.84617005696E+02  0.11988856610E+03  0.79855178552E+02 0.  0.
          6    2    1    2  501    0  0.40422167662E+02  0.73935024275E+02  0.70669837605E+03  0.73216439988E+03  0.17187720698E+03 0.  0.
         24    2    5    5    0    0  0.51450013216E+02 -0.10330968151E+02  0.49035732308E+03  0.49968233163E+03  0.80487859192E+02 0.  0.
          5    1    5    5  501    0 -0.11027845554E+02  0.84265992425E+02  0.21634105297E+03  0.23248206825E+03  0.47000000000E+01 0. -1.
        -11    1    6    6    0    0  0.36032638616E+02  0.62703512249E+01  0.72421461972E+02  0.81132832468E+02  0.00000000000E+00 0.  1.
         12    1    6    6    0    0  0.15417374600E+02 -0.16601319375E+02  0.41793586111E+03  0.41854949916E+03  0.00000000000E+00 0. -1.
         -5    1    3    3    0  503 -0.60656562423E+02 -0.94597801342E+02 -0.13910557384E+03  0.17888659328E+03  0.47000000000E+01 0.  1.
         13    1    4    4    0    0  0.18681686286E+02  0.13163199705E+02  0.10011921142E+02  0.24950226330E+02  0.00000000000E+00 0. -1.
        -14    1    4    4    0    0  0.15527084754E+01  0.74995773616E+01 -0.94628926838E+02  0.94938339772E+02  0.00000000000E+00 0.  1.
</event>
<event>
12    1  0.8196217E-002  0.2018993E+03  0.7818608E-02  0.1149529E+00
         21   -1    0    0  501  502  0.00000000000E+00  0.00000000000E+00  0.65131614940E+03  0.65131614940E+03  0.00000000000E+00 0.  1.
         21   -1    0    0  502  503 -0.00000000000E+00 -0.00000000000E+00 -0.15334193578E+03  0.15334193578E+03  0.00000000000E+00 0.  1.
         -6    2    1    2    0  503  0.31668294742E+02  0.90270341959E+02 -0.65531475128E+02  0.20607477126E+03  0.17035498698E+03 0.  0.
        -24    2    3    3    0    0  0.33131392603E+02 -0.31023040261E+01 -0.73241969287E+02  0.11225508573E+03  0.78291153656E+02 0.  0.
          6    2    1    2  501    0 -0.31668294742E+02 -0.90270341959E+02  0.56350568875E+03  0.59858331392E+03  0.17779681360E+03 0.  0.
         24    2    5    5    0    0  0.13230783352E+02  0.20945769571E+02  0.16666802673E+03  0.18399053700E+03  0.73895248032E+02 0.  0.
          5    1    5    5  501    0 -0.44899078094E+02 -0.11121611153E+03  0.39683766202E+03  0.41459277693E+03  0.47000000000E+01 0. -1.
        -11    1    6    6    0    0 -0.10666419956E+02  0.93459412163E+01  0.15383868617E+03  0.15449097221E+03  0.00000000000E+00 0.  1.
         12    1    6    6    0    0  0.23897203308E+02  0.11599828355E+02  0.12829340559E+02  0.29499564793E+02  0.00000000000E+00 0. -1.
         -5    1    3    3    0  503 -0.14630978605E+01  0.93372645985E+02  0.77104941589E+01  0.93819685535E+02  0.47000000000E+01 0.  1.
         11    1    4    4    0    0  0.52663289908E+01  0.21889564421E+02  0.71120073173E+01  0.23610758134E+02  0.00000000000E+00 0. -1.
        -12    1    4    4    0    0  0.27865063612E+02 -0.24991868447E+02 -0.80353976604E+02  0.88644327594E+02  0.00000000000E+00 0.  1.
</event>
<event>
12    1  0.8196217E-002  0.1775505E+03  0.7818608E-02  0.1170764E+00
         21   -1    0    0  501  502  0.00000000000E+00  0.00000000000E+00  0.22958760640E+03  0.22958760640E+03  0.00000000000E+00 0.  1.
         21   -1    0    0  502  503 -0.00000000000E+00 -0.00000000000E+00 -0.21103323654E+03  0.21103323654E+03  0.00000000000E+00 0.  1.
         -6    2    1    2    0  503  0.18408875343E+02 -0.34357920258E+02 -0.12252874615E+03  0.21384206528E+03  0.17086773211E+03 0.  0.
        -24    2    3    3    0    0  0.19178024813E+02 -0.85984654991E+02 -0.58450752213E+02  0.13141639794E+03  0.78055247640E+02 0.  0.
          6    2    1    2  501    0 -0.18408875343E+02  0.34357920258E+02  0.14108311601E+03  0.22677877766E+03  0.17321897991E+03 0.  0.
         24    2    5    5    0    0 -0.48575212628E+02 -0.11975888441E+02  0.14330976402E+03  0.17124610534E+03  0.79275260619E+02 0.  0.
          5    1    5    5  501    0  0.30166337285E+02  0.46333808699E+02 -0.22266480098E+01  0.55532672321E+02  0.47000000000E+01 0. -1.
        -11    1    6    6    0    0 -0.19350505878E+02 -0.44719103422E+02  0.62087722306E+02  0.78924809469E+02  0.00000000000E+00 0.  1.
         12    1    6    6    0    0 -0.29224706750E+02  0.32743214981E+02  0.81222041713E+02  0.92321295875E+02  0.00000000000E+00 0. -1.
         -5    1    3    3    0  503 -0.76914946934E+00  0.51626734732E+02 -0.64077993937E+02  0.82425667343E+02  0.47000000000E+01 0.  1.
         13    1    4    4    0    0 -0.15235947522E+02 -0.67246474732E+02 -0.61120490930E+02  0.92140853438E+02  0.00000000000E+00 0. -1.
        -14    1    4    4    0    0  0.34413972334E+02 -0.18738180259E+02  0.26697387171E+01  0.39275544504E+02  0.00000000000E+00 0.  1.
</event>
<event>
12    1  0.8196217E-002  0.1760557E+03  0.7818608E-02  0.1171725E+00
         21   -1    0    0  501  502  0.00000000000E+00  0.00000000000E+00  0.57236464351E+03  0.57236464351E+03  0.00000000000E+00 0.  1.
         21   -1    0    0  502  503 -0.00000000000E+00 -0.00000000000E+00 -0.54223054822E+02  0.54223054822E+02  0.00000000000E+00 0.  1.
         -6    2    1    2    0  503  0.12075506400E+02 -0.37969811146E+02  0.27430247087E+03  0.32583342808E+03  0.17128354536E+03 0.  0.
        -24    2    3    3    0    0  0.30938848471E+02 -0.14069706497E+02  0.59428990028E+02  0.10876260220E+03  0.84512305591E+02 0.  0.
          6    2    1    2  501    0 -0.12075506400E+02  0.37969811146E+02  0.24383911782E+03  0.30075427026E+03  0.17148787504E+03 0.  0.
         24    2    5    5    0    0  0.55502263058E+02 -0.18843558013E+01  0.15265971129E+03  0.18037618370E+03  0.78399797159E+02 0.  0.
          5    1    5    5  501    0 -0.67577769458E+02  0.39854166947E+02  0.91179406537E+02  0.12037808656E+03  0.47000000000E+01 0. -1.
        -13    1    6    6    0    0  0.93183557649E-01 -0.28386517731E+02  0.21708141249E+02  0.35735786945E+02  0.00000000000E+00 0.  1.
         14    1    6    6    0    0  0.55409079500E+02  0.26502161930E+02  0.13095157004E+03  0.14464039675E+03  0.00000000000E+00 0. -1.
         -5    1    3    3    0  503 -0.18863342070E+02 -0.23900104649E+02  0.21487348084E+03  0.21707082587E+03  0.47000000000E+01 0.  1.
         13    1    4    4    0    0 -0.74767168033E+01 -0.41969881176E+02  0.36101767160E+02  0.55863313651E+02  0.00000000000E+00 0. -1.
        -14    1    4    4    0    0  0.38415565274E+02  0.27900174678E+02  0.23327222868E+02  0.52899288550E+02  0.00000000000E+00 0.  1.
</event>
<event>
12    1  0.8196217E-002  0.2251357E+03  0.7818608E-02  0.1130324E+00
         21   -1    0    0  501  502  0.00000000000E+00  0.00000000000E+00  0.24043503142E+03  0.24043503142E+03  0.00000000000E+00 0.  1.
         21   -1    0    0  502  503 -0.00000000000E+00 -0.00000000000E+00 -0.27838752647E+03  0.27838752647E+03  0.00000000000E+00 0.  1.
         -6    2    1    2    0  503  0.10722335471E+03 -0.97296141804E+02 -0.14785672847E+03  0.26934682224E+03  0.17240275953E+03 0.  0.
        -24    2    3    3    0    0  0.63094726141E+02  0.94270392902E+01 -0.10235665182E+03  0.14513120238E+03  0.80724024900E+02 0.  0.
          6    2    1    2  501    0 -0.10722335471E+03  0.97296141804E+02  0.10990423342E+03  0.24947573564E+03  0.17086782946E+03 0.  0.
         24    2    5    5    0    0 -0.92918568488E+02 -0.16599087745E+01  0.75193104397E+02  0.14353292403E+03  0.79442316583E+02 0.  0.
          5    1    5    5  501    0 -0.14304786222E+02  0.98956050579E+02  0.34711129023E+02  0.10594281162E+03  0.47000000000E+01 0. -1.
        -13    1    6    6    0    0 -0.62283421180E+02 -0.28049785837E+02  0.77158637578E+02  0.10305081461E+03  0.00000000000E+00 0.  1.
         14    1    6    6    0    0 -0.30635147309E+02  0.26389877063E+02 -0.19655331815E+01  0.40482109415E+02  0.00000000000E+00 0. -1.
         -5    1    3    3    0  503  0.44128628570E+02 -0.10672318109E+03 -0.45500076651E+02  0.12421561986E+03  0.47000000000E+01 0.  1.
         11    1    4    4    0    0  0.34094997718E+02  0.37518347530E+02 -0.22125552746E+02  0.55313970705E+02  0.00000000000E+00 0. -1.
        -12    1    4    4    0    0  0.28999728423E+02 -0.28091308240E+02 -0.80231099075E+02  0.89817231676E+02  0.00000000000E+00 0.  1.
</event>
<event>
12    1  0.8196217E-002  0.1886773E+03  0.7818608E-02  0.1159853E+00
         21   -1    0    0  501  502  0.00000000000E+00  0.00000000000E+00  0.27674328344E+03  0.27674328344E+03  0.00000000000E+00 0. -1.
         21   -1    0    0  502  503 -0.00000000000E+00 -0.00000000000E+00 -0.12903844146E+03  0.12903844146E+03  0.00000000000E+00 0. -1.
         -6    2    1    2    0  503  0.73753378213E+02  0.36869963403E+01  0.56010939467E+02  0.19600353980E+03  0.17270497252E+03 0.  0.
        -24    2    3    3    0    0  0.11062071740E+03 -0.18468518290E+02  0.63855699920E+02  0.15202970901E+03  0.80358277250E+02 0.  0.
          6    2    1    2  501    0 -0.73753378213E+02 -0.36869963403E+01  0.91693902518E+02  0.20977818510E+03  0.17362592101E+03 0.  0.
         24    2    5    5    0    0 -0.73348848785E+02  0.45717303120E+02  0.10609363756E+03  0.15810236079E+03  0.79185675049E+02 0.  0.
          5    1    5    5  501    0 -0.40452942817E+00 -0.49404299460E+02 -0.14399735044E+02  0.51675824314E+02  0.47000000000E+01 0. -1.
        -13    1    6    6    0    0 -0.27645168048E+01 -0.76657726893E+01  0.55637784812E+02  0.56231394460E+02  0.00000000000E+00 0.  1.
         14    1    6    6    0    0 -0.70584331980E+02  0.53383075809E+02  0.50455852751E+02  0.10187096633E+03  0.00000000000E+00 0. -1.
         -5    1    3    3    0  503 -0.36867339190E+02  0.22155514631E+02 -0.78447604536E+01  0.43973830787E+02  0.47000000000E+01 0.  1.
         11    1    4    4    0    0  0.32398270574E+02 -0.44773255123E+02  0.29396093582E+02  0.62597305280E+02  0.00000000000E+00 0. -1.
        -12    1    4    4    0    0  0.78222446829E+02  0.26304736833E+02  0.34459606338E+02  0.89432403729E+02  0.00000000000E+00 0.  1.
</event>
<event>
12    1  0.8196217E-002  0.1834359E+03  0.7818608E-02  0.1165609E+00
         21   -1    0    0  501  502  0.00000000000E+00  0.00000000000E+00  0.12015729232E+04  0.12015729232E+04  0.00000000000E+00 0.  1.
         21   -1    0    0  502  503 -0.00000000000E+00 -0.00000000000E+00 -0.46362678355E+02  0.46362678355E+02  0.00000000000E+00 0.  1.
         -6    2    1    2    0  503  0.59032008954E+01  0.44978524833E+02  0.17337102731E+03  0.24910779909E+03  0.17302967080E+03 0.  0.
        -24    2    3    3    0    0 -0.42650448033E+01 -0.34375780728E+02  0.53602134034E+02  0.10499958687E+03  0.83377692232E+02 0.  0.
          6    2    1    2  501    0 -0.59032008954E+01 -0.44978524833E+02  0.98183921750E+03  0.99882780243E+03  0.17773804999E+03 0.  0.
         24    2    5    5    0    0  0.65722768028E+01 -0.77488791108E+02  0.37446544041E+03  0.39043849446E+03  0.78550266241E+02 0.  0.
          5    1    5    5  501    0 -0.12475477698E+02  0.32510266276E+02  0.60737377709E+03  0.60838930797E+03  0.47000000000E+01 0. -1.
        -13    1    6    6    0    0 -0.60682795884E+01 -0.32919346678E+02  0.30567703366E+03  0.30750440047E+03  0.00000000000E+00 0.  1.
         14    1    6    6    0    0  0.12640556391E+02 -0.44569444430E+02  0.68788406752E+02  0.82934093992E+02  0.00000000000E+00 0. -1.
         -5    1    3    3    0  503  0.10168245699E+02  0.79354305561E+02  0.11976889328E+03  0.14410821222E+03  0.47000000000E+01 0.  1.
         11    1    4    4    0    0 -0.54704725065E+01  0.84014223366E+01  0.60785486753E+02  0.61606699039E+02  0.00000000000E+00 0. -1.
        -12    1    4    4    0    0  0.12054277033E+01 -0.42777203065E+02 -0.71833527187E+01  0.43392887830E+02  0.00000000000E+00 0.  1.
</event>
<event>
12    1  0.8196217E-002  0.1840454E+03  0.7818608E-02  0.1163980E+00
         21   -1    0    0  501  502  0.00000000000E+00  0.00000000000E+00  0.10285715950E+03  0.10285715950E+03  0.00000000000E+00 0.  1.
         21   -1    0    0  502  503 -0.00000000000E+00 -0.00000000000E+00 -0.53493366262E+03  0.53493366262E+03  0.00000000000E+00 0.  1.
         -6    2    1    2    0  503 -0.24197783167E+02  0.60618704397E+02 -0.41382277925E+03  0.45284244704E+03  0.17192099693E+03 0.  0.
        -24    2    3    3    0    0  0.47639283855E+02  0.86272001259E+01 -0.19527719595E+03  0.21694428535E+03  0.81164707455E+02 0.  0.
          6    2    1    2  501    0  0.24197783167E+02 -0.60618704397E+02 -0.18253723872E+02  0.18494837507E+03  0.17208295376E+03 0.  0.
         24    2    5    5    0    0  0.33943968738E+02 -0.75996740589E+02 -0.66621218256E+02  0.13305447713E+03  0.79607848669E+02 0.  0.
          5    1    5    5  501    0 -0.97461855704E+01  0.15378036192E+02  0.48367494383E+02  0.51893897938E+02  0.47000000000E+01 0. -1.
        -13    1    6    6    0    0  0.64405073016E+01 -0.22839397013E+02  0.17733340131E+02  0.29624137835E+02  0.00000000000E+00 0.  1.
         14    1    6    6    0    0  0.27503461436E+02 -0.53157343576E+02 -0.84354558387E+02  0.10343033930E+03  0.00000000000E+00 0. -1.
         -5    1    3    3    0  503 -0.71837067022E+02  0.51991504271E+02 -0.21854558329E+03  0.23589816170E+03  0.47000000000E+01 0.  1.
         11    1    4    4    0    0 -0.20675700184E+02  0.14225842785E+02 -0.66176982107E+02  0.70776070404E+02  0.00000000000E+00 0. -1.
        -12    1    4    4    0    0  0.68314984039E+02 -0.55986426595E+01 -0.12910021385E+03  0.14616821494E+03  0.00000000000E+00 0.  1.
</event>
<event>
12    1  0.8196217E-002  0.2838539E+03  0.7818608E-02  0.1093734E+00
         21   -1    0    0  503  502  0.00000000000E+00  0.00000000000E+00  0.33119199188E+03  0.33119199188E+03  0.00000000000E+00 0. -1.
         21   -1    0    0  501  503 -0.00000000000E+00 -0.00000000000E+00 -0.24259361264E+03  0.24259361264E+03  0.00000000000E+00 0.  1.
          6    2    1    2  501    0  0.65424381102E+02 -0.21524930535E+03  0.37324879625E+02  0.28629734024E+03  0.17309074872E+03 0.  0.
         24    2    3    3    0    0 -0.19939861230E+02 -0.13228074528E+03 -0.15388519889E+02  0.15602213800E+03  0.78805503397E+02 0.  0.
         -6    2    1    2    0  502 -0.65424381102E+02  0.21524930535E+03  0.51273499615E+02  0.28748826428E+03  0.17148736758E+03 0.  0.
        -24    2    5    5    0    0 -0.10152738092E+03  0.15942096461E+03  0.72650210451E+02  0.21749337881E+03  0.79388057762E+02 0.  0.
          5    1    3    3  501    0  0.85364242331E+02 -0.82968560076E+02  0.52713399514E+02  0.13027520224E+03  0.47000000000E+01 0. -1.
        -13    1    4    4    0    0  0.17697256058E+02 -0.10454685724E+03 -0.23409187442E+02  0.10858742232E+03  0.00000000000E+00 0.  1.
         14    1    4    4    0    0 -0.37637117287E+02 -0.27733888037E+02  0.80206675526E+01  0.47434715677E+02  0.00000000000E+00 0. -1.
         -5    1    5    5    0  502  0.36102999816E+02  0.55828340741E+02 -0.21376710836E+02  0.69994885469E+02  0.47000000000E+01 0.  1.
         11    1    6    6    0    0 -0.30327221238E+02  0.86793124966E+02  0.70339728653E+02  0.11576037455E+03  0.00000000000E+00 0. -1.
        -12    1    6    6    0    0 -0.71200159680E+02  0.72627839645E+02  0.23104817989E+01  0.10173300426E+03  0.00000000000E+00 0.  1.
</event>
<event>
12    1  0.8196217E-002  0.2051617E+03  0.7818608E-02  0.1145720E+00
         21   -1    0    0  503  502  0.00000000000E+00  0.00000000000E+00  0.59521636589E+02  0.59521636589E+02  0.00000000000E+00 0. -1.
         21   -1    0    0  501  503 -0.00000000000E+00 -0.00000000000E+00 -0.70419351563E+03  0.70419351563E+03  0.00000000000E+00 0.  1.
          6    2    1    2  501    0  0.65537670640E+02  0.91175825621E+02 -0.33880694637E+03  0.39541544132E+03  0.17016170802E+03 0.  0.
         24    2    3    3    0    0  0.33676216136E+02 -0.17864344391E+02 -0.14335395005E+03  0.16929849209E+03  0.81599032443E+02 0.  0.
         -6    2    1    2    0  502 -0.65537670640E+02 -0.91175825621E+02 -0.30586493267E+03  0.36829971090E+03  0.17170644297E+03 0.  0.
        -24    2    5    5    0    0  0.26616223395E+02 -0.39977383488E+02 -0.18832246052E+03  0.21033786923E+03  0.80436655564E+02 0.  0.
          5    1    3    3  501    0  0.31861454504E+02  0.10904017001E+03 -0.19545299631E+03  0.22611694923E+03  0.47000000000E+01 0. -1.
        -11    1    4    4    0    0  0.36424757844E+02 -0.41974564377E+02 -0.13049319561E+03  0.14183476704E+03  0.00000000000E+00 0.  1.
         12    1    4    4    0    0 -0.27485417081E+01  0.24110219987E+02 -0.12860754440E+02  0.27463725058E+02  0.00000000000E+00 0. -1.
         -5    1    5    5    0  502 -0.92153894034E+02 -0.51198442134E+02 -0.11754247216E+03  0.15796184167E+03  0.47000000000E+01 0.  1.
         11    1    6    6    0    0  0.24899298372E+02  0.17150253618E+02 -0.10522907866E+03  0.10948637018E+03  0.00000000000E+00 0. -1.
        -12    1    6    6    0    0  0.17169250230E+01 -0.57127637106E+02 -0.83093381854E+02  0.10085149905E+03  0.00000000000E+00 0.  1.
</event>
<event>
12    1  0.8196217E-002  0.2450564E+03  0.7818608E-02  0.1116584E+00
         21   -1    0    0  503  502  0.00000000000E+00  0.00000000000E+00  0.20102816497E+03  0.20102816497E+03  0.00000000000E+00 0. -1.
         21   -1    0    0  501  503 -0.00000000000E+00 -0.00000000000E+00 -0.59980909704E+03  0.59980909704E+03  0.00000000000E+00 0. -1.
          6    2    1    2  501    0  0.13101810532E+03  0.11356640118E+03 -0.48334538922E+03  0.54160028914E+03  0.17217734033E+03 0.  0.
         24    2    3    3    0    0  0.34215630810E+02  0.79504831590E+02 -0.13597203668E+03  0.17935555744E+03  0.78665707822E+02 0.  0.
         -6    2    1    2    0  502 -0.13101810532E+03 -0.11356640118E+03  0.84564457146E+02  0.25923697287E+03  0.17317502503E+03 0.  0.
        -24    2    5    5    0    0 -0.11543867814E+03 -0.61282482309E+02 -0.10839550636E+02  0.14923542095E+03  0.71218564715E+02 0.  0.
          5    1    3    3  501    0  0.96802474509E+02  0.34061569590E+02 -0.34737335253E+03  0.36224473170E+03  0.47000000000E+01 0. -1.
        -13    1    4    4    0    0 -0.92209591170E+00 -0.53978221960E+01  0.73147375941E+01  0.91374028804E+01  0.00000000000E+00 0.  1.
         14    1    4    4    0    0  0.35137726721E+02  0.84902653786E+02 -0.14328677428E+03  0.17021815456E+03  0.00000000000E+00 0. -1.
         -5    1    5    5    0  502 -0.15579427175E+02 -0.52283918872E+02  0.95404007783E+02  0.11000155192E+03  0.47000000000E+01 0.  1.
         11    1    6    6    0    0 -0.45106388906E+02 -0.59884850975E+02  0.10547037547E+02  0.75710116216E+02  0.00000000000E+00 0. -1.
        -12    1    6    6    0    0 -0.70332289237E+02 -0.13976313335E+01 -0.21386588184E+02  0.73525304738E+02  0.00000000000E+00 0.  1.
</event>
<event>
12    1  0.8196217E-002  0.2237427E+03  0.7818608E-02  0.1131145E+00
         21   -1    0    0  503  502  0.00000000000E+00  0.00000000000E+00  0.34574805165E+03  0.34574805165E+03  0.00000000000E+00 0.  1.
         21   -1    0    0  501  503 -0.00000000000E+00 -0.00000000000E+00 -0.35032295091E+03  0.35032295091E+03  0.00000000000E+00 0.  1.
          6    2    1    2  501    0  0.12665274316E+03 -0.66570474115E+02 -0.26891978719E+03  0.34974888177E+03  0.17185424925E+03 0.  0.
         24    2    3    3    0    0  0.44686174322E+02 -0.85762978419E+02 -0.11315298502E+03  0.17262672820E+03  0.87431382392E+02 0.  0.
         -6    2    1    2    0  502 -0.12665274316E+03  0.66570474115E+02  0.26434488793E+03  0.34632212078E+03  0.17201234315E+03 0.  0.
        -24    2    5    5    0    0 -0.14249345572E+03  0.53635840144E+02  0.27382537690E+03  0.32329599211E+03  0.79741916246E+02 0.  0.
          5    1    3    3  501    0  0.81966568834E+02  0.19192504304E+02 -0.15576680217E+03  0.17712215357E+03  0.47000000000E+01 0. -1.
        -13    1    4    4    0    0  0.50801397179E+02 -0.93405288689E+02 -0.12026548208E+03  0.16052761784E+03  0.00000000000E+00 0.  1.
         14    1    4    4    0    0 -0.61152228573E+01  0.76423102694E+01  0.71124970645E+01  0.12099110353E+02  0.00000000000E+00 0. -1.
         -5    1    5    5    0  502  0.15840712565E+02  0.12934633971E+02 -0.94804889743E+01  0.23026128674E+02  0.47000000000E+01 0.  1.
         11    1    6    6    0    0 -0.27938131070E+02  0.49735998101E+02  0.83673369754E+02  0.10126915365E+03  0.00000000000E+00 0. -1.
        -12    1    6    6    0    0 -0.11455532465E+03  0.38998420428E+01  0.19015200715E+03  0.22202683846E+03  0.00000000000E+00 0.  1.
</event>
<event>
12    1  0.8196217E-002  0.2193335E+03  0.7818608E-02  0.1135630E+00
         21   -1    0    0  503  502  0.00000000000E+00  0.00000000000E+00  0.74789378476E+03  0.74789378476E+03  0.00000000000E+00 0. -1.
         21   -1    0    0  501  503 -0.00000000000E+00 -0.00000000000E+00 -0.69817926978E+02  0.69817926978E+02  0.00000000000E+00 0.  1.
          6    2    1    2  501    0  0.13270671484E+03 -0.31477595111E+02  0.46757857656E+03  0.51371123577E+03  0.16330216577E+03 0.  0.
         24    2    3    3    0    0  0.25317537984E+02  0.27322963596E+02  0.15667300962E+03  0.17953418306E+03  0.79363523566E+02 0.  0.
         -6    2    1    2    0  502 -0.13270671484E+03  0.31477595111E+02  0.21049728122E+03  0.30400047596E+03  0.17177098948E+03 0.  0.
        -24    2    5    5    0    0 -0.43058224077E+02 -0.15473459540E+02  0.17270577490E+03  0.19587304476E+03  0.80284035585E+02 0.  0.
          5    1    3    3  501    0  0.10738917685E+03 -0.58800558707E+02  0.31090556694E+03  0.33417705272E+03  0.47000000000E+01 0. -1.
        -13    1    4    4    0    0  0.41348184333E+02  0.38063100108E+02  0.14812780849E+03  0.15843080378E+03  0.00000000000E+00 0.  1.
         14    1    4    4    0    0 -0.16030646349E+02 -0.10740136512E+02  0.85452011326E+01  0.21103379281E+02  0.00000000000E+00 0. -1.
         -5    1    5    5    0  502 -0.89648490761E+02  0.46951054652E+02  0.37791506325E+02  0.10812743120E+03  0.47000000000E+01 0.  1.
         11    1    6    6    0    0 -0.38977090721E+02  0.28433750596E+02  0.86590441183E+02  0.99124145788E+02  0.00000000000E+00 0. -1.
        -12    1    6    6    0    0 -0.40811333560E+01 -0.43907210136E+02  0.86115333715E+02  0.96748898972E+02  0.00000000000E+00 0.  1.
</event>
<event>
12    1  0.8196217E-002  0.2092583E+03  0.7818608E-02  0.1142251E+00
         21   -1    0    0  501  502  0.00000000000E+00  0.00000000000E+00  0.10954712022E+03  0.10954712022E+03  0.00000000000E+00 0.  1.
         21   -1    0    0  502  503 -0.00000000000E+00 -0.00000000000E+00 -0.83106100297E+03  0.83106100297E+03  0.00000000000E+00 0.  1.
         -6    2    1    2    0  503  0.10691356748E+03 -0.53161579774E+02 -0.69973807312E+03  0.73021989428E+03  0.17126312662E+03 0.  0.
        -24    2    3    3    0    0  0.10003039954E+03 -0.87589861697E+02 -0.39746895478E+03  0.42588226187E+03  0.75604670836E+02 0.  0.
          6    2    1    2  501    0 -0.10691356748E+03  0.53161579774E+02 -0.21775809626E+02  0.21038822892E+03  0.17184980800E+03 0.  0.
         24    2    5    5    0    0 -0.94756942537E+02  0.10019219944E+03 -0.28112212800E+02  0.16117539806E+03  0.78548440102E+02 0.  0.
          5    1    5    5  501    0 -0.12156624943E+02 -0.47030619671E+02  0.63364031738E+01  0.49212830866E+02  0.47000000000E+01 0. -1.
        -13    1    6    6    0    0 -0.68864485267E+02  0.37795051485E+02  0.16433409290E+02  0.80254845266E+02  0.00000000000E+00 0.  1.
         14    1    6    6    0    0 -0.25892457270E+02  0.62397147959E+02 -0.44545622089E+02  0.80920552793E+02  0.00000000000E+00 0. -1.
         -5    1    3    3    0  503  0.68831679406E+01  0.34428281924E+02 -0.30226911834E+03  0.30433763241E+03  0.47000000000E+01 0.  1.
         13    1    4    4    0    0  0.12773917586E+02  0.13422087342E+02 -0.34730755626E+02  0.39364333926E+02  0.00000000000E+00 0. -1.
        -14    1    4    4    0    0  0.87256481954E+02 -0.10101194904E+03 -0.36273819916E+03  0.38651792794E+03  0.00000000000E+00 0.  1.
</event>
<event>
12    1  0.8196217E-002  0.1779174E+03  0.7818608E-02  0.1169881E+00
         21   -1    0    0  503  502  0.00000000000E+00  0.00000000000E+00  0.75262776332E+03  0.75262776332E+03  0.00000000000E+00 0. -1.
         21   -1    0    0  501  503 -0.00000000000E+00 -0.00000000000E+00 -0.98454653064E+02  0.98454653064E+02  0.00000000000E+00 0. -1.
          6    2    1    2  501    0 -0.38302425473E+02  0.20834398080E+02  0.49649745458E+01  0.17798666400E+03  0.17249189445E+03 0.  0.
         24    2    3    3    0    0  0.53428868585E+01  0.69632878295E+02  0.28646573228E+02  0.10820763366E+03  0.77530520727E+02 0.  0.
         -6    2    1    2    0  502  0.38302425473E+02 -0.20834398080E+02  0.64920813571E+03  0.67309575238E+03  0.17229492292E+03 0.  0.
        -24    2    5    5    0    0  0.61216939471E+02  0.22575252204E+02  0.57018285590E+03  0.57994771140E+03  0.83508700792E+02 0.  0.
          5    1    3    3  501    0 -0.43645312331E+02 -0.48798480215E+02 -0.23681598682E+02  0.69779030345E+02  0.47000000000E+01 0. -1.
        -13    1    4    4    0    0  0.37101861138E+02  0.60858937297E+02  0.22006542896E+02  0.74596556751E+02  0.00000000000E+00 0.  1.
         14    1    4    4    0    0 -0.31758974279E+02  0.87739409976E+01  0.66400303310E+01  0.33611076905E+02  0.00000000000E+00 0. -1.
         -5    1    5    5    0  502 -0.22914513998E+02 -0.43409650284E+02  0.79025279810E+02  0.93148040981E+02  0.47000000000E+01 0.  1.
         11    1    6    6    0    0 -0.80697756529E+01  0.12174727593E+02  0.31450474828E+03  0.31484374214E+03  0.00000000000E+00 0. -1.
        -12    1    6    6    0    0  0.69286715124E+02  0.10400524611E+02  0.25567810761E+03  0.26510396926E+03  0.00000000000E+00 0.  1.
</event>
<event>
12    1  0.8196217E-002  0.2164514E+03  0.7818608E-02  0.1136669E+00
         21   -1    0    0  501  502  0.00000000000E+00  0.00000000000E+00  0.80846172398E+03  0.80846172398E+03  0.00000000000E+00 0.  1.
         21   -1    0    0  502  503 -0.00000000000E+00 -0.00000000000E+00 -0.62707895338E+02  0.62707895338E+02  0.00000000000E+00 0. -1.
         -6    2    1    2    0  503 -0.12268195205E+03  0.49517042675E+02  0.25140512379E+03  0.33174653328E+03  0.17131382666E+03 0.  0.
        -24    2    3    3    0    0 -0.65091784831E+02  0.96615913296E+02  0.17194849966E+03  0.22279527770E+03  0.80621796546E+02 0.  0.
          6    2    1    2  501    0  0.12268195205E+03 -0.49517042675E+02  0.49434870485E+03  0.53942308604E+03  0.17056912055E+03 0.  0.
         24    2    5    5    0    0  0.63458154579E+02 -0.96134753244E+02  0.30465706399E+03  0.33525237869E+03  0.79431748145E+02 0.  0.
          5    1    5    5  501    0  0.59223797469E+02  0.46617710568E+02  0.18969164086E+03  0.20417070735E+03  0.47000000000E+01 0. -1.
        -11    1    6    6    0    0 -0.10901579569E+02  0.17215686018E+01  0.64876788604E+02  0.65808859093E+02  0.00000000000E+00 0.  1.
         12    1    6    6    0    0  0.74359734148E+02 -0.97856321845E+02  0.23978027539E+03  0.26944351960E+03  0.00000000000E+00 0. -1.
         -5    1    3    3    0  503 -0.57590167217E+02 -0.47098870621E+02  0.79456624134E+02  0.10895125558E+03  0.47000000000E+01 0.  1.
         11    1    4    4    0    0 -0.78042669465E+02  0.95442968364E+02  0.13126811699E+03  0.18008702620E+03  0.00000000000E+00 0. -1.
        -12    1    4    4    0    0  0.12950884634E+02  0.11729449325E+01  0.40680382666E+02  0.42708251503E+02  0.00000000000E+00 0.  1.
</event>
<event>
12    1  0.8196217E-002  0.2291844E+03  0.7818608E-02  0.1127361E+00
         21   -1    0    0  503  502  0.00000000000E+00  0.00000000000E+00  0.46860889628E+03  0.46860889628E+03  0.00000000000E+00 0.  1.
         21   -1    0    0  501  503 -0.00000000000E+00 -0.00000000000E+00 -0.11168652222E+03  0.11168652222E+03  0.00000000000E+00 0. -1.
          6    2    1    2  501    0  0.51913721172E+02 -0.14117288099E+03  0.17818601521E+03  0.28965443655E+03  0.17182729649E+03 0.  0.
         24    2    3    3    0    0 -0.44556096182E+02 -0.52188335059E+02  0.53709716304E+02  0.10870937840E+03  0.64993286610E+02 0.  0.
         -6    2    1    2    0  502 -0.51913721172E+02  0.14117288099E+03  0.17873635886E+03  0.29064098195E+03  0.17291812409E+03 0.  0.
        -24    2    5    5    0    0 -0.64286791976E+02  0.83103304712E+02  0.39656566792E+02  0.13934508931E+03  0.82495210457E+02 0.  0.
          5    1    3    3  501    0  0.96469817354E+02 -0.88984545935E+02  0.12447629891E+03  0.18094505814E+03  0.47000000000E+01 0. -1.
        -13    1    4    4    0    0 -0.69185469634E+01  0.59543111085E+01  0.36111312096E+02  0.37247106923E+02  0.00000000000E+00 0.  1.
         14    1    4    4    0    0 -0.37637549219E+02 -0.58142646167E+02  0.17598404208E+02  0.71462271481E+02  0.00000000000E+00 0. -1.
         -5    1    5    5    0  502  0.12373070804E+02  0.58069576281E+02  0.13907979206E+03  0.15129589264E+03  0.47000000000E+01 0.  1.
         13    1    6    6    0    0  0.14093299502E+02  0.14772320576E+02  0.28081921093E+02  0.34719401469E+02  0.00000000000E+00 0. -1.
        -14    1    6    6    0    0 -0.78380091479E+02  0.68330984137E+02  0.11574645699E+02  0.10462568784E+03  0.00000000000E+00 0.  1.
</event>
<event>
12    1  0.8196217E-002  0.1832609E+03  0.7818608E-02  0.1164832E+00
         21   -1    0    0  503  502  0.00000000000E+00  0.00000000000E+00  0.25282962582E+02  0.25282962582E+02  0.00000000000E+00 0.  1.
         21   -1    0    0  501  503 -0.00000000000E+00 -0.00000000000E+00 -0.14867175197E+04  0.14867175197E+04  0.00000000000E+00 0.  1.
          6    2    1    2  501    0  0.25216572713E+02 -0.57335773323E+02 -0.48158043929E+03  0.51527107522E+03  0.17222454822E+03 0.  0.
         24    2    3    3    0    0 -0.50805574493E+02 -0.49768857824E+02 -0.28635059802E+03  0.30557270613E+03  0.79497598318E+02 0.  0.
         -6    2    1    2    0  502 -0.25216572713E+02  0.57335773323E+02 -0.97985411786E+03  0.99672940709E+03  0.17155801420E+03 0.  0.
        -24    2    5    5    0    0 -0.31397489392E+02 -0.83150354678E+00 -0.84787971480E+03  0.85229613913E+03  0.80760165186E+02 0.  0.
          5    1    3    3  501    0  0.76022147206E+02 -0.75669154989E+01 -0.19522984127E+03  0.20969836909E+03  0.47000000000E+01 0. -1.
        -13    1    4    4    0    0  0.53241410941E+01 -0.49456467010E+02 -0.15324955738E+03  0.16112018944E+03  0.00000000000E+00 0.  1.
         14    1    4    4    0    0 -0.56129715587E+02 -0.31239081415E+00 -0.13310104064E+03  0.14445251669E+03  0.00000000000E+00 0. -1.
         -5    1    5    5    0  502  0.61809166795E+01  0.58167276870E+02 -0.13197440306E+03  0.14443326796E+03  0.47000000000E+01 0.  1.
         11    1    6    6    0    0  0.27002036183E+02  0.53834016020E+01 -0.23432644741E+03  0.23593849818E+03  0.00000000000E+00 0. -1.
        -12    1    6    6    0    0 -0.58399525575E+02 -0.62149051488E+01 -0.61355326739E+03  0.61635764095E+03  0.00000000000E+00 0.  1.
</event>
<event>
12    1  0.8196217E-002  0.1839833E+03  0.7818608E-02  0.1164199E+00
         21   -1    0    0  501  502  0.00000000000E+00  0.00000000000E+00  0.33509948951E+02  0.33509948951E+02  0.00000000000E+00 0. -1.
         21   -1    0    0  502  503 -0.00000000000E+00 -0.00000000000E+00 -0.12140978945E+04  0.12140978945E+04  0.00000000000E+00 0.  1.
         -6    2    1    2    0  503  0.38507318971E+02  0.50635815452E+02 -0.84992564126E+03  0.86961108114E+03  0.17263556224E+03 0.  0.
        -24    2    3    3    0    0  0.70306566797E+02 -0.23193491075E+02 -0.52584303700E+03  0.53567458561E+03  0.70394678360E+02 0.  0.
          6    2    1    2  501    0 -0.38507318971E+02 -0.50635815452E+02 -0.33066230429E+03  0.37799676231E+03  0.17174746991E+03 0.  0.
         24    2    5    5    0    0 -0.26527594283E+02 -0.10029533338E+03 -0.21891382763E+03  0.25503581908E+03  0.79731662019E+02 0.  0.
          5    1    5    5  501    0 -0.11979724687E+02  0.49659517932E+02 -0.11174847666E+03  0.12296094324E+03  0.47000000000E+01 0. -1.
        -13    1    6    6    0    0  0.28096879984E+02 -0.38092599864E+02 -0.92886472069E+02  0.10425151089E+03  0.00000000000E+00 0.  1.
         14    1    6    6    0    0 -0.54624474268E+02 -0.62202733521E+02 -0.12602735556E+03  0.15078430819E+03  0.00000000000E+00 0. -1.
         -5    1    3    3    0  503 -0.31799247826E+02  0.73829306528E+02 -0.32408260426E+03  0.33393649553E+03  0.47000000000E+01 0.  1.
         11    1    4    4    0    0  0.33262596876E+02 -0.55653801572E+00 -0.41942229469E+03  0.42073955289E+03  0.00000000000E+00 0. -1.
        -12    1    4    4    0    0  0.37043969921E+02 -0.22636953059E+02 -0.10642074231E+03  0.11493503272E+03  0.00000000000E+00 0.  1.
</event>
<event>
12    1  0.8196217E-002  0.2534678E+03  0.7818608E-02  0.1111147E+00
         21   -1    0    0  501  502  0.00000000000E+00  0.00000000000E+00  0.25287629910E+02  0.25287629910E+02  0.00000000000E+00 0.  1.
         21   -1    0    0  502  503 -0.00000000000E+00 -0.00000000000E+00 -0.25514907187E+04  0.25514907187E+04  0.00000000000E+00 0. -1.
         -6    2    1    2    0  503 -0.18380667244E+03  0.28365508178E+02 -0.11757417938E+04  0.12027529553E+04  0.17221036844E+03 0.  0.
        -24    2    3    3    0    0 -0.10146724020E+03 -0.22227052609E+02 -0.92796982454E+03  0.93675966960E+03  0.74840100388E+02 0.  0.
          6    2    1    2  501    0  0.18380667244E+03 -0.28365508178E+02 -0.13504612950E+04  0.13740253933E+04  0.17207724197E+03 0.  0.
         24    2    5    5    0    0  0.17544094180E+03 -0.40891930563E+02 -0.82169107418E+03  0.84501978544E+03  0.80190662460E+02 0.  0.
          5    1    5    5  501    0  0.83657306326E+01  0.12526422385E+02 -0.52877022079E+03  0.52900560782E+03  0.47000000000E+01 0. -1.
        -11    1    6    6    0    0  0.10243942543E+03  0.13758157282E+02 -0.36714584412E+03  0.38141734835E+03  0.00000000000E+00 0.  1.
         12    1    6    6    0    0  0.73001516375E+02 -0.54650087845E+02 -0.45454523007E+03  0.46360243709E+03  0.00000000000E+00 0. -1.
         -5    1    3    3    0  503 -0.82339432237E+02  0.50592560787E+02 -0.24777196927E+03  0.26599328575E+03  0.47000000000E+01 0.  1.
         11    1    4    4    0    0 -0.50803433618E+02 -0.37516249435E+01 -0.18652387684E+03  0.19335516592E+03  0.00000000000E+00 0. -1.
        -12    1    4    4    0    0 -0.50663806582E+02 -0.18475427665E+02 -0.74144594771E+03  0.74340450368E+03  0.00000000000E+00 0.  1.
</event>
<event>
12    1  0.8196217E-002  0.1834807E+03  0.7818608E-02  0.1164564E+00
         21   -1    0    0  501  502  0.00000000000E+00  0.00000000000E+00  0.40719082520E+02  0.40719082520E+02  0.00000000000E+00 0. -1.
         21   -1    0    0  502  503 -0.00000000000E+00 -0.00000000000E+00 -0.93933742551E+03  0.93933742551E+03  0.00000000000E+00 0. -1.
         -6    2    1    2    0  503 -0.60814685724E+02  0.23650115867E+02 -0.61980374112E+03  0.64628600976E+03  0.17108820803E+03 0.  0.
        -24    2    3    3    0    0 -0.91058459649E+02  0.25349902978E+02 -0.58816335870E+03  0.60223173713E+03  0.88389298177E+02 0.  0.
          6    2    1    2  501    0  0.60814685724E+02 -0.23650115867E+02 -0.27881460186E+03  0.33377049826E+03  0.17148588665E+03 0.  0.
         24    2    5    5    0    0 -0.63215918023E+01  0.31213068904E+02 -0.19549523632E+03  0.21343157905E+03  0.79501152933E+02 0.  0.
          5    1    5    5  501    0  0.67136277526E+02 -0.54863184771E+02 -0.83319365540E+02  0.12033891921E+03  0.47000000000E+01 0. -1.
        -13    1    6    6    0    0  0.30479231328E+02 -0.31640455224E+00 -0.38372585750E+02  0.49005499602E+02  0.00000000000E+00 0.  1.
         14    1    6    6    0    0 -0.36800823130E+02  0.31529473456E+02 -0.15712265057E+03  0.16442607945E+03  0.00000000000E+00 0. -1.
         -5    1    3    3    0  503  0.30243773925E+02 -0.16997871106E+01 -0.31640382420E+02  0.44054272632E+02  0.47000000000E+01 0.  1.
         13    1    4    4    0    0  0.14568734205E+02  0.14642862265E+02 -0.14859182166E+03  0.15002063490E+03  0.00000000000E+00 0. -1.
        -14    1    4    4    0    0 -0.10562719385E+03  0.10707040712E+02 -0.43957153705E+03  0.45221110223E+03  0.00000000000E+00 0.  1.
</event>
<event>
12    1  0.8196217E-002  0.1950326E+03  0.7818608E-02  0.1154695E+00
         21   -1    0    0  501  502  0.00000000000E+00  0.00000000000E+00  0.93025654481E+03  0.93025654481E+03  0.00000000000E+00 0. -1.
         21   -1    0    0  502  503 -0.00000000000E+00 -0.00000000000E+00 -0.44652281532E+02  0.44652281532E+02  0.00000000000E+00 0. -1.
         -6    2    1    2    0  503 -0.36089851650E+02 -0.77359026435E+02  0.59948872944E+03  0.63041610845E+03  0.17535916486E+03 0.  0.
        -24    2    3    3    0    0 -0.15925472320E+02 -0.91929377287E+02  0.59089180441E+03  0.60367859851E+03  0.81056120734E+02 0.  0.
          6    2    1    2  501    0  0.36089851650E+02  0.77359026435E+02  0.28611553383E+03  0.34449271789E+03  0.17183200405E+03 0.  0.
         24    2    5    5    0    0 -0.25685287953E+02  0.95074058036E+02  0.18149398109E+03  0.22161981804E+03  0.80476506199E+02 0.  0.
          5    1    5    5  501    0  0.61775139603E+02 -0.17715031600E+02  0.10462155274E+03  0.12287289984E+03  0.47000000000E+01 0. -1.
        -13    1    6    6    0    0 -0.15161114428E+02  0.15018503687E+02  0.11516322122E+03  0.11712379077E+03  0.00000000000E+00 0.  1.
         14    1    6    6    0    0 -0.10524173525E+02  0.80055554349E+02  0.66330759870E+02  0.10449602727E+03  0.00000000000E+00 0. -1.
         -5    1    3    3    0  503 -0.20164379330E+02  0.14570350852E+02  0.85969250373E+01  0.26737509940E+02  0.47000000000E+01 0.  1.
         13    1    4    4    0    0 -0.42233040433E+02 -0.82538033678E+02  0.39087005067E+03  0.40171576173E+03  0.00000000000E+00 0. -1.
        -14    1    4    4    0    0  0.26307568113E+02 -0.93913436094E+01  0.20002175374E+03  0.20196283679E+03  0.00000000000E+00 0.  1.
</event>
<event>
12    1  0.8196217E-002  0.1948172E+03  0.7818608E-02  0.1158384E+00
         21   -1    0    0  501  502  0.00000000000E+00  0.00000000000E+00  0.24721643017E+03  0.24721643017E+03  0.00000000000E+00 0.  1.
         21   -1    0    0  502  503 -0.00000000000E+00 -0.00000000000E+00 -0.14597314095E+03  0.14597314095E+03  0.00000000000E+00 0.  1.
         -6    2    1    2    0  503  0.19307391002E+02  0.40358677870E+02  0.68361426625E+01  0.17670300156E+03  0.17080872251E+03 0.  0.
        -24    2    3    3    0    0  0.44981476610E+02  0.62941917203E+02  0.49176638994E+02  0.12207728417E+03  0.80619497072E+02 0.  0.
          6    2    1    2  501    0 -0.19307391002E+02 -0.40358677870E+02  0.94407146554E+02  0.21648656956E+03  0.18961046187E+03 0.  0.
         24    2    5    5    0    0 -0.37135075217E+01 -0.99227229628E+02  0.31562466504E+02  0.12884970860E+03  0.75803857929E+02 0.  0.
          5    1    5    5  501    0 -0.15593883480E+02  0.58868551758E+02  0.62844680050E+02  0.87636860958E+02  0.47000000000E+01 0. -1.
        -11    1    6    6    0    0 -0.29783596193E+02 -0.56321825804E+02  0.43624815419E+02  0.77216158830E+02  0.00000000000E+00 0.  1.
         12    1    6    6    0    0  0.26070088671E+02 -0.42905403824E+02 -0.12062348915E+02  0.51633549771E+02  0.00000000000E+00 0. -1.
         -5    1    3    3    0  503 -0.25674085609E+02 -0.22583239333E+02 -0.42340496331E+02  0.54625717388E+02  0.47000000000E+01 0.  1.
         13    1    4    4    0    0 -0.25397122209E+01  0.41863326501E+01 -0.19414391417E+02  0.20022340355E+02  0.00000000000E+00 0. -1.
        -14    1    4    4    0    0  0.47521188831E+02  0.58755584553E+02  0.68591030410E+02  0.10205494381E+03  0.00000000000E+00 0.  1.
</event>
<event>
12    1  0.8196217E-002  0.2341347E+03  0.7818608E-02  0.1123871E+00
         21   -1    0    0  501  502  0.00000000000E+00  0.00000000000E+00  0.72227992261E+02  0.72227992261E+02  0.00000000000E+00 0.  1.
         21   -1    0    0  502  503 -0.00000000000E+00 -0.00000000000E+00 -0.94610346497E+03  0.94610346497E+03  0.00000000000E+00 0.  1.
         -6    2    1    2    0  503  0.15618079888E+03 -0.25523441586E+02 -0.66507033473E+03  0.70507986031E+03  0.17255483555E+03 0.  0.
        -24    2    3    3    0    0  0.12936726414E+03 -0.14363370068E+01 -0.64695049305E+03  0.66446492569E+03  0.78935067736E+02 0.  0.
          6    2    1    2  501    0 -0.15618079888E+03  0.25523441586E+02 -0.20880513797E+03  0.31325159691E+03  0.17170640441E+03 0.  0.
         24    2    5    5    0    0 -0.20525950236E+02  0.25484784065E+02 -0.34217177630E+02  0.92106202769E+02  0.79006002883E+02 0.  0.
          5    1    5    5  501    0 -0.13565484864E+03  0.38657521520E-01 -0.17458796034E+03  0.22114539415E+03  0.47000000000E+01 0. -1.
        -13    1    6    6    0    0 -0.43231800475E+02  0.37873997493E+02 -0.32857422087E+02  0.66204519820E+02  0.00000000000E+00 0.  1.
         14    1    6    6    0    0  0.22705850239E+02 -0.12389213429E+02 -0.13597555425E+01  0.25901682949E+02  0.00000000000E+00 0. -1.
         -5    1    3    3    0  503  0.26813534735E+02 -0.24087104579E+02 -0.18119841685E+02  0.40614934626E+02  0.47000000000E+01 0.  1.
         13    1    4    4    0    0  0.23168963502E+02  0.27664904893E+02 -0.24744023857E+03  0.25005763235E+03  0.00000000000E+00 0. -1.
        -14    1    4    4    0    0  0.10619830064E+03 -0.29101241900E+02 -0.39951025448E+03  0.41440729334E+03  0.00000000000E+00 0.  1.
</event>
<event>
12    1  0.8196217E-002  0.2052102E+03  0.7818608E-02  0.1145496E+00
         21   -1    0    0  503  502  0.00000000000E+00  0.00000000000E+00  0.18458922540E+03  0.18458922540E+03  0.00000000000E+00 0.  1.
         21   -1    0    0  501  503 -0.00000000000E+00 -0.00000000000E+00 -0.86169679256E+03  0.86169679256E+03  0.00000000000E+00 0. -1.
          6    2    1    2  501    0  0.10459316303E+03  0.39548360795E+02 -0.78720015957E+03  0.81340918254E+03  0.17160012942E+03 0.  0.
         24    2    3    3    0    0  0.86100080606E+02 -0.27924024205E+02 -0.33955340401E+03  0.36030409031E+03  0.79558458476E+02 0.  0.
         -6    2    1    2    0  502 -0.10459316303E+03 -0.39548360795E+02  0.11009259241E+03  0.23287683542E+03  0.17206812308E+03 0.  0.
        -24    2    5    5    0    0 -0.37594161884E+02 -0.85205441101E+02  0.82761435144E+02  0.14718834557E+03  0.78368780284E+02 0.  0.
          5    1    3    3  501    0  0.18493082420E+02  0.67472385000E+02 -0.44764675556E+03  0.45310509223E+03  0.47000000000E+01 0. -1.
        -11    1    4    4    0    0  0.90166575604E+02 -0.37940018672E+02 -0.33423547094E+03  0.34825681100E+03  0.00000000000E+00 0.  1.
         12    1    4    4    0    0 -0.40664949989E+01  0.10015994467E+02 -0.53179330675E+01  0.12047279314E+02  0.00000000000E+00 0. -1.
         -5    1    5    5    0  502 -0.66999001142E+02  0.45657080306E+02  0.27331157262E+02  0.85688489853E+02  0.47000000000E+01 0.  1.
         11    1    6    6    0    0 -0.20288548254E+01 -0.43429909950E+01 -0.14811156382E+02  0.15567535966E+02  0.00000000000E+00 0. -1.
        -12    1    6    6    0    0 -0.35565307058E+02 -0.80862450106E+02  0.97572591526E+02  0.13162080960E+03  0.00000000000E+00 0.  1.
</event>
<event>
12    1  0.8196217E-002  0.2519329E+03  0.7818608E-02  0.1112174E+00
         21   -1    0    0  501  502  0.00000000000E+00  0.00000000000E+00  0.10581636576E+03  0.10581636576E+03  0.00000000000E+00 0. -1.
         21   -1    0    0  502  503 -0.00000000000E+00 -0.00000000000E+00 -0.60041754948E+03  0.60041754948E+03  0.00000000000E+00 0.  1.
         -6    2    1    2    0  503 -0.18220449069E+03 -0.25876362023E+02 -0.26686452829E+03  0.36662504382E+03  0.17125765313E+03 0.  0.
        -24    2    3    3    0    0 -0.15216153474E+02 -0.20874568343E+02 -0.83196881533E+02  0.11829861113E+03  0.80034751005E+02 0.  0.
          6    2    1    2  501    0  0.18220449069E+03  0.25876362023E+02 -0.22773665543E+03  0.33960887141E+03  0.17205272093E+03 0.  0.
         24    2    5    5    0    0  0.56330385076E+02 -0.29637256241E+02 -0.46701365238E+02  0.11218433762E+03  0.79704635072E+02 0.  0.
          5    1    5    5  501    0  0.12587410562E+03  0.55513618265E+02 -0.18103529019E+03  0.22742453379E+03  0.47000000000E+01 0. -1.
        -11    1    6    6    0    0  0.19261677206E+02 -0.25717769966E+01 -0.61072045257E+02  0.64089164119E+02  0.00000000000E+00 0.  1.
         12    1    6    6    0    0  0.37068707871E+02 -0.27065479245E+02  0.14370680018E+02  0.48095173501E+02  0.00000000000E+00 0. -1.
         -5    1    3    3    0  503 -0.16698833722E+03 -0.50017936807E+01 -0.18366764676E+03  0.24832643269E+03  0.47000000000E+01 0.  1.
         11    1    4    4    0    0 -0.45481892540E+02 -0.24197704899E+02 -0.38937457303E+02  0.64577527458E+02  0.00000000000E+00 0. -1.
        -12    1    4    4    0    0  0.30265739065E+02  0.33231365564E+01 -0.44259424230E+02  0.53721083673E+02  0.00000000000E+00 0.  1.
</event>
<event>
12    1  0.8196217E-002  0.2015481E+03  0.7818608E-02  0.1148548E+00
         21   -1    0    0  501  502  0.00000000000E+00  0.00000000000E+00  0.37426114675E+03  0.37426114675E+03  0.00000000000E+00 0.  1.
         21   -1    0    0  502  503 -0.00000000000E+00 -0.00000000000E+00 -0.11037150383E+03  0.11037150383E+03  0.00000000000E+00 0. -1.
         -6    2    1    2    0  503 -0.47474170412E+02 -0.93972711594E+02  0.16530446803E+03  0.26026541131E+03  0.17125375849E+03 0.  0.
        -24    2    3    3    0    0 -0.48251730762E+02  0.90308080769E+01  0.49704984280E+02  0.10536008440E+03  0.78869366081E+02 0.  0.
          6    2    1    2  501    0  0.47474170412E+02  0.93972711594E+02  0.98585174901E+02  0.22436723927E+03  0.17186318386E+03 0.  0.
         24    2    5    5    0    0 -0.32152368310E+02  0.71710841859E+02  0.28279262205E+02  0.11573488740E+03  0.80116339543E+02 0.  0.
          5    1    5    5  501    0  0.79626538722E+02  0.22261869735E+02  0.70305912696E+02  0.10863235187E+03  0.47000000000E+01 0. -1.
        -11    1    6    6    0    0  0.14790028993E+02 -0.85378201623E+01  0.13123581792E+02  0.21537588765E+02  0.00000000000E+00 0.  1.
         12    1    6    6    0    0 -0.46942397303E+02  0.80248662021E+02  0.15155680413E+02  0.94197298632E+02  0.00000000000E+00 0. -1.
         -5    1    3    3    0  503  0.77756035018E+00 -0.10300351967E+03  0.11559948375E+03  0.15490532692E+03  0.47000000000E+01 0.  1.
         11    1    4    4    0    0 -0.62258346549E+02 -0.13957499602E+02  0.24086157457E+02  0.68198654614E+02  0.00000000000E+00 0. -1.
        -12    1    4    4    0    0  0.14006615787E+02  0.22988307679E+02  0.25618826823E+02  0.37161429783E+02  0.00000000000E+00 0.  1.
</event>
<event>
12    1  0.8196217E-002  0.1874075E+03  0.7818608E-02  0.1161036E+00
         21   -1    0    0  503  502  0.00000000000E+00  0.00000000000E+00  0.27771781519E+04  0.27771781519E+04  0.00000000000E+00 0.  1.
         21   -1    0    0  501  503 -0.00000000000E+00 -0.00000000000E+00 -0.13521633827E+02  0.13521633827E+02  0.00000000000E+00 0.  1.
          6    2    1    2  501    0  0.27846845774E+02  0.66457193409E+02  0.17461503567E+04  0.17560789103E+04  0.17198856267E+03 0.  0.
         24    2    3    3    0    0 -0.20767642960E+02  0.65965585174E+02  0.15619714047E+04  0.15655334130E+04  0.79733585512E+02 0.  0.
         -6    2    1    2    0  502 -0.27846845774E+02 -0.66457193409E+02  0.10175061614E+04  0.10346208755E+04  0.17300162434E+03 0.  0.
        -24    2    5    5    0    0  0.24590308005E+02 -0.89763145052E+02  0.80841137914E+03  0.81774408911E+03  0.80711411186E+02 0.  0.
          5    1    3    3  501    0  0.48614488733E+02  0.49160823447E+00  0.18417895199E+03  0.19054549732E+03  0.47000000000E+01 0. -1.
        -11    1    4    4    0    0 -0.11027743539E+02  0.16065129463E+02  0.69056960993E+02  0.71753490325E+02  0.00000000000E+00 0.  1.
         12    1    4    4    0    0 -0.97398994206E+01  0.49900455711E+02  0.14929144437E+04  0.14937799226E+04  0.00000000000E+00 0. -1.
         -5    1    5    5    0  502 -0.52437153778E+02  0.23305951644E+02  0.20909478228E+03  0.21687678635E+03  0.47000000000E+01 0.  1.
         11    1    6    6    0    0  0.31134174394E+02 -0.81633576653E+01  0.11185318749E+03  0.11639206492E+03  0.00000000000E+00 0. -1.
        -12    1    6    6    0    0 -0.65438663892E+01 -0.81599787387E+02  0.69655819165E+03  0.70135202419E+03  0.00000000000E+00 0.  1.
</event>
<event>
12    1  0.8196217E-002  0.1750642E+03  0.7818608E-02  0.1173268E+00
         21   -1    0    0  503  502  0.00000000000E+00  0.00000000000E+00  0.58800892602E+03  0.58800892602E+03  0.00000000000E+00 0. -1.
         21   -1    0    0  501  503 -0.00000000000E+00 -0.00000000000E+00 -0.88688029587E+02  0.88688029587E+02  0.00000000000E+00 0. -1.
          6    2    1    2  501    0 -0.14111461950E+02 -0.36201302318E+01  0.29330060523E+02  0.17516043982E+03  0.17207175401E+03 0.  0.
         24    2    3    3    0    0  0.49549589718E+02 -0.38789795983E+02  0.18953424540E+02  0.10154386925E+03  0.77408752522E+02 0.  0.
         -6    2    1    2    0  502  0.14111461950E+02  0.36201302318E+01  0.46999083591E+03  0.50153651579E+03  0.17445702085E+03 0.  0.
        -24    2    5    5    0    0 -0.52157677079E+02 -0.31563893888E+02  0.24690771473E+03  0.26612690830E+03  0.78379902089E+02 0.  0.
          5    1    3    3  501    0 -0.63661051668E+02  0.35169665751E+02  0.10376635983E+02  0.73616570573E+02  0.47000000000E+01 0. -1.
        -11    1    4    4    0    0  0.59506747355E+02 -0.13815733997E+01  0.20074903046E+02  0.62816904239E+02  0.00000000000E+00 0.  1.
         12    1    4    4    0    0 -0.99571576369E+01 -0.37408222583E+02 -0.11214785058E+01  0.38726965012E+02  0.00000000000E+00 0. -1.
         -5    1    5    5    0  502  0.66269139029E+02  0.35184024120E+02  0.22308312118E+03  0.23540960749E+03  0.47000000000E+01 0.  1.
         13    1    6    6    0    0  0.36600677336E+00 -0.41241920592E+02  0.14896351670E+03  0.15456765277E+03  0.00000000000E+00 0. -1.
        -14    1    6    6    0    0 -0.52523683853E+02  0.96780267042E+01  0.97944198027E+02  0.11155925553E+03  0.00000000000E+00 0.  1.
</event>
<event>
12    1  0.8196217E-002  0.2250898E+03  0.7818608E-02  0.1130206E+00
         21   -1    0    0  501  502  0.00000000000E+00  0.00000000000E+00  0.56827913497E+03  0.56827913497E+03  0.00000000000E+00 0. -1.
         21   -1    0    0  502  503 -0.00000000000E+00 -0.00000000000E+00 -0.92093263043E+02  0.92093263043E+02  0.00000000000E+00 0.  1.
         -6    2    1    2    0  503 -0.10570398681E+03  0.10099261667E+03  0.17761126175E+03  0.28645766715E+03  0.17070264590E+03 0.  0.
        -24    2    3    3    0    0 -0.34100367526E+02  0.11780520182E+03  0.91926224345E+02  0.17343662066E+03  0.81172224453E+02 0.  0.
          6    2    1    2  501    0  0.10570398681E+03 -0.10099261667E+03  0.29857461018E+03  0.37391473087E+03  0.17115077173E+03 0.  0.
         24    2    5    5    0    0  0.14128813616E+03 -0.91291195039E+02  0.22993302416E+03  0.29584997186E+03  0.79759579625E+02 0.  0.
          5    1    5    5  501    0 -0.35584149348E+02 -0.97014216328E+01  0.68641586025E+02  0.78064759005E+02  0.47000000000E+01 0. -1.
        -11    1    6    6    0    0  0.11846894858E+03 -0.55683353734E+02  0.11816375067E+03  0.17634681634E+03  0.00000000000E+00 0.  1.
         12    1    6    6    0    0  0.22819187577E+02 -0.35607841305E+02  0.11176927348E+03  0.11950315552E+03  0.00000000000E+00 0. -1.
         -5    1    3    3    0  503 -0.71603619284E+02 -0.16812585152E+02  0.85685037402E+02  0.11302104649E+03  0.47000000000E+01 0.  1.
         13    1    4    4    0    0  0.14330853074E+02 -0.36744612293E+01  0.17676732513E+02  0.23050854377E+02  0.00000000000E+00 0. -1.
        -14    1    4    4    0    0 -0.48431220600E+02  0.12147966305E+03  0.74249491832E+02  0.15038576629E+03  0.00000000000E+00 0.  1.
</event>
<event>
12    1  0.8196217E-002  0.1831812E+03  0.7818608E-02  0.1165522E+00
         21   -1    0    0  503  502  0.00000000000E+00  0.00000000000E+00  0.29198233330E+03  0.29198233330E+03  0.00000000000E+00 0. -1.
         21   -1    0    0  501  503 -0.00000000000E+00 -0.00000000000E+00 -0.13364561316E+03  0.13364561316E+03  0.00000000000E+00 0. -1.
          6    2    1    2  501    0 -0.23857535347E+02 -0.50902882346E+02  0.16354900834E+03  0.24556800562E+03  0.17434185335E+03 0.  0.
         24    2    3    3    0    0 -0.60244419089E+02 -0.32901597526E+02  0.35006972199E+02  0.11068584735E+03  0.79460452738E+02 0.  0.
         -6    2    1    2    0  502  0.23857535347E+02  0.50902882346E+02 -0.52122882040E+01  0.18005994084E+03  0.17097990795E+03 0.  0.
        -24    2    5    5    0    0  0.17272648957E+02 -0.74123880491E+01  0.53574121870E+02  0.96861602515E+02  0.78477357301E+02 0.  0.
          5    1    3    3  501    0  0.36386883742E+02 -0.18001284820E+02  0.12854203615E+03  0.13488215827E+03  0.47000000000E+01 0. -1.
        -11    1    4    4    0    0 -0.18259419580E+01 -0.24607998025E+02 -0.18651501887E+02  0.30931636774E+02  0.00000000000E+00 0.  1.
         12    1    4    4    0    0 -0.58418477131E+02 -0.82935995007E+01  0.53658474086E+02  0.79754210574E+02  0.00000000000E+00 0. -1.
         -5    1    5    5    0  502  0.65848863900E+01  0.58315270395E+02 -0.58786410074E+02  0.83198338321E+02  0.47000000000E+01 0.  1.
         11    1    6    6    0    0 -0.18130188575E+02 -0.31935747056E+02  0.17487528995E+02  0.40674431135E+02  0.00000000000E+00 0. -1.
        -12    1    6    6    0    0  0.35402837532E+02  0.24523359007E+02  0.36086592875E+02  0.56187171380E+02  0.00000000000E+00 0.  1.
</event>
<event>
12    1  0.8196217E-002  0.2410116E+03  0.7818608E-02  0.1119338E+00
         21   -1    0    0  501  502  0.00000000000E+00  0.00000000000E+00  0.34880642421E+03  0.34880642421E+03  0.00000000000E+00 0. -1.
         21   -1    0    0  502  503 -0.00000000000E+00 -0.00000000000E+00 -0.32112720016E+03  0.32112720016E+03  0.00000000000E+00 0.  1.
         -6    2    1    2    0  503  0.16857201795E+03  0.11949062622E+02 -0.21927215567E+03  0.32486613920E+03  0.16999536704E+03 0.  0.
        -24    2    3    3    0    0  0.14512164128E+03  0.58272988353E+02 -0.12041931267E+03  0.21310836171E+03  0.80363741977E+02 0.  0.
          6    2    1    2  501    0 -0.16857201795E+03 -0.11949062622E+02  0.24695137972E+03  0.34506748517E+03  0.17183503730E+03 0.  0.
         24    2    5    5    0    0 -0.38770256425E+02 -0.12240367925E+02  0.34398725859E+02  0.95970510446E+02  0.79838005639E+02 0.  0.
          5    1    5    5  501    0 -0.12980176152E+03  0.29130530284E+00  0.21255265386E+03  0.24909697472E+03  0.47000000000E+01 0. -1.
        -13    1    6    6    0    0 -0.52500024524E+02 -0.16767993850E+02  0.50203676645E+02  0.74550837295E+02  0.00000000000E+00 0.  1.
         14    1    6    6    0    0  0.13729768099E+02  0.45276259247E+01 -0.15804950785E+02  0.21419673151E+02  0.00000000000E+00 0. -1.
         -5    1    3    3    0  503  0.23450376663E+02 -0.46323925731E+02 -0.98852843005E+02  0.11175777750E+03  0.47000000000E+01 0.  1.
         11    1    4    4    0    0  0.26149485510E+02  0.28503678727E+02  0.34033478806E+01  0.38830890670E+02  0.00000000000E+00 0. -1.
        -12    1    4    4    0    0  0.11897215577E+03  0.29769309626E+02 -0.12382266055E+03  0.17427747104E+03  0.00000000000E+00 0.  1.
</event>
<event>
12    1  0.8196217E-002  0.1724129E+03  0.7818608E-02  0.1175491E+00
         21   -1    0    0  503  502  0.00000000000E+00  0.00000000000E+00  0.11190790629E+03  0.11190790629E+03  0.00000000000E+00 0.  1.
         21   -1    0    0  501  503 -0.00000000000E+00 -0.00000000000E+00 -0.43209556035E+03  0.43209556035E+03  0.00000000000E+00 0.  1.
          6    2    1    2  501    0  0.27084070167E+00  0.60400278791E+01 -0.32948748453E+03  0.37187123537E+03  0.17230687142E+03 0.  0.
         24    2    3    3    0    0 -0.33612125032E+02  0.41605555551E+02 -0.10839741655E+03  0.14534117051E+03  0.80704762732E+02 0.  0.
         -6    2    1    2    0  502 -0.27084070167E+00 -0.60400278791E+01  0.92998304679E+01  0.17213223127E+03  0.17177445358E+03 0.  0.
        -24    2    5    5    0    0  0.24112528699E+02 -0.61354187948E+02 -0.23767525448E+02  0.10306889053E+03  0.75581416430E+02 0.  0.
          5    1    3    3  501    0  0.33882965734E+02 -0.35565527672E+02 -0.22109006798E+03  0.22653006486E+03  0.47000000000E+01 0. -1.
        -11    1    4    4    0    0  0.12557692675E+02  0.48495636847E+02 -0.53932885751E+02  0.73608957362E+02  0.00000000000E+00 0.  1.
         12    1    4    4    0    0 -0.46169817707E+02 -0.68900812965E+01 -0.54464530801E+02  0.71732213146E+02  0.00000000000E+00 0. -1.
         -5    1    5    5    0  502 -0.24383369400E+02  0.55314160069E+02  0.33067355916E+02  0.69063340744E+02  0.47000000000E+01 0.  1.
         13    1    6    6    0    0 -0.22535194870E+02 -0.22299946109E+01 -0.15197728611E+02  0.27272309010E+02  0.00000000000E+00 0. -1.
        -14    1    6    6    0    0  0.46647723568E+02 -0.59124193337E+02 -0.85697968375E+01  0.75796581518E+02  0.00000000000E+00 0.  1.
</event>
<event>
12    1  0.8196217E-002  0.2008924E+03  0.7818608E-02  0.1149026E+00
         21   -1    0    0  503  502  0.00000000000E+00  0.00000000000E+00  0.25757282631E+03  0.25757282631E+03  0.00000000000E+00 0. -1.
         21   -1    0    0  501  503 -0.00000000000E+00 -0.00000000000E+00 -0.15923131964E+03  0.15923131964E+03  0.00000000000E+00 0.  1.
          6    2    1    2  501    0  0.68743850081E+02  0.74409852836E+02  0.76228551299E+02  0.21469836333E+03  0.17326872788E+03 0.  0.
         24    2    3    3    0    0  0.57012871599E+02  0.11304207685E+03  0.28783429371E+02  0.15222281465E+03  0.79462700857E+02 0.  0.
         -6    2    1    2    0  502 -0.68743850081E+02 -0.74409852836E+02  0.22112955371E+02  0.20210578261E+03  0.17347974362E+03 0.  0.
        -24    2    5    5    0    0 -0.25251927778E+02 -0.10642636280E+03  0.47691381947E+02  0.14216456038E+03  0.77279128884E+02 0.  0.
          5    1    3    3  501    0  0.11730978482E+02 -0.38632224014E+02  0.47445121928E+02  0.62475548682E+02  0.47000000000E+01 0. -1.
        -13    1    4    4    0    0  0.11126745172E+02  0.79704661722E+02 -0.13337327459E+02  0.81575252755E+02  0.00000000000E+00 0.  1.
         14    1    4    4    0    0  0.45886126428E+02  0.33337415129E+02  0.42120756830E+02  0.70647561897E+02  0.00000000000E+00 0. -1.
         -5    1    5    5    0  502 -0.43491922304E+02  0.32016509965E+02 -0.25578426576E+02  0.59941222227E+02  0.47000000000E+01 0.  1.
         13    1    6    6    0    0  0.26490442818E+02 -0.34327958622E+02  0.48813826410E+01  0.43634621579E+02  0.00000000000E+00 0. -1.
        -14    1    6    6    0    0 -0.51742370595E+02 -0.72098404179E+02  0.42809999306E+02  0.98529938803E+02  0.00000000000E+00 0.  1.
</event>
<event>
12    1  0.8196217E-002  0.2269638E+03  0.7818608E-02  0.1128839E+00
         21   -1    0    0  503  502  0.00000000000E+00  0.00000000000E+00  0.21746941799E+04  0.21746941799E+04  0.00000000000E+00 0.  1.
         21   -1    0    0  501  503 -0.00000000000E+00 -0.00000000000E+00 -0.36390754639E+02  0.36390754639E+02  0.00000000000E+00 0.  1.
          6    2    1    2  501    0  0.67893249093E+02 -0.13164233285E+03  0.41492865933E+03  0.47282915219E+03  0.17164619936E+03 0.  0.
         24    2    3    3    0    0  0.22493273013E+02 -0.42492854295E+02  0.32236261091E+03  0.33644971578E+03  0.83481544908E+02 0.  0.
         -6    2    1    2    0  502 -0.67893249093E+02  0.13164233285E+03  0.17233747659E+04  0.17382557823E+04  0.17196913665E+03 0.  0.
        -24    2    5    5    0    0 -0.31393166191E+02  0.10575804783E+01  0.79299046166E+03  0.79803151271E+03  0.83867595781E+02 0.  0.
          5    1    3    3  501    0  0.45399976080E+02 -0.89149478552E+02  0.92566048424E+02  0.13637943641E+03  0.47000000000E+01 0. -1.
        -11    1    4    4    0    0  0.15736614437E+02 -0.57964077752E+02  0.30937068579E+03  0.31514710306E+03  0.00000000000E+00 0.  1.
         12    1    4    4    0    0  0.67566585755E+01  0.15471223457E+02  0.12991925126E+02  0.21302612723E+02  0.00000000000E+00 0. -1.
         -5    1    5    5    0  502 -0.36500082902E+02  0.13058475237E+03  0.93038430425E+03  0.94022426963E+03  0.47000000000E+01 0.  1.
         11    1    6    6    0    0  0.28183880749E+02  0.56660065394E+01  0.20356992037E+03  0.20558975472E+03  0.00000000000E+00 0. -1.
        -12    1    6    6    0    0 -0.59577046940E+02 -0.46084260611E+01  0.58942054129E+03  0.59244175799E+03  0.00000000000E+00 0.  1.
</event>
<event>
12    1  0.8196217E-002  0.1845220E+03  0.7818608E-02  0.1163810E+00
         21   -1    0    0  503  502  0.00000000000E+00  0.00000000000E+00  0.54177577442E+02  0.54177577442E+02  0.00000000000E+00 0.  1.
         21   -1    0    0  501  503 -0.00000000000E+00 -0.00000000000E+00 -0.39869304311E+04  0.39869304311E+04  0.00000000000E+00 0.  1.
          6    2    1    2  501    0 -0.39967840086E+02  0.54427172007E+02 -0.38232150444E+04  0.38276653003E+04  0.17172253817E+03 0.  0.
         24    2    3    3    0    0 -0.29177207191E+02  0.67928307728E+02 -0.37672132121E+04  0.37688689258E+04  0.83737868723E+02 0.  0.
         -6    2    1    2    0  502  0.39967840086E+02 -0.54427172007E+02 -0.10953780929E+03  0.21344270828E+03  0.17029243306E+03 0.  0.
        -24    2    5    5    0    0  0.19341039900E+02  0.27073943594E+02 -0.20090972581E+02  0.90598403044E+02  0.81837333832E+02 0.  0.
          5    1    3    3  501    0 -0.10790632895E+02 -0.13501135721E+02 -0.56001832336E+02  0.58796374455E+02  0.47000000000E+01 0. -1.
        -13    1    4    4    0    0 -0.54949308140E+02  0.53218251818E+02 -0.21022504514E+04  0.21036417398E+04  0.00000000000E+00 0.  1.
         14    1    4    4    0    0  0.25772100949E+02  0.14710055910E+02 -0.16649627606E+04  0.16652271860E+04  0.00000000000E+00 0. -1.
         -5    1    5    5    0  502  0.20626800187E+02 -0.81501115601E+02 -0.89446836712E+02  0.12284430523E+03  0.47000000000E+01 0.  1.
         11    1    6    6    0    0  0.17285966227E+02  0.50449040840E+02 -0.34072207676E+02  0.63283692102E+02  0.00000000000E+00 0. -1.
        -12    1    6    6    0    0  0.20550736722E+01 -0.23375097246E+02  0.13981235095E+02  0.27314710942E+02  0.00000000000E+00 0.  1.
</event>
<event>
12    1  0.8196217E-002  0.1771181E+03  0.7818608E-02  0.1171662E+00
         21   -1    0    0  501  502  0.00000000000E+00  0.00000000000E+00  0.45526152943E+03  0.45526152943E+03  0.00000000000E+00 0.  1.
         21   -1    0    0  502  503 -0.00000000000E+00 -0.00000000000E+00 -0.17760074965E+03  0.17760074965E+03  0.00000000000E+00 0.  1.
         -6    2    1    2    0  503 -0.15083948671E+02 -0.12997093289E+02 -0.11115895202E+03  0.20560169841E+03  0.17181180353E+03 0.  0.
        -24    2    3    3    0    0 -0.59070037156E+02  0.33529303902E+02 -0.92085568541E+02  0.13862882649E+03  0.78260565358E+02 0.  0.
          6    2    1    2  501    0  0.15083948671E+02  0.12997093289E+02  0.38881973180E+03  0.42726058067E+03  0.17599536932E+03 0.  0.
         24    2    5    5    0    0 -0.69626597605E+01 -0.42728558082E+02  0.12081018645E+03  0.15259240349E+03  0.82553813631E+02 0.  0.
          5    1    5    5  501    0  0.22046608432E+02  0.55725651371E+02  0.26800954534E+03  0.27466817718E+03  0.47000000000E+01 0. -1.
        -13    1    6    6    0    0 -0.91255242952E+00  0.21086178408E+02  0.62392067082E+02  0.65865238985E+02  0.00000000000E+00 0.  1.
         14    1    6    6    0    0 -0.60501073310E+01 -0.63814736490E+02  0.58418119372E+02  0.86727164505E+02  0.00000000000E+00 0. -1.
         -5    1    3    3    0  503  0.43986088484E+02 -0.46526397190E+02 -0.19073383481E+02  0.66972871919E+02  0.47000000000E+01 0.  1.
         13    1    4    4    0    0  0.18329551423E+02  0.13600374208E+02 -0.13377310520E+02  0.26455530060E+02  0.00000000000E+00 0. -1.
        -14    1    4    4    0    0 -0.77399588579E+02  0.19928929693E+02 -0.78708258021E+02  0.11217329643E+03  0.00000000000E+00 0.  1.
</event>
<event>
12    1  0.8196217E-002  0.2191528E+03  0.7818608E-02  0.1134610E+00
         21   -1    0    0  501  502  0.00000000000E+00  0.00000000000E+00  0.11191284636E+04  0.11191284636E+04  0.00000000000E+00 0.  1.
         21   -1    0    0  502  503 -0.00000000000E+00 -0.00000000000E+00 -0.56164081838E+02  0.56164081838E+02  0.00000000000E+00 0.  1.
         -6    2    1    2    0  503  0.72330117577E+02 -0.11502244047E+03  0.24456075954E+03  0.32805442452E+03  0.17131238316E+03 0.  0.
        -24    2    3    3    0    0 -0.40894359913E+01 -0.62728973519E+02  0.50223867608E+02  0.11273263645E+03  0.78959247957E+02 0.  0.
          6    2    1    2  501    0 -0.72330117577E+02  0.11502244047E+03  0.81840362221E+03  0.84723812091E+03  0.17194806468E+03 0.  0.
         24    2    5    5    0    0 -0.11230643605E+03  0.56130277774E+02  0.56877223020E+03  0.58761471144E+03  0.77626384642E+02 0.  0.
          5    1    5    5  501    0  0.39976318469E+02  0.58892162693E+02  0.24963139201E+03  0.25962340946E+03  0.47000000000E+01 0. -1.
        -11    1    6    6    0    0 -0.77506249859E+02  0.63943511658E+02  0.50155807637E+03  0.51152369977E+03  0.00000000000E+00 0.  1.
         12    1    6    6    0    0 -0.34800186186E+02 -0.78132338844E+01  0.67214153832E+02  0.76091011674E+02  0.00000000000E+00 0. -1.
         -5    1    3    3    0  503  0.76419553568E+02 -0.52293466948E+02  0.19433689193E+03  0.21532178807E+03  0.47000000000E+01 0.  1.
         11    1    4    4    0    0  0.15366757064E+02 -0.10544364313E+02  0.53787986480E+02  0.56925111603E+02  0.00000000000E+00 0. -1.
        -12    1    4    4    0    0 -0.19456193055E+02 -0.52184609205E+02 -0.35641188726E+01  0.55807524846E+02  0.00000000000E+00 0.  1.
</event>
<event>
12    1  0.8196217E-002  0.1733102E+03  0.7818608E-02  0.1174968E+00
         21   -1    0    0  503  502  0.00000000000E+00  0.00000000000E+00  0.20927026931E+03  0.20927026931E+03  0.00000000000E+00 0. -1.
         21   -1    0    0  501  503 -0.00000000000E+00 -0.00000000000E+00 -0.44671591338E+03  0.44671591338E+03  0.00000000000E+00 0. -1.
          6    2    1    2  501    0 -0.16355086408E+02 -0.79488027633E+01 -0.38991797483E+03  0.42669950091E+03  0.17235360355E+03 0.  0.
         24    2    3    3    0    0 -0.70704434274E+02 -0.29729838572E+02 -0.21182339388E+03  0.23916807714E+03  0.80307151618E+02 0.  0.
         -6    2    1    2    0  502  0.16355086408E+02  0.79488027633E+01  0.15247233076E+03  0.22928668178E+03  0.17027594802E+03 0.  0.
        -24    2    5    5    0    0 -0.23550018679E+01  0.52605114237E+02  0.34783017425E+02  0.10194023294E+03  0.80056909211E+02 0.  0.
          5    1    3    3  501    0  0.54349347866E+02  0.21781035809E+02 -0.17809458095E+03  0.18753142376E+03  0.47000000000E+01 0. -1.
        -11    1    4    4    0    0  0.11749287297E+02 -0.24156332394E+02 -0.36257022267E+02  0.45123672395E+02  0.00000000000E+00 0.  1.
         12    1    4    4    0    0 -0.82453721570E+02 -0.55735061781E+01 -0.17556637162E+03  0.19404440475E+03  0.00000000000E+00 0. -1.
         -5    1    5    5    0  502  0.18710088276E+02 -0.44656311473E+02  0.11768931334E+03  0.12734644884E+03  0.47000000000E+01 0.  1.
         11    1    6    6    0    0 -0.31081660860E+02  0.27250273126E+02  0.46168113119E+02  0.61968876836E+02  0.00000000000E+00 0. -1.
        -12    1    6    6    0    0  0.28726658992E+02  0.25354841111E+02 -0.11385095694E+02  0.39971356101E+02  0.00000000000E+00 0.  1.
</event>
<event>
12    1  0.8196217E-002  0.2225125E+03  0.7818608E-02  0.1133268E+00
         21   -1    0    0  503  502  0.00000000000E+00  0.00000000000E+00  0.62791809970E+02  0.62791809970E+02  0.00000000000E+00 0. -1.
         21   -1    0    0  501  503 -0.00000000000E+00 -0.00000000000E+00 -0.77736471660E+03  0.77736471660E+03  0.00000000000E+00 0.  1.
          6    2    1    2  501    0 -0.85562608974E+02 -0.11154871739E+03 -0.41545219429E+03  0.47128795607E+03  0.17247531820E+03 0.  0.
         24    2    3    3    0    0 -0.17908909338E+01 -0.96051643912E+02 -0.30127078580E+03  0.32874903481E+03  0.89903926063E+02 0.  0.
         -6    2    1    2    0  502  0.85562608974E+02  0.11154871739E+03 -0.29912071234E+03  0.36886857050E+03  0.16378872167E+03 0.  0.
        -24    2    5    5    0    0  0.90995482263E+02  0.51486327018E+02 -0.11169072219E+03  0.17191908952E+03  0.78424079577E+02 0.  0.
          5    1    3    3  501    0 -0.83771718040E+02 -0.15497073480E+02 -0.11418140849E+03  0.14253892126E+03  0.47000000000E+01 0. -1.
        -11    1    4    4    0    0  0.53108140637E+01 -0.10206070748E+03 -0.17896484563E+03  0.20608980743E+03  0.00000000000E+00 0.  1.
         12    1    4    4    0    0 -0.71017049976E+01  0.60090635657E+01 -0.12230594017E+03  0.12265922738E+03  0.00000000000E+00 0. -1.
         -5    1    5    5    0  502 -0.54328732894E+01  0.60062390374E+02 -0.18742999015E+03  0.19694948098E+03  0.47000000000E+01 0.  1.
         13    1    6    6    0    0  0.75961208077E+02  0.62234549822E+02 -0.55568417035E+02  0.11283214655E+03  0.00000000000E+00 0. -1.
        -14    1    6    6    0    0  0.15034274186E+02 -0.10748222804E+02 -0.56122305155E+02  0.59086942971E+02  0.00000000000E+00 0.  1.
</event>
<event>
12    1  0.8196217E-002  0.2024595E+03  0.7818608E-02  0.1147900E+00
         21   -1    0    0  501  502  0.00000000000E+00  0.00000000000E+00  0.42235588408E+03  0.42235588408E+03  0.00000000000E+00 0.  1.
         21   -1    0    0  502  503 -0.00000000000E+00 -0.00000000000E+00 -0.15282428761E+03  0.15282428761E+03  0.00000000000E+00 0.  1.
         -6    2    1    2    0  503  0.71775682686E+01 -0.10512651869E+03  0.30951021460E+03  0.36984650543E+03  0.17287788240E+03 0.  0.
        -24    2    3    3    0    0  0.46478839889E+02 -0.10061909199E+02  0.18307554123E+03  0.20678306208E+03  0.83552716248E+02 0.  0.
          6    2    1    2  501    0 -0.71775682686E+01  0.10512651869E+03 -0.39978618126E+02  0.20533366626E+03  0.17164067750E+03 0.  0.
         24    2    5    5    0    0 -0.48165808107E+02  0.12496786856E+03 -0.23956680688E+02  0.15683101222E+03  0.78007247098E+02 0.  0.
          5    1    5    5  501    0  0.40988239838E+02 -0.19841349871E+02 -0.16021937438E+02  0.48502654041E+02  0.47000000000E+01 0. -1.
        -11    1    6    6    0    0 -0.50946704251E+01  0.10186332622E+03  0.90458393134E+00  0.10199466244E+03  0.00000000000E+00 0.  1.
         12    1    6    6    0    0 -0.43071137682E+02  0.23104542346E+02 -0.24861264619E+02  0.54836349775E+02  0.00000000000E+00 0. -1.
         -5    1    3    3    0  503 -0.39301271620E+02 -0.95064609492E+02  0.12643467337E+03  0.16306344336E+03  0.47000000000E+01 0.  1.
         13    1    4    4    0    0  0.55101039303E+02 -0.27862030365E+02  0.76117444414E+02  0.98011645290E+02  0.00000000000E+00 0. -1.
        -14    1    4    4    0    0 -0.86221994136E+01  0.17800121166E+02  0.10695809681E+03  0.10877141679E+03  0.00000000000E+00 0.  1.
</event>
<event>
12    1  0.8196217E-002  0.1928790E+03  0.7818608E-02  0.1156539E+00
         21   -1    0    0  501  502  0.00000000000E+00  0.00000000000E+00  0.26535855347E+03  0.26535855347E+03  0.00000000000E+00 0. -1.
         21   -1    0    0  502  503 -0.00000000000E+00 -0.00000000000E+00 -0.32009152390E+03  0.32009152390E+03  0.00000000000E+00 0. -1.
         -6    2    1    2    0  503  0.81995265162E+02 -0.18298597694E+02 -0.24800408458E+03  0.31240053922E+03  0.17038194960E+03 0.  0.
        -24    2    3    3    0    0  0.12379177924E+03 -0.16271278106E+02 -0.20029958782E+03  0.24876982632E+03  0.78596071821E+02 0.  0.
          6    2    1    2  501    0 -0.81995265162E+02  0.18298597694E+02  0.19327111416E+03  0.27304953814E+03  0.17362103711E+03 0.  0.
         24    2    5    5    0    0  0.24692857337E+02  0.14880287116E+02  0.10499578004E+03  0.13445421015E+03  0.78883842776E+02 0.  0.
          5    1    5    5  501    0 -0.10668812250E+03  0.34183105782E+01  0.88275334113E+02  0.13859532800E+03  0.47000000000E+01 0. -1.
        -13    1    6    6    0    0  0.50851325181E+02  0.16743242675E+02  0.48800271618E+02  0.72440734106E+02  0.00000000000E+00 0.  1.
         14    1    6    6    0    0 -0.26158467844E+02 -0.18629555588E+01  0.56195508427E+02  0.62013476041E+02  0.00000000000E+00 0. -1.
         -5    1    3    3    0  503 -0.41796514078E+02 -0.20273195886E+01 -0.47704496761E+02  0.63630712907E+02  0.47000000000E+01 0.  1.
         11    1    4    4    0    0  0.87581218279E+02 -0.42030368129E+02 -0.10181755861E+03  0.14072610590E+03  0.00000000000E+00 0. -1.
        -12    1    4    4    0    0  0.36210560960E+02  0.25759090023E+02 -0.98482029214E+02  0.10804372042E+03  0.00000000000E+00 0.  1.
</event>
<event>
12    1  0.8196217E-002  0.3232508E+03  0.7818608E-02  0.1074555E+00
         21   -1    0    0  501  502  0.00000000000E+00  0.00000000000E+00  0.13420701677E+04  0.13420701677E+04  0.00000000000E+00 0.  1.
         21   -1    0    0  502  503 -0.00000000000E+00 -0.00000000000E+00 -0.17835988749E+03  0.17835988749E+03  0.00000000000E+00 0.  1.
         -6    2    1    2    0  503  0.16732539983E+03 -0.21746117758E+03  0.75271053129E+01  0.31990908255E+03  0.16431071359E+03 0.  0.
        -24    2    3    3    0    0  0.12127201674E+03 -0.61657164928E+02  0.57464032083E+01  0.15736350324E+03  0.78878025904E+02 0.  0.
          6    2    1    2  501    0 -0.16732539983E+03  0.21746117758E+03  0.11561831749E+04  0.12005209727E+04  0.17089154064E+03 0.  0.
         24    2    5    5    0    0 -0.18920112044E+03  0.21706712093E+03  0.10342095002E+04  0.10765114176E+04  0.79826955805E+02 0.  0.
          5    1    5    5  501    0  0.21875720611E+02  0.39405665519E+00  0.12197367469E+03  0.12400955508E+03  0.47000000000E+01 0. -1.
        -13    1    6    6    0    0 -0.14459758909E+03  0.19248238624E+03  0.92804703700E+03  0.95876443126E+03  0.00000000000E+00 0.  1.
         14    1    6    6    0    0 -0.44603531357E+02  0.24584734685E+02  0.10616246325E+03  0.11774698634E+03  0.00000000000E+00 0. -1.
         -5    1    3    3    0  503  0.46053383091E+02 -0.15580401265E+03  0.17807021045E+01  0.16254557931E+03  0.47000000000E+01 0.  1.
         13    1    4    4    0    0  0.44151989405E+02 -0.73923230366E+01  0.36940017352E+02  0.58039723382E+02  0.00000000000E+00 0. -1.
        -14    1    4    4    0    0  0.77120027337E+02 -0.54264841891E+02 -0.31193614144E+02  0.99323779858E+02  0.00000000000E+00 0.  1.
</event>
<event>
12    1  0.8196217E-002  0.2958268E+03  0.7818608E-02  0.1087426E+00
         21   -1    0    0  501  502  0.00000000000E+00  0.00000000000E+00  0.14340360199E+03  0.14340360199E+03  0.00000000000E+00 0. -1.
         21   -1    0    0  502  503 -0.00000000000E+00 -0.00000000000E+00 -0.65365802235E+03  0.65365802235E+03  0.00000000000E+00 0. -1.
         -6    2    1    2    0  503 -0.23448684863E+03 -0.51009878155E+02 -0.35908803064E+03  0.46484965806E+03  0.17191538908E+03 0.  0.
        -24    2    3    3    0    0 -0.16772381680E+03 -0.46790081388E+02 -0.14317959207E+03  0.23876637043E+03  0.78666343652E+02 0.  0.
          6    2    1    2  501    0  0.23448684863E+03  0.51009878155E+02 -0.15116638973E+03  0.33221196628E+03  0.17299544302E+03 0.  0.
         24    2    5    5    0    0  0.31369719350E+02  0.54268269258E+00 -0.38032308227E+02  0.94252061209E+02  0.80328331095E+02 0.  0.
          5    1    5    5  501    0  0.20311712928E+03  0.50467195463E+02 -0.11313408150E+03  0.23795990507E+03  0.47000000000E+01 0. -1.
        -11    1    6    6    0    0  0.58188436583E+02 -0.47992421476E+01 -0.21062676621E+02  0.62069019838E+02  0.00000000000E+00 0.  1.
         12    1    6    6    0    0 -0.26818717233E+02  0.53419248402E+01 -0.16969631606E+02  0.32183041371E+02  0.00000000000E+00 0. -1.
         -5    1    3    3    0  503 -0.66763031834E+02 -0.42197967677E+01 -0.21590843856E+03  0.22608328763E+03  0.47000000000E+01 0.  1.
         11    1    4    4    0    0 -0.55812317595E+02 -0.18026866720E+02 -0.98980565425E+02  0.11505274899E+03  0.00000000000E+00 0. -1.
        -12    1    4    4    0    0 -0.11191149920E+03 -0.28763214668E+02 -0.44199026649E+02  0.12371362143E+03  0.00000000000E+00 0.  1.
</event>
<event>
12    1  0.8196217E-002  0.2194035E+03  0.7818608E-02  0.1135033E+00
         21   -1    0    0  503  502  0.00000000000E+00  0.00000000000E+00  0.16165013871E+03  0.16165013871E+03  0.00000000000E+00 0.  1.
         21   -1    0    0  501  503 -0.00000000000E+00 -0.00000000000E+00 -0.43548529651E+03  0.43548529651E+03  0.00000000000E+00 0.  1.
          6    2    1    2  501    0 -0.11880186868E+03  0.67594552364E+02 -0.30863836893E+03  0.37867600718E+03  0.17162449745E+03 0.  0.
         24    2    3    3    0    0 -0.99939081148E+02 -0.17879892064E+02 -0.10836854666E+03  0.16006270220E+03  0.59739570204E+02 0.  0.
         -6    2    1    2    0  502  0.11880186868E+03 -0.67594552364E+02  0.34803211137E+02  0.21845942804E+03  0.16682431082E+03 0.  0.
        -24    2    5    5    0    0  0.35207411278E+02  0.16876123456E+02  0.48452965002E+02  0.98744206941E+02  0.76670484771E+02 0.  0.
          5    1    3    3  501    0 -0.18862787533E+02  0.85474444428E+02 -0.20026982227E+03  0.21861330499E+03  0.47000000000E+01 0. -1.
        -13    1    4    4    0    0 -0.63460027616E+02  0.18051078419E+02 -0.69062639128E+02  0.95512641365E+02  0.00000000000E+00 0.  1.
         14    1    4    4    0    0 -0.36479053532E+02 -0.35930970482E+02 -0.39305907532E+02  0.64550060831E+02  0.00000000000E+00 0. -1.
         -5    1    5    5    0  502  0.83594457403E+02 -0.84470675820E+02 -0.13649753865E+02  0.11971522110E+03  0.47000000000E+01 0.  1.
         13    1    6    6    0    0 -0.12563431802E+02  0.30846432157E+02  0.71470236541E+01  0.34064969435E+02  0.00000000000E+00 0. -1.
        -14    1    6    6    0    0  0.47770843080E+02 -0.13970308701E+02  0.41305941347E+02  0.64679237506E+02  0.00000000000E+00 0.  1.
</event>
<event>
12    1  0.8196217E-002  0.2192941E+03  0.7818608E-02  0.1134498E+00
         21   -1    0    0  501  502  0.00000000000E+00  0.00000000000E+00  0.23070970348E+03  0.23070970348E+03  0.00000000000E+00 0.  1.
         21   -1    0    0  502  503 -0.00000000000E+00 -0.00000000000E+00 -0.33137867223E+03  0.33137867223E+03  0.00000000000E+00 0. -1.
         -6    2    1    2    0  503  0.12934542536E+03 -0.36511630380E+02  0.12112123557E+03  0.25051998674E+03  0.17328177007E+03 0.  0.
        -24    2    3    3    0    0  0.14372274466E+03 -0.43291515491E+02  0.49272723406E+02  0.17678415520E+03  0.79337592690E+02 0.  0.
          6    2    1    2  501    0 -0.12934542536E+03  0.36511630380E+02 -0.22179020432E+03  0.31156838897E+03  0.17268650225E+03 0.  0.
         24    2    5    5    0    0 -0.45196240253E+02 -0.48160099771E+02 -0.11204557571E+03  0.14934520706E+03  0.73400848041E+02 0.  0.
          5    1    5    5  501    0 -0.84149185103E+02  0.84671730151E+02 -0.10974462861E+03  0.16222318191E+03  0.47000000000E+01 0. -1.
        -13    1    6    6    0    0 -0.14537644861E+02 -0.12810298882E+01  0.81664297122E+01  0.16723478404E+02  0.00000000000E+00 0.  1.
         14    1    6    6    0    0 -0.30658595392E+02 -0.46879069883E+02 -0.12021200543E+03  0.13262172866E+03  0.00000000000E+00 0. -1.
         -5    1    3    3    0  503 -0.14377319300E+02  0.67798851105E+01  0.71848512164E+02  0.73735831538E+02  0.47000000000E+01 0.  1.
         13    1    4    4    0    0  0.83387226630E+02  0.11910649011E+01 -0.60567067383E+01  0.83615380745E+02  0.00000000000E+00 0. -1.
        -14    1    4    4    0    0  0.60335518026E+02 -0.44482580392E+02  0.55329430144E+02  0.93168774457E+02  0.00000000000E+00 0.  1.
</event>
<event>
12    1  0.8196217E-002  0.2049520E+03  0.7818608E-02  0.1145915E+00
         21   -1    0    0  503  502  0.00000000000E+00  0.00000000000E+00  0.37649881601E+03  0.37649881601E+03  0.00000000000E+00 0.  1.
         21   -1    0    0  501  503 -0.00000000000E+00 -0.00000000000E+00 -0.37311878526E+03  0.37311878526E+03  0.00000000000E+00 0.  1.
          6    2    1    2  501    0 -0.89686760095E+02 -0.66848437362E+02  0.31595606460E+03  0.37660794924E+03  0.17173492412E+03 0.  0.
         24    2    3    3    0    0 -0.34476074172E+02  0.30128090212E+02  0.12547494323E+03  0.15579623230E+03  0.80201016891E+02 0.  0.
         -6    2    1    2    0  502  0.89686760095E+02  0.66848437362E+02 -0.31257603385E+03  0.37300965203E+03  0.17005879882E+03 0.  0.
        -24    2    5    5    0    0  0.90959309739E+02  0.20111118126E+02 -0.10818459034E+03  0.16328614698E+03  0.79249019594E+02 0.  0.
          5    1    3    3  501    0 -0.55210685923E+02 -0.96976527574E+02  0.19048112137E+03  0.22081171694E+03  0.47000000000E+01 0. -1.
        -13    1    4    4    0    0 -0.58004354240E+02  0.89842680853E+01  0.65224409469E+02  0.87746485824E+02  0.00000000000E+00 0.  1.
         14    1    4    4    0    0  0.23528280068E+02  0.21143822127E+02  0.60250533760E+02  0.68049746476E+02  0.00000000000E+00 0. -1.
         -5    1    5    5    0  502 -0.12725496444E+01  0.46737319236E+02 -0.20439144351E+03  0.20972350506E+03  0.47000000000E+01 0.  1.
         13    1    6    6    0    0  0.83136520900E+01 -0.12146600102E+02  0.82732523452E+01  0.16885005463E+02  0.00000000000E+00 0. -1.
        -14    1    6    6    0    0  0.82645657649E+02  0.32257718227E+02 -0.11645784269E+03  0.14640114151E+03  0.00000000000E+00 0.  1.
</event>
<event>
12    1  0.8196217E-002  0.1742785E+03  0.7818608E-02  0.1173604E+00
         21   -1    0    0  503  502  0.00000000000E+00  0.00000000000E+00  0.27170616594E+03  0.27170616594E+03  0.00000000000E+00 0.  1.
         21   -1    0    0  501  503 -0.00000000000E+00 -0.00000000000E+00 -0.16359340221E+03  0.16359340221E+03  0.00000000000E+00 0.  1.
          6    2    1    2  501    0  0.19124046767E+02 -0.15967613397E+02 -0.68923419104E+02  0.18687492020E+03  0.17190434624E+03 0.  0.
         24    2    3    3    0    0  0.56272717987E+02  0.16621124763E+02 -0.97269268972E+01  0.10961973062E+03  0.92081440344E+02 0.  0.
         -6    2    1    2    0  502 -0.19124046767E+02  0.15967613397E+02  0.17703618283E+03  0.24842464794E+03  0.17248855565E+03 0.  0.
        -24    2    5    5    0    0  0.43851841683E+02  0.44281408526E+02  0.79483876122E+02  0.12881621987E+03  0.79950639641E+02 0.  0.
          5    1    3    3  501    0 -0.37148671220E+02 -0.32588738160E+02 -0.59196492206E+02  0.77255189585E+02  0.47000000000E+01 0. -1.
        -13    1    4    4    0    0  0.66914693703E+02 -0.54785503798E+00 -0.36388056940E+02  0.76170644387E+02  0.00000000000E+00 0.  1.
         14    1    4    4    0    0 -0.10641975716E+02  0.17168979801E+02  0.26661130043E+02  0.33449086231E+02  0.00000000000E+00 0. -1.
         -5    1    5    5    0  502 -0.62975888450E+02 -0.28313795129E+02  0.97552306708E+02  0.11960842807E+03  0.47000000000E+01 0.  1.
         13    1    6    6    0    0  0.22477066869E+02  0.17572068849E+02 -0.12146245354E+02  0.31008505525E+02  0.00000000000E+00 0. -1.
        -14    1    6    6    0    0  0.21374774814E+02  0.26709339677E+02  0.91630121477E+02  0.97807714349E+02  0.00000000000E+00 0.  1.
</event>
<event>
12    1  0.8196217E-002  0.1899354E+03  0.7818608E-02  0.1161505E+00
         21   -1    0    0  501  502  0.00000000000E+00  0.00000000000E+00  0.36484318235E+03  0.36484318235E+03  0.00000000000E+00 0.  1.
         21   -1    0    0  502  503 -0.00000000000E+00 -0.00000000000E+00 -0.92480983666E+02  0.92480983666E+02  0.00000000000E+00 0.  1.
         -6    2    1    2    0  503 -0.19203667844E+02 -0.33268663358E+02  0.14943785420E+03  0.24167563526E+03  0.18601036420E+03 0.  0.
        -24    2    3    3    0    0  0.29793456808E+02  0.41961960707E+02  0.10544899754E+03  0.14158830074E+03  0.79242031838E+02 0.  0.
          6    2    1    2  501    0  0.19203667844E+02  0.33268663358E+02  0.12292434448E+03  0.21564853075E+03  0.17296909992E+03 0.  0.
         24    2    5    5    0    0  0.58849842158E-02  0.49583165813E+02 -0.34943106885E+01  0.86658282158E+02  0.70985613279E+02 0.  0.
          5    1    5    5  501    0  0.19197782860E+02 -0.16314502455E+02  0.12641865517E+03  0.12899024859E+03  0.47000000000E+01 0. -1.
        -13    1    6    6    0    0  0.28592085251E+01  0.66982600833E+02  0.47146156441E+01  0.67209162235E+02  0.00000000000E+00 0.  1.
         14    1    6    6    0    0 -0.28533235409E+01 -0.17399435019E+02 -0.82089263326E+01  0.19449119922E+02  0.00000000000E+00 0. -1.
         -5    1    3    3    0  503 -0.48997124652E+02 -0.75230624064E+02  0.43988856659E+02  0.10008733452E+03  0.47000000000E+01 0.  1.
         11    1    4    4    0    0  0.11518565450E+02  0.48690853817E+02  0.19893637314E+02  0.53844529909E+02  0.00000000000E+00 0. -1.
        -12    1    4    4    0    0  0.18274891358E+02 -0.67288931107E+01  0.85555360227E+02  0.87743770835E+02  0.00000000000E+00 0.  1.
</event>
<event>
12    1  0.8196217E-002  0.1918873E+03  0.7818608E-02  0.1156782E+00
         21   -1    0    0  503  502  0.00000000000E+00  0.00000000000E+00  0.29795759242E+03  0.29795759242E+03  0.00000000000E+00 0.  1.
         21   -1    0    0  501  503 -0.00000000000E+00 -0.00000000000E+00 -0.16507408953E+03  0.16507408953E+03  0.00000000000E+00 0.  1.
          6    2    1    2  501    0 -0.83584558210E+02 -0.93428109217E+01 -0.49676313641E+02  0.19821317000E+03  0.17247335486E+03 0.  0.
         24    2    3    3    0    0 -0.97225120714E+01 -0.50752380339E+02  0.72239964953E+01  0.96085359917E+02  0.80683820646E+02 0.  0.
         -6    2    1    2    0  502  0.83584558210E+02  0.93428109217E+01  0.18255981654E+03  0.26481851195E+03  0.17241546093E+03 0.  0.
        -24    2    5    5    0    0 -0.34562924061E+01 -0.33282068219E+02  0.46066558102E+02  0.97350635635E+02  0.78964399960E+02 0.  0.
          5    1    3    3  501    0 -0.73862046138E+02  0.41409569417E+02 -0.56900310137E+02  0.10212781008E+03  0.47000000000E+01 0. -1.
        -11    1    4    4    0    0 -0.36240326669E+02 -0.40165197802E+01 -0.12942209866E+02  0.38691013226E+02  0.00000000000E+00 0.  1.
         12    1    4    4    0    0  0.26517814598E+02 -0.46735860558E+02  0.20166206361E+02  0.57394346692E+02  0.00000000000E+00 0. -1.
         -5    1    5    5    0  502  0.87040850616E+02  0.42624879141E+02  0.13649325844E+03  0.16746787631E+03  0.47000000000E+01 0.  1.
         11    1    6    6    0    0 -0.29239796197E+02  0.11535185632E+02  0.29364863757E+02  0.43015362520E+02  0.00000000000E+00 0. -1.
        -12    1    6    6    0    0  0.25783503791E+02 -0.44817253851E+02  0.16701694345E+02  0.54335273115E+02  0.00000000000E+00 0.  1.
</event>
<event>
12    1  0.8196217E-002  0.3263166E+03  0.7818608E-02  0.1072945E+00
         21   -1    0    0  503  502  0.00000000000E+00  0.00000000000E+00  0.61906975320E+03  0.61906975320E+03  0.00000000000E+00 0.  1.
         21   -1    0    0  501  503 -0.00000000000E+00 -0.00000000000E+00 -0.18069393303E+03  0.18069393303E+03  0.00000000000E+00 0. -1.
          6    2    1    2  501    0 -0.16548967718E+03 -0.22056894694E+03  0.31119728477E+03  0.45091712598E+03  0.17448498745E+03 0.  0.
         24    2    3    3    0    0 -0.85495504636E+02 -0.18594952502E+03  0.14634015237E+03  0.26437614893E+03  0.81194832090E+02 0.  0.
         -6    2    1    2    0  502  0.16548967718E+03  0.22056894694E+03  0.12717853540E+03  0.34884656026E+03  0.17170337542E+03 0.  0.
        -24    2    5    5    0    0  0.25584978178E+02  0.10815759309E+03  0.19557264415E+02  0.13952846442E+03  0.82055162790E+02 0.  0.
          5    1    3    3  501    0 -0.79994172541E+02 -0.34619421917E+02  0.16485713240E+03  0.18654097705E+03  0.47000000000E+01 0. -1.
        -11    1    4    4    0    0 -0.33796212609E+02 -0.17819082405E+02  0.52736572734E+02  0.65121807317E+02  0.00000000000E+00 0.  1.
         12    1    4    4    0    0 -0.51699292027E+02 -0.16813044262E+03  0.93603579636E+02  0.19925434161E+03  0.00000000000E+00 0. -1.
         -5    1    5    5    0  502  0.13990469900E+03  0.11241135385E+03  0.10762127098E+03  0.20931809584E+03  0.47000000000E+01 0.  1.
         11    1    6    6    0    0  0.55171986337E+02  0.59015298626E+02  0.11165763540E+02  0.81556286231E+02  0.00000000000E+00 0. -1.
        -12    1    6    6    0    0 -0.29587008159E+02  0.49142294467E+02  0.83915008754E+01  0.57972178191E+02  0.00000000000E+00 0.  1.
</event>
<event>
12    1  0.8196217E-002  0.1791852E+03  0.7818608E-02  0.1168763E+00
         21   -1    0    0  503  502  0.00000000000E+00  0.00000000000E+00  0.83161464352E+03  0.83161464352E+03  0.00000000000E+00 0.  1.
         21   -1    0    0  501  503 -0.00000000000E+00 -0.00000000000E+00 -0.38898099883E+02  0.38898099883E+02  0.00000000000E+00 0. -1.
          6    2    1    2  501    0  0.26953294131E+02 -0.37389911435E+02  0.44181801005E+03  0.47651133054E+03  0.17243957952E+03 0.  0.
         24    2    3    3    0    0  0.31171850937E+02 -0.11403936643E+02  0.44127828192E+03  0.44976346308E+03  0.80367384941E+02 0.  0.
         -6    2    1    2    0  502 -0.26953294131E+02  0.37389911435E+02  0.35089853359E+03  0.39400141286E+03  0.17315555701E+03 0.  0.
        -24    2    5    5    0    0 -0.25854784961E+02 -0.44388010292E+02  0.13845189253E+03  0.16630753833E+03  0.76488596515E+02 0.  0.
          5    1    3    3  501    0 -0.42185568062E+01 -0.25985974792E+02  0.53972813174E+00  0.26747867464E+02  0.47000000000E+01 0. -1.
        -11    1    4    4    0    0  0.53523221875E+02 -0.23780401463E+01  0.19238790466E+03  0.19970852815E+03  0.00000000000E+00 0.  1.
         12    1    4    4    0    0 -0.22351370938E+02 -0.90258964967E+01  0.24889037726E+03  0.25005493493E+03  0.00000000000E+00 0. -1.
         -5    1    5    5    0  502 -0.10985091700E+01  0.81777921727E+02  0.21244664106E+03  0.22769387454E+03  0.47000000000E+01 0.  1.
         11    1    6    6    0    0 -0.30548857817E+02  0.13030857825E+02  0.64654232128E+02  0.72685663659E+02  0.00000000000E+00 0. -1.
        -12    1    6    6    0    0  0.46940728564E+01 -0.57418868117E+02  0.73797660399E+02  0.93621874667E+02  0.00000000000E+00 0.  1.
</event>
<event>
12    1  0.8196217E-002  0.1954197E+03  0.7818608E-02  0.1153746E+00
         21   -1    0    0  503  502  0.00000000000E+00  0.00000000000E+00  0.94489135211E+03  0.94489135211E+03  0.00000000000E+00 0. -1.
         21   -1    0    0  501  503 -0.00000000000E+00 -0.00000000000E+00 -0.11431214220E+03  0.11431214220E+03  0.00000000000E+00 0. -1.
          6    2    1    2  501    0 -0.81749392163E+02 -0.42673574936E+02 -0.10893787818E+02  0.19533679319E+03  0.17185398175E+03 0.  0.
         24    2    3    3    0    0  0.10408272321E+02 -0.57556808345E+02  0.11615970876E+02  0.99194580836E+02  0.79268630417E+02 0.  0.
         -6    2    1    2    0  502  0.81749392163E+02  0.42673574936E+02  0.84147299773E+03  0.86386670111E+03  0.17229298962E+03 0.  0.
        -24    2    5    5    0    0  0.54290998419E+02 -0.18297027881E+02  0.24477215580E+03  0.26341240431E+03  0.78679048990E+02 0.  0.
          5    1    3    3  501    0 -0.92157664483E+02  0.14883233409E+02 -0.22509758694E+02  0.96142212353E+02  0.47000000000E+01 0. -1.
        -11    1    4    4    0    0 -0.21171845109E+02 -0.54246576870E+02  0.26675937583E+02  0.64051102828E+02  0.00000000000E+00 0.  1.
         12    1    4    4    0    0  0.31580117430E+02 -0.33102314750E+01 -0.15059966708E+02  0.35143478009E+02  0.00000000000E+00 0. -1.
         -5    1    5    5    0  502  0.27458393743E+02  0.60970602817E+02  0.59670084193E+03  0.60045429681E+03  0.47000000000E+01 0.  1.
         11    1    6    6    0    0  0.42054516640E+02  0.92418109328E+01  0.22064989155E+03  0.22481185040E+03  0.00000000000E+00 0. -1.
        -12    1    6    6    0    0  0.12236481780E+02 -0.27538838814E+02  0.24122264252E+02  0.38600553911E+02  0.00000000000E+00 0.  1.
</event>
<event>
12    1  0.8196217E-002  0.1883447E+03  0.7818608E-02  0.1160729E+00
         21   -1    0    0  503  502  0.00000000000E+00  0.00000000000E+00  0.41551460276E+03  0.41551460276E+03  0.00000000000E+00 0. -1.
         21   -1    0    0  501  503 -0.00000000000E+00 -0.00000000000E+00 -0.25007323159E+03  0.25007323159E+03  0.00000000000E+00 0. -1.
          6    2    1    2  501    0  0.67849758433E+02 -0.85141731588E+01 -0.18833483262E+03  0.26635267239E+03  0.17549260967E+03 0.  0.
         24    2    3    3    0    0  0.12254313882E+02  0.58774148708E+02 -0.85990115282E+02  0.13176031421E+03  0.79761592939E+02 0.  0.
         -6    2    1    2    0  502 -0.67849758433E+02  0.85141731588E+01  0.35377620379E+03  0.39923516197E+03  0.17191576810E+03 0.  0.
        -24    2    5    5    0    0 -0.40848406657E+02 -0.58025176256E+02  0.15991436629E+03  0.19244768638E+03  0.80174771866E+02 0.  0.
          5    1    3    3  501    0  0.55595444551E+02 -0.67288321867E+02 -0.10234471734E+03  0.13459235818E+03  0.47000000000E+01 0. -1.
        -13    1    4    4    0    0  0.25974933636E+02  0.64246364885E+02 -0.33009228840E+02  0.76758724370E+02  0.00000000000E+00 0.  1.
         14    1    4    4    0    0 -0.13720619754E+02 -0.54722161762E+01 -0.52980886441E+02  0.55001589835E+02  0.00000000000E+00 0. -1.
         -5    1    5    5    0  502 -0.27001351775E+02  0.66539349415E+02  0.19386183750E+03  0.20678747558E+03  0.47000000000E+01 0.  1.
         11    1    6    6    0    0 -0.58601332871E+02 -0.20623730349E+02  0.11900381411E+03  0.13424366741E+03  0.00000000000E+00 0. -1.
        -12    1    6    6    0    0  0.17752926214E+02 -0.37401445907E+02  0.40910552181E+02  0.58204018975E+02  0.00000000000E+00 0.  1.
</event>
<event>
12    1  0.8196217E-002  0.1894214E+03  0.7818608E-02  0.1159425E+00
         21   -1    0    0  501  502  0.00000000000E+00  0.00000000000E+00  0.19479701255E+03  0.19479701255E+03  0.00000000000E+00 0. -1.
         21   -1    0    0  502  503 -0.00000000000E+00 -0.00000000000E+00 -0.63681059497E+03  0.63681059497E+03  0.00000000000E+00 0. -1.
         -6    2    1    2    0  503  0.21207540571E+02  0.67729366307E+02 -0.57195603117E+03  0.60190017084E+03  0.17353122838E+03 0.  0.
        -24    2    3    3    0    0  0.34303853388E+02  0.10943273185E+03 -0.47737232848E+03  0.49759844064E+03  0.81040674816E+02 0.  0.
          6    2    1    2  501    0 -0.21207540571E+02 -0.67729366307E+02  0.12994244875E+03  0.22970743668E+03  0.17562300431E+03 0.  0.
         24    2    5    5    0    0  0.32159171389E+02 -0.11520276548E+02  0.13394083946E+02  0.89660733561E+02  0.81809025064E+02 0.  0.
          5    1    5    5  501    0 -0.53366711959E+02 -0.56209089759E+02  0.11654836480E+03  0.14004670312E+03  0.47000000000E+01 0. -1.
        -13    1    6    6    0    0  0.40750423310E+01  0.30183636082E+02 -0.12717658259E+02  0.33006009888E+02  0.00000000000E+00 0.  1.
         14    1    6    6    0    0  0.28084129058E+02 -0.41703912629E+02  0.26111742206E+02  0.56654723674E+02  0.00000000000E+00 0. -1.
         -5    1    3    3    0  503 -0.13096312817E+02 -0.41703365541E+02 -0.94583702694E+02  0.10430173020E+03  0.47000000000E+01 0.  1.
         11    1    4    4    0    0 -0.13756828312E+02  0.76789124248E+02 -0.33209173791E+03  0.34113156160E+03  0.00000000000E+00 0. -1.
        -12    1    4    4    0    0  0.48060681700E+02  0.32643607600E+02 -0.14528059056E+03  0.15646687904E+03  0.00000000000E+00 0.  1.
</event>
<event>
12    1  0.8196217E-002  0.1788943E+03  0.7818608E-02  0.1169053E+00
         21   -1    0    0  503  502  0.00000000000E+00  0.00000000000E+00  0.83669872228E+02  0.83669872228E+02  0.00000000000E+00 0.  1.
         21   -1    0    0  501  503 -0.00000000000E+00 -0.00000000000E+00 -0.48314301078E+03  0.48314301078E+03  0.00000000000E+00 0.  1.
          6    2    1    2  501    0 -0.48729168012E+02  0.27668864181E+02 -0.32975581459E+03  0.37481369327E+03  0.16913399879E+03 0.  0.
         24    2    3    3    0    0 -0.36788703313E+02  0.82028019642E+02 -0.26896833776E+03  0.29226249813E+03  0.70649815268E+02 0.  0.
         -6    2    1    2    0  502  0.48729168012E+02 -0.27668864181E+02 -0.69717323956E+02  0.19199918973E+03  0.16989139395E+03 0.  0.
        -24    2    5    5    0    0  0.38831955638E+01  0.45638278806E+02 -0.32301972052E+02  0.98153054939E+02  0.80577125136E+02 0.  0.
          5    1    3    3  501    0 -0.11940464699E+02 -0.54359155461E+02 -0.60787476835E+02  0.82551195144E+02  0.47000000000E+01 0. -1.
        -11    1    4    4    0    0 -0.29314295972E+02  0.23145444905E+02 -0.36085066055E+02  0.51934300422E+02  0.00000000000E+00 0.  1.
         12    1    4    4    0    0 -0.74744073404E+01  0.58882574737E+02 -0.23288327170E+03  0.24032819771E+03  0.00000000000E+00 0. -1.
         -5    1    5    5    0  502  0.44845972448E+02 -0.73307142988E+02 -0.37415351904E+02  0.93846134795E+02  0.47000000000E+01 0.  1.
         11    1    6    6    0    0 -0.27674784570E+02  0.36260353137E+02  0.77909985709E+01  0.46275334351E+02  0.00000000000E+00 0. -1.
        -12    1    6    6    0    0  0.31557980134E+02  0.93779256699E+01 -0.40092970623E+02  0.51877720587E+02  0.00000000000E+00 0.  1.
</event>
<event>
12    1  0.8196217E-002  0.2400772E+03  0.7818608E-02  0.1119821E+00
         21   -1    0    0  503  502  0.00000000000E+00  0.00000000000E+00  0.11160878803E+03  0.11160878803E+03  0.00000000000E+00 0.  1.
         21   -1    0    0  501  503 -0.00000000000E+00 -0.00000000000E+00 -0.51595954091E+03  0.51595954091E+03  0.00000000000E+00 0. -1.
          6    2    1    2  501    0 -0.74319135707E+02  0.14960886678E+03 -0.21241732105E+03  0.32019964322E+03  0.17175723066E+03 0.  0.
         24    2    3    3    0    0 -0.78821466417E+02  0.78995491203E+02 -0.66217075406E+02  0.15770926929E+03  0.89634822182E+02 0.  0.
         -6    2    1    2    0  502  0.74319135707E+02 -0.14960886678E+03 -0.19193343183E+03  0.30736868572E+03  0.17242656337E+03 0.  0.
        -24    2    5    5    0    0  0.34802863205E+02 -0.17268936322E+02 -0.12868336788E+03  0.15538824758E+03  0.77952824641E+02 0.  0.
          5    1    3    3  501    0  0.45023307100E+01  0.70613375579E+02 -0.14620024565E+03  0.16249037393E+03  0.47000000000E+01 0. -1.
        -11    1    4    4    0    0 -0.54966984863E+02  0.29987943851E+02  0.10614183211E+02  0.63508322971E+02  0.00000000000E+00 0.  1.
         12    1    4    4    0    0 -0.23854481554E+02  0.49007547352E+02 -0.76831258617E+02  0.94200946324E+02  0.00000000000E+00 0. -1.
         -5    1    5    5    0  502  0.39516272502E+02 -0.13233993046E+03 -0.63250063957E+02  0.15198043814E+03  0.47000000000E+01 0.  1.
         11    1    6    6    0    0 -0.10496189644E+02 -0.32845415015E+02 -0.79877121831E+02  0.87001987773E+02  0.00000000000E+00 0. -1.
        -12    1    6    6    0    0  0.45299052849E+02  0.15576478693E+02 -0.48806246045E+02  0.68386259808E+02  0.00000000000E+00 0.  1.
</event>
<event>
12    1  0.8196217E-002  0.1856524E+03  0.7818608E-02  0.1162529E+00
         21   -1    0    0  501  502  0.00000000000E+00  0.00000000000E+00  0.58127006850E+03  0.58127006850E+03  0.00000000000E+00 0. -1.
         21   -1    0    0  502  503 -0.00000000000E+00 -0.00000000000E+00 -0.10300653304E+03  0.10300653304E+03  0.00000000000E+00 0.  1.
         -6    2    1    2    0  503  0.24466879169E+02  0.66959886837E+02  0.16089466599E+02  0.18634829111E+03  0.17141925226E+03 0.  0.
        -24    2    3    3    0    0  0.28003089576E+02 -0.15892312977E+02  0.46231070152E+02  0.97987677361E+02  0.80171905489E+02 0.  0.
          6    2    1    2  501    0 -0.24466879169E+02 -0.66959886837E+02  0.46217406886E+03  0.49792831043E+03  0.17101309242E+03 0.  0.
         24    2    5    5    0    0 -0.17184720624E+02  0.27216969215E+02  0.21581615499E+03  0.23404079315E+03  0.84630975820E+02 0.  0.
          5    1    5    5  501    0 -0.72821585452E+01 -0.94176856052E+02  0.24635791387E+03  0.26388751728E+03  0.47000000000E+01 0. -1.
        -13    1    6    6    0    0 -0.24222314287E+02 -0.19011001627E+02  0.32155689834E+02  0.44521085802E+02  0.00000000000E+00 0.  1.
         14    1    6    6    0    0  0.70375936633E+01  0.46227970842E+02  0.18366046516E+03  0.18951970735E+03  0.00000000000E+00 0. -1.
         -5    1    3    3    0  503 -0.35362104069E+01  0.82852199814E+02 -0.30141603553E+02  0.88360613753E+02  0.47000000000E+01 0.  1.
         11    1    4    4    0    0  0.36376666694E+02  0.33054926582E+01 -0.10093107630E+02  0.37895368887E+02  0.00000000000E+00 0. -1.
        -12    1    4    4    0    0 -0.83735771181E+01 -0.19197805635E+02  0.56324177782E+02  0.60092308474E+02  0.00000000000E+00 0.  1.
</event>
<event>
12    1  0.8196217E-002  0.1862610E+03  0.7818608E-02  0.1162403E+00
         21   -1    0    0  501  502  0.00000000000E+00  0.00000000000E+00  0.77159336610E+02  0.77159336610E+02  0.00000000000E+00 0.  1.
         21   -1    0    0  502  503 -0.00000000000E+00 -0.00000000000E+00 -0.44574105387E+03  0.44574105387E+03  0.00000000000E+00 0.  1.
         -6    2    1    2    0  503  0.65435999056E+02 -0.17798331437E+02 -0.16778672064E+03  0.24901758557E+03  0.17105181591E+03 0.  0.
        -24    2    3    3    0    0  0.10196423990E+03 -0.34668926869E+02 -0.15800395110E+03  0.20734358949E+03  0.80171533784E+02 0.  0.
          6    2    1    2  501    0 -0.65435999056E+02  0.17798331437E+02 -0.20079499662E+03  0.27388280491E+03  0.17347769189E+03 0.  0.
         24    2    5    5    0    0 -0.23373560653E+02 -0.58614938319E+01 -0.20860966130E+03  0.22476870266E+03  0.80139244191E+02 0.  0.
          5    1    5    5  501    0 -0.42062438404E+02  0.23659825269E+02  0.78146646793E+01  0.49114102255E+02  0.47000000000E+01 0. -1.
        -11    1    6    6    0    0  0.26002002733E+02  0.13345131433E+02 -0.55060855277E+02  0.62336943003E+02  0.00000000000E+00 0.  1.
         12    1    6    6    0    0 -0.49375563386E+02 -0.19206625265E+02 -0.15354880602E+03  0.16243175966E+03  0.00000000000E+00 0. -1.
         -5    1    3    3    0  503 -0.36528240843E+02  0.16870595432E+02 -0.97827695354E+01  0.41673996078E+02  0.47000000000E+01 0.  1.
         13    1    4    4    0    0  0.73648021426E+02 -0.32202218538E+02 -0.15978560982E+03  0.17886434816E+03  0.00000000000E+00 0. -1.
        -14    1    4    4    0    0  0.28316218474E+02 -0.24667083310E+01  0.17816587167E+01  0.28479241325E+02  0.00000000000E+00 0.  1.
</event>
<event>
12    1  0.8196217E-002  0.1784839E+03  0.7818608E-02  0.1169531E+00
         21   -1    0    0  503  502  0.00000000000E+00  0.00000000000E+00  0.18618340821E+03  0.18618340821E+03  0.00000000000E+00 0.  1.
         21   -1    0    0  501  503 -0.00000000000E+00 -0.00000000000E+00 -0.20689500402E+03  0.20689500402E+03  0.00000000000E+00 0. -1.
          6    2    1    2  501    0  0.32128733156E+02  0.36702839039E+02 -0.93196674661E+02  0.20043728805E+03  0.17061691706E+03 0.  0.
         24    2    3    3    0    0  0.58014220646E+02  0.53943436311E+02 -0.11556079986E+02  0.11294686940E+03  0.79673761082E+02 0.  0.
         -6    2    1    2    0  502 -0.32128733156E+02 -0.36702839039E+02  0.72485078856E+02  0.19264112418E+03  0.17168914403E+03 0.  0.
        -24    2    5    5    0    0 -0.25233195278E+02 -0.55829002657E+02  0.11030527577E+03  0.14944603335E+03  0.80082902917E+02 0.  0.
          5    1    3    3  501    0 -0.25885487489E+02 -0.17240597272E+02 -0.81640594675E+02  0.87490418651E+02  0.47000000000E+01 0. -1.
        -13    1    4    4    0    0  0.58406111207E+02  0.58200817382E-01 -0.78746370609E+01  0.58934600385E+02  0.00000000000E+00 0.  1.
         14    1    4    4    0    0 -0.39189056132E+00  0.53885235493E+02 -0.36814429252E+01  0.54012269017E+02  0.00000000000E+00 0. -1.
         -5    1    5    5    0  502 -0.68955378784E+01  0.19126163618E+02 -0.37820196910E+02  0.43195090829E+02  0.47000000000E+01 0.  1.
         11    1    6    6    0    0 -0.91263768808E+01  0.81856516099E+01 -0.75257124162E+01  0.14385131026E+02  0.00000000000E+00 0. -1.
        -12    1    6    6    0    0 -0.16106818397E+02 -0.64014654267E+02  0.11783098818E+03  0.13506090232E+03  0.00000000000E+00 0.  1.
</event>
<event>
12    1  0.8196217E-002  0.2142812E+03  0.7818608E-02  0.1138342E+00
         21   -1    0    0  501  502  0.00000000000E+00  0.00000000000E+00  0.89483838475E+03  0.89483838475E+03  0.00000000000E+00 0. -1.
         21   -1    0    0  502  503 -0.00000000000E+00 -0.00000000000E+00 -0.76120282705E+02  0.76120282705E+02  0.00000000000E+00 0. -1.
         -6    2    1    2    0  503  0.43270144529E+02 -0.11986322777E+03  0.13095703959E+03  0.25058951719E+03  0.17148137255E+03 0.  0.
        -24    2    3    3    0    0 -0.10280138767E+02 -0.13411348276E+03  0.10548970265E+03  0.18942271362E+03  0.81613599119E+02 0.  0.
          6    2    1    2  501    0 -0.43270144529E+02  0.11986322777E+03  0.68776106246E+03  0.72036915026E+03  0.17226994757E+03 0.  0.
         24    2    5    5    0    0 -0.47444232752E+01  0.10345229314E+03  0.26535784590E+03  0.29586930653E+03  0.79993585091E+02 0.  0.
          5    1    5    5  501    0 -0.38525721254E+02  0.16410934634E+02  0.42240321655E+03  0.42449984373E+03  0.47000000000E+01 0. -1.
        -13    1    6    6    0    0 -0.10217198530E+02 -0.94376516636E+01  0.11717162718E+02  0.18186597177E+02  0.00000000000E+00 0.  1.
         14    1    6    6    0    0  0.54727752544E+01  0.11288994480E+03  0.25364068318E+03  0.27768270935E+03  0.00000000000E+00 0. -1.
         -5    1    3    3    0  503  0.53550283296E+02  0.14250254987E+02  0.25467336942E+02  0.61166803572E+02  0.47000000000E+01 0.  1.
         13    1    4    4    0    0  0.33213571944E+02 -0.51672339530E+02  0.25180774523E+02  0.66387072833E+02  0.00000000000E+00 0. -1.
        -14    1    4    4    0    0 -0.43493710711E+02 -0.82441143228E+02  0.80308928123E+02  0.12303564079E+03  0.00000000000E+00 0.  1.
</event>
<event>
12    1  0.8196217E-002  0.1776642E+03  0.7818608E-02  0.1170645E+00
         21   -1    0    0  503  502  0.00000000000E+00  0.00000000000E+00  0.10751375240E+04  0.10751375240E+04  0.00000000000E+00 0. -1.
         21   -1    0    0  501  503 -0.00000000000E+00 -0.00000000000E+00 -0.69961111133E+02  0.69961111133E+02  0.00000000000E+00 0. -1.
          6    2    1    2  501    0  0.13220475291E+02  0.40701973380E+02  0.65752063895E+02  0.18944106518E+03  0.17243303530E+03 0.  0.
         24    2    3    3    0    0  0.48354323884E+02  0.70237527175E+02  0.79955462523E+02  0.14116516241E+03  0.79140863210E+02 0.  0.
         -6    2    1    2    0  502 -0.13220475291E+02 -0.40701973380E+02  0.93942434899E+03  0.95565756997E+03  0.17009365647E+03 0.  0.
        -24    2    5    5    0    0  0.27336686742E+02 -0.24215159898E+02  0.86119856030E+03  0.86589085885E+03  0.82282141178E+02 0.  0.
          5    1    3    3  501    0 -0.35133848593E+02 -0.29535553796E+02 -0.14203398628E+02  0.48275902763E+02  0.47000000000E+01 0. -1.
        -13    1    4    4    0    0  0.51640154583E+02  0.60038992586E+01  0.37419436742E+02  0.64054403578E+02  0.00000000000E+00 0.  1.
         14    1    4    4    0    0 -0.32858306989E+01  0.64233627917E+02  0.42536025781E+02  0.77110758834E+02  0.00000000000E+00 0. -1.
         -5    1    5    5    0  502 -0.40557162033E+02 -0.16486813481E+02  0.78225788685E+02  0.89766711126E+02  0.47000000000E+01 0.  1.
         11    1    6    6    0    0  0.18152351298E+02 -0.42852065566E+02  0.79817996927E+03  0.79953553437E+03  0.00000000000E+00 0. -1.
        -12    1    6    6    0    0  0.91843354440E+01  0.18636905667E+02  0.63018591036E+02  0.66355324478E+02  0.00000000000E+00 0.  1.
</event>
<event>
12    1  0.8196217E-002  0.2572334E+03  0.7818608E-02  0.1108863E+00
         21   -1    0    0  503  502  0.00000000000E+00  0.00000000000E+00  0.40571917832E+03  0.40571917832E+03  0.00000000000E+00 0. -1.
         21   -1    0    0  501  503 -0.00000000000E+00 -0.00000000000E+00 -0.26366269525E+03  0.26366269525E+03  0.00000000000E+00 0.  1.
          6    2    1    2  501    0  0.37488999854E+02  0.18689564559E+03 -0.13590221629E+03  0.29066025484E+03  0.17227467573E+03 0.  0.
         24    2    3    3    0    0  0.45222072088E+02  0.17339580111E+03 -0.45152362525E+02  0.19846658821E+03  0.72381704516E+02 0.  0.
         -6    2    1    2    0  502 -0.37488999854E+02 -0.18689564559E+03  0.27795869936E+03  0.37872161874E+03  0.17272411094E+03 0.  0.
        -24    2    5    5    0    0  0.34532186591E+02 -0.46644542237E+02  0.90135291177E+02  0.13345208139E+03  0.79478941120E+02 0.  0.
          5    1    3    3  501    0 -0.77330722338E+01  0.13499844481E+02 -0.90749853765E+02  0.92193666624E+02  0.47000000000E+01 0. -1.
        -11    1    4    4    0    0  0.46184377904E+02  0.45111570894E+02 -0.21275332690E+02  0.67975660143E+02  0.00000000000E+00 0.  1.
         12    1    4    4    0    0 -0.96230581540E+00  0.12828423021E+03 -0.23877029835E+02  0.13049092807E+03  0.00000000000E+00 0. -1.
         -5    1    5    5    0  502 -0.72021186445E+02 -0.14025110335E+03  0.18782340818E+03  0.24526953734E+03  0.47000000000E+01 0.  1.
         11    1    6    6    0    0 -0.86084930388E+00 -0.46704178432E+02  0.85935496917E+02  0.97810689471E+02  0.00000000000E+00 0. -1.
        -12    1    6    6    0    0  0.35393035895E+02  0.59636194745E-01  0.41997942596E+01  0.35641391922E+02  0.00000000000E+00 0.  1.
</event>
<event>
12    1  0.8196217E-002  0.1774715E+03  0.7818608E-02  0.1170302E+00
         21   -1    0    0  501  502  0.00000000000E+00  0.00000000000E+00  0.41045987885E+02  0.41045987885E+02  0.00000000000E+00 0.  1.
         21   -1    0    0  502  503 -0.00000000000E+00 -0.00000000000E+00 -0.79675722900E+03  0.79675722900E+03  0.00000000000E+00 0.  1.
         -6    2    1    2    0  503  0.36443509064E+02  0.25626852091E+02 -0.29653410702E+03  0.34552302578E+03  0.17166484735E+03 0.  0.
        -24    2    3    3    0    0 -0.45339382865E+02  0.47842052778E+01 -0.12893105992E+03  0.15781120213E+03  0.78756644467E+02 0.  0.
          6    2    1    2  501    0 -0.36443509064E+02 -0.25626852091E+02 -0.45917713409E+03  0.49228019111E+03  0.17178847802E+03 0.  0.
         24    2    5    5    0    0 -0.31386473279E+02  0.23878059639E+02 -0.41830037079E+03  0.42770999926E+03  0.80033560653E+02 0.  0.
          5    1    5    5  501    0 -0.50570357859E+01 -0.49504911731E+02 -0.40876763306E+02  0.64570191844E+02  0.47000000000E+01 0. -1.
        -13    1    6    6    0    0 -0.32308468193E+02  0.51926846707E+02 -0.28768584539E+03  0.29411456979E+03  0.00000000000E+00 0.  1.
         14    1    6    6    0    0  0.92199491465E+00 -0.28048787068E+02 -0.13061452540E+03  0.13359542947E+03  0.00000000000E+00 0. -1.
         -5    1    3    3    0  503  0.81782891930E+02  0.20842646813E+02 -0.16760304710E+03  0.18771182364E+03  0.47000000000E+01 0.  1.
         13    1    4    4    0    0  0.11383653121E+02  0.23608520581E+02 -0.17969535320E+02  0.31778200106E+02  0.00000000000E+00 0. -1.
        -14    1    4    4    0    0 -0.56723035987E+02 -0.18824315303E+02 -0.11096152460E+03  0.12603300203E+03  0.00000000000E+00 0.  1.
</event>
<event>
12    1  0.8196217E-002  0.2015969E+03  0.7818608E-02  0.1153023E+00
         21   -1    0    0  503  502  0.00000000000E+00  0.00000000000E+00  0.35468135556E+03  0.35468135556E+03  0.00000000000E+00 0.  1.
         21   -1    0    0  501  503 -0.00000000000E+00 -0.00000000000E+00 -0.13230522499E+03  0.13230522499E+03  0.00000000000E+00 0.  1.
          6    2    1    2  501    0  0.47147072752E+02  0.33505805499E+02  0.22088711218E+03  0.28538419702E+03  0.17119444532E+03 0.  0.
         24    2    3    3    0    0  0.34385986858E+02  0.75701584538E+02  0.20976274618E+03  0.23967675122E+03  0.80817135551E+02 0.  0.
         -6    2    1    2    0  502 -0.47147072752E+02 -0.33505805499E+02  0.14890183808E+01  0.20160238354E+03  0.19312125310E+03 0.  0.
        -24    2    5    5    0    0  0.39542733305E+02  0.23850030180E+02 -0.31693692597E+02  0.92387015256E+02  0.73473932388E+02 0.  0.
          5    1    3    3  501    0  0.12761085894E+02 -0.42195779039E+02  0.11124366004E+02  0.45707445793E+02  0.47000000000E+01 0. -1.
        -11    1    4    4    0    0  0.59568843010E+02  0.38662542463E+02  0.12272502227E+03  0.14179093885E+03  0.00000000000E+00 0.  1.
         12    1    4    4    0    0 -0.25182856152E+02  0.37039042075E+02  0.87037723904E+02  0.97885812375E+02  0.00000000000E+00 0. -1.
         -5    1    5    5    0  502 -0.86689806057E+02 -0.57355835679E+02  0.33182710978E+02  0.10921536828E+03  0.47000000000E+01 0.  1.
         13    1    6    6    0    0  0.40820228360E+00  0.28760825639E+02 -0.42658358578E+02  0.51449852061E+02  0.00000000000E+00 0. -1.
        -14    1    6    6    0    0  0.39134531022E+02 -0.49107954585E+01  0.10964665981E+02  0.40937163194E+02  0.00000000000E+00 0.  1.
</event>
<event>
12    1  0.8196217E-002  0.1812501E+03  0.7818608E-02  0.1167145E+00
         21   -1    0    0  503  502  0.00000000000E+00  0.00000000000E+00  0.47115442188E+02  0.47115442188E+02  0.00000000000E+00 0.  1.
         21   -1    0    0  501  503 -0.00000000000E+00 -0.00000000000E+00 -0.76845363325E+03  0.76845363325E+03  0.00000000000E+00 0.  1.
          6    2    1    2  501    0 -0.34041380425E+02 -0.34051820377E+02 -0.49010930002E+03  0.52176915257E+03  0.17238787822E+03 0.  0.
         24    2    3    3    0    0 -0.68053779397E+02  0.14892518866E+02 -0.39960392813E+03  0.41329932281E+03  0.79245989478E+02 0.  0.
         -6    2    1    2    0  502  0.34041380425E+02  0.34051820377E+02 -0.23122889104E+03  0.29379992287E+03  0.17473766787E+03 0.  0.
        -24    2    5    5    0    0 -0.18609122001E+02  0.29268331907E+01 -0.36012835921E+02  0.89172851319E+02  0.79372585236E+02 0.  0.
          5    1    3    3  501    0  0.34012398972E+02 -0.48944339243E+02 -0.90505371889E+02  0.10846982976E+03  0.47000000000E+01 0. -1.
        -11    1    4    4    0    0 -0.22889215428E+02 -0.23569124364E+02 -0.58669156148E+02  0.67242023240E+02  0.00000000000E+00 0.  1.
         12    1    4    4    0    0 -0.45164563969E+02  0.38461643230E+02 -0.34093477198E+03  0.34605729957E+03  0.00000000000E+00 0. -1.
         -5    1    5    5    0  502  0.52650502426E+02  0.31124987187E+02 -0.19521605512E+03  0.20462707155E+03  0.47000000000E+01 0.  1.
         13    1    6    6    0    0 -0.13091191932E+02  0.11536524630E+02 -0.60324822343E+02  0.62797730035E+02  0.00000000000E+00 0. -1.
        -14    1    6    6    0    0 -0.55179300686E+01 -0.86096914393E+01  0.24311986423E+02  0.26375121284E+02  0.00000000000E+00 0.  1.
</event>
<event>
12    1  0.8196217E-002  0.2198179E+03  0.7818608E-02  0.1134265E+00
         21   -1    0    0  501  502  0.00000000000E+00  0.00000000000E+00  0.13794120384E+03  0.13794120384E+03  0.00000000000E+00 0.  1.
         21   -1    0    0  502  503 -0.00000000000E+00 -0.00000000000E+00 -0.35004473530E+03  0.35004473530E+03  0.00000000000E+00 0. -1.
         -6    2    1    2    0  503 -0.13251619899E+03  0.31304190691E+02 -0.88013581124E+02  0.23556126207E+03  0.17088657752E+03 0.  0.
        -24    2    3    3    0    0 -0.30616113586E+02  0.65449927702E+01 -0.99448417184E+02  0.12997011300E+03  0.77601928144E+02 0.  0.
          6    2    1    2  501    0  0.13251619899E+03 -0.31304190691E+02 -0.12408995034E+03  0.25242467707E+03  0.17256710715E+03 0.  0.
         24    2    5    5    0    0  0.40369118319E+01 -0.98230783253E+01 -0.23484410092E+02  0.87767669490E+02  0.83897894881E+02 0.  0.
          5    1    5    5  501    0  0.12847928715E+03 -0.21481112366E+02 -0.10060554025E+03  0.16465700758E+03  0.47000000000E+01 0. -1.
        -13    1    6    6    0    0 -0.16639512609E+02 -0.13680597710E+02  0.26138549274E+02  0.33871166081E+02  0.00000000000E+00 0.  1.
         14    1    6    6    0    0  0.20676424441E+02  0.38575193848E+01 -0.49622959366E+02  0.53896503409E+02  0.00000000000E+00 0. -1.
         -5    1    3    3    0  503 -0.10190008540E+03  0.24759197921E+02  0.11434836059E+02  0.10559114907E+03  0.47000000000E+01 0.  1.
         11    1    4    4    0    0 -0.28464128448E+02 -0.30857380283E+02 -0.31891611082E+02  0.52720578370E+02  0.00000000000E+00 0. -1.
        -12    1    4    4    0    0 -0.21519851376E+01  0.37402373053E+02 -0.67556806102E+02  0.77249534631E+02  0.00000000000E+00 0.  1.
</event>
<event>
12    1  0.8196217E-002  0.2066197E+03  0.7818608E-02  0.1144460E+00
         21   -1    0    0  501  502  0.00000000000E+00  0.00000000000E+00  0.10507728096E+04  0.10507728096E+04  0.00000000000E+00 0. -1.
         21   -1    0    0  502  503 -0.00000000000E+00 -0.00000000000E+00 -0.40451852293E+02  0.40451852293E+02  0.00000000000E+00 0. -1.
         -6    2    1    2    0  503  0.83394218295E+02 -0.81771891485E+02  0.51072913613E+03  0.55059199391E+03  0.16931052947E+03 0.  0.
        -24    2    3    3    0    0  0.59231898043E+02 -0.39312324800E+02  0.13396973580E+03  0.17064940844E+03  0.78226938213E+02 0.  0.
          6    2    1    2  501    0 -0.83394218295E+02  0.81771891485E+02  0.49959182119E+03  0.54063266799E+03  0.17044194325E+03 0.  0.
         24    2    5    5    0    0 -0.26663198434E+02  0.11021762961E+03  0.29201827386E+03  0.32352339555E+03  0.80832315129E+02 0.  0.
          5    1    5    5  501    0 -0.56731019861E+02 -0.28445738124E+02  0.20757354733E+03  0.21710927245E+03  0.47000000000E+01 0. -1.
        -11    1    6    6    0    0 -0.49967440074E+02  0.81683422749E+02  0.24961540032E+03  0.26735140676E+03  0.00000000000E+00 0.  1.
         12    1    6    6    0    0  0.23304241640E+02  0.28534206860E+02  0.42402873539E+02  0.56171988784E+02  0.00000000000E+00 0. -1.
         -5    1    3    3    0  503  0.24162320252E+02 -0.42459566684E+02  0.37675940032E+03  0.37994258547E+03  0.47000000000E+01 0.  1.
         11    1    4    4    0    0  0.17149260859E+01  0.19921754345E+02  0.45162584034E+02  0.49391054497E+02  0.00000000000E+00 0. -1.
        -12    1    4    4    0    0  0.57516971957E+02 -0.59234079145E+02  0.88807151766E+02  0.12125835394E+03  0.00000000000E+00 0.  1.
</event>
<event>
12    1  0.8196217E-002  0.1899586E+03  0.7818608E-02  0.1158950E+00
         21   -1    0    0  501  502  0.00000000000E+00  0.00000000000E+00  0.36099793563E+03  0.36099793563E+03  0.00000000000E+00 0. -1.
         21   -1    0    0  502  503 -0.00000000000E+00 -0.00000000000E+00 -0.10544303545E+03  0.10544303545E+03  0.00000000000E+00 0.  1.
         -6    2    1    2    0  503  0.36301806623E+02  0.69515428351E+02  0.70369574052E+02  0.20257378149E+03  0.17301457757E+03 0.  0.
        -24    2    3    3    0    0 -0.12577739104E+02  0.90639319185E+02  0.81445739146E+02  0.14798257169E+03  0.83016548926E+02 0.  0.
          6    2    1    2  501    0 -0.36301806623E+02 -0.69515428351E+02  0.18518532613E+03  0.26386718959E+03  0.17082761130E+03 0.  0.
         24    2    5    5    0    0  0.75155773970E+01 -0.59310875234E+02  0.37769803594E+02  0.10966757113E+03  0.83822158583E+02 0.  0.
          5    1    5    5  501    0 -0.43817384020E+02 -0.10204553117E+02  0.14741552254E+03  0.15419961846E+03  0.47000000000E+01 0. -1.
        -13    1    6    6    0    0 -0.19349213969E+02 -0.21594666323E+02  0.53425697000E+02  0.60786732062E+02  0.00000000000E+00 0.  1.
         14    1    6    6    0    0  0.26864791366E+02 -0.37716208910E+02 -0.15655893406E+02  0.48880839069E+02  0.00000000000E+00 0. -1.
         -5    1    3    3    0  503  0.48879545727E+02 -0.21123890834E+02 -0.11076165093E+02  0.54591209802E+02  0.47000000000E+01 0.  1.
         13    1    4    4    0    0 -0.29603230541E+01  0.29148941868E+02  0.80577156952E+02  0.85738570942E+02  0.00000000000E+00 0. -1.
        -14    1    4    4    0    0 -0.96174160499E+01  0.61490377317E+02  0.86858219335E+00  0.62244000748E+02  0.00000000000E+00 0.  1.
</event>
<event>
12    1  0.8196217E-002  0.1902148E+03  0.7818608E-02  0.1158305E+00
         21   -1    0    0  501  502  0.00000000000E+00  0.00000000000E+00  0.10244639579E+04  0.10244639579E+04  0.00000000000E+00 0. -1.
         21   -1    0    0  502  503 -0.00000000000E+00 -0.00000000000E+00 -0.70532428793E+02  0.70532428793E+02  0.00000000000E+00 0. -1.
         -6    2    1    2    0  503  0.44237944500E+02 -0.70297502247E+02  0.89837722825E+02  0.21021405382E+03  0.17093974794E+03 0.  0.
        -24    2    3    3    0    0  0.62542980055E+02 -0.26701503423E+02 -0.34620988875E+01  0.10551146468E+03  0.80598315191E+02 0.  0.
          6    2    1    2  501    0 -0.44237944500E+02  0.70297502247E+02  0.86409380631E+03  0.88478233290E+03  0.17112257582E+03 0.  0.
         24    2    5    5    0    0  0.13927321040E+02  0.87598594559E+02  0.41573190631E+03  0.43230801398E+03  0.78674754456E+02 0.  0.
          5    1    5    5  501    0 -0.58165265540E+02 -0.17301092312E+02  0.44836190001E+03  0.45247431893E+03  0.47000000000E+01 0. -1.
        -11    1    6    6    0    0  0.44651123839E+02  0.52728112292E+02  0.19913529288E+03  0.21078150193E+03  0.00000000000E+00 0.  1.
         12    1    6    6    0    0 -0.30723802799E+02  0.34870482267E+02  0.21659661343E+03  0.22152651205E+03  0.00000000000E+00 0. -1.
         -5    1    3    3    0  503 -0.18305035555E+02 -0.43595998824E+02  0.93299821712E+02  0.10470258914E+03  0.47000000000E+01 0.  1.
         11    1    4    4    0    0  0.60798267692E+02 -0.51433543880E+02 -0.88913154661E+01  0.80130482845E+02  0.00000000000E+00 0. -1.
        -12    1    4    4    0    0  0.17447123633E+01  0.24732040457E+02  0.54292165787E+01  0.25380981838E+02  0.00000000000E+00 0.  1.
</event>
<event>
12    1  0.8196217E-002  0.2029572E+03  0.7818608E-02  0.1148660E+00
         21   -1    0    0  503  502  0.00000000000E+00  0.00000000000E+00  0.18957676750E+03  0.18957676750E+03  0.00000000000E+00 0. -1.
         21   -1    0    0  501  503 -0.00000000000E+00 -0.00000000000E+00 -0.55583427869E+03  0.55583427869E+03  0.00000000000E+00 0. -1.
          6    2    1    2  501    0 -0.94215964039E+02  0.40840440208E+02 -0.47584087723E+03  0.51475951583E+03  0.16735659313E+03 0.  0.
         24    2    3    3    0    0  0.12741518524E+02  0.31572002246E+02 -0.25245314241E+03  0.26686845693E+03  0.79542734243E+02 0.  0.
         -6    2    1    2    0  502  0.94215964039E+02 -0.40840440208E+02  0.10958336604E+03  0.23065153036E+03  0.17506291699E+03 0.  0.
        -24    2    5    5    0    0  0.98475680274E+02 -0.51929030464E+02  0.17750408503E+02  0.13793430376E+03  0.79477741175E+02 0.  0.
          5    1    3    3  501    0 -0.10695748256E+03  0.92684379628E+01 -0.22338773481E+03  0.24789105890E+03  0.47000000000E+01 0. -1.
        -11    1    4    4    0    0  0.45964137366E+02  0.13511887097E+02 -0.12284283011E+03  0.13185459387E+03  0.00000000000E+00 0.  1.
         12    1    4    4    0    0 -0.33222618842E+02  0.18060115148E+02 -0.12961031231E+03  0.13501386306E+03  0.00000000000E+00 0. -1.
         -5    1    5    5    0  502 -0.42597162343E+01  0.11088590256E+02  0.91832957540E+02  0.92717226592E+02  0.47000000000E+01 0.  1.
         13    1    6    6    0    0  0.43523775212E+02  0.72472608923E+01 -0.20411263639E+02  0.48615444896E+02  0.00000000000E+00 0. -1.
        -14    1    6    6    0    0  0.54951905062E+02 -0.59176291357E+02  0.38161672142E+02  0.89318858867E+02  0.00000000000E+00 0.  1.
</event>
<event>
12    1  0.8196217E-002  0.3179379E+03  0.7818608E-02  0.1076632E+00
         21   -1    0    0  503  502  0.00000000000E+00  0.00000000000E+00  0.13950188091E+03  0.13950188091E+03  0.00000000000E+00 0.  1.
         21   -1    0    0  501  503 -0.00000000000E+00 -0.00000000000E+00 -0.77148741998E+03  0.77148741998E+03  0.00000000000E+00 0. -1.
          6    2    1    2  501    0 -0.26326044299E+01 -0.26690002210E+03 -0.42909657223E+03  0.53404902079E+03  0.17274818639E+03 0.  0.
         24    2    3    3    0    0 -0.33849123879E+02 -0.64699531999E+02 -0.80228830683E+02  0.12958604303E+03  0.70880777699E+02 0.  0.
         -6    2    1    2    0  502  0.26326044299E+01  0.26690002210E+03 -0.20288896685E+03  0.37694028010E+03  0.17227155741E+03 0.  0.
        -24    2    5    5    0    0 -0.51507288580E+02  0.13291317881E+03 -0.15411033674E+03  0.22434589310E+03  0.79133873787E+02 0.  0.
          5    1    3    3  501    0  0.31216519449E+02 -0.20220049011E+03 -0.34886774154E+03  0.40446297776E+03  0.47000000000E+01 0. -1.
        -11    1    4    4    0    0 -0.65248749374E+01 -0.12527985720E+02  0.13076264117E+02  0.19248716903E+02  0.00000000000E+00 0.  1.
         12    1    4    4    0    0 -0.27324248942E+02 -0.52171546279E+02 -0.93305094800E+02  0.11033732613E+03  0.00000000000E+00 0. -1.
         -5    1    5    5    0  502  0.54139893010E+02  0.13398684329E+03 -0.48778630105E+02  0.15259438701E+03  0.47000000000E+01 0.  1.
         13    1    6    6    0    0 -0.46466480554E+02  0.14152435784E+03 -0.15415974725E+03  0.21436768728E+03  0.00000000000E+00 0. -1.
        -14    1    6    6    0    0 -0.50408080267E+01 -0.86111790337E+01  0.49410507370E-01  0.99782058162E+01  0.00000000000E+00 0.  1.
</event>
<event>
12    1  0.8196217E-002  0.2234417E+03  0.7818608E-02  0.1132755E+00
         21   -1    0    0  503  502  0.00000000000E+00  0.00000000000E+00  0.33634919546E+03  0.33634919546E+03  0.00000000000E+00 0. -1.
         21   -1    0    0  501  503 -0.00000000000E+00 -0.00000000000E+00 -0.17566677992E+03  0.17566677992E+03  0.00000000000E+00 0. -1.
          6    2    1    2  501    0  0.11134154018E+03 -0.66633166269E+02 -0.30432649595E+02  0.21799021857E+03  0.17250122265E+03 0.  0.
         24    2    3    3    0    0  0.11821543895E+03 -0.52853264052E+02  0.30010346081E+02  0.15543958376E+03  0.80575962923E+02 0.  0.
         -6    2    1    2    0  502 -0.11134154018E+03  0.66633166269E+02  0.19111506514E+03  0.29402575681E+03  0.18190453575E+03 0.  0.
        -24    2    5    5    0    0 -0.42609141299E+02  0.10667541108E+02  0.18325934497E+03  0.20491853939E+03  0.80487793564E+02 0.  0.
          5    1    3    3  501    0 -0.68738987697E+01 -0.13779902217E+02 -0.60442995676E+02  0.62550634814E+02  0.47000000000E+01 0. -1.
        -13    1    4    4    0    0 -0.35711623587E+01  0.78850634311E+01 -0.10346218903E+02  0.13489687598E+02  0.00000000000E+00 0.  1.
         14    1    4    4    0    0  0.12178660131E+03 -0.60738327483E+02  0.40356564984E+02  0.14194989616E+03  0.00000000000E+00 0. -1.
         -5    1    5    5    0  502 -0.68732398879E+02  0.55965625161E+02  0.78557201672E+01  0.89107217410E+02  0.47000000000E+01 0.  1.
         11    1    6    6    0    0 -0.11117229385E+02  0.38672585558E+02  0.44942561770E+02  0.60324087407E+02  0.00000000000E+00 0. -1.
        -12    1    6    6    0    0 -0.31491911914E+02 -0.28005044450E+02  0.13831678320E+03  0.14459445199E+03  0.00000000000E+00 0.  1.
</event>
<event>
12    1  0.8196217E-002  0.2701449E+03  0.7818608E-02  0.1102007E+00
         21   -1    0    0  503  502  0.00000000000E+00  0.00000000000E+00  0.15538225582E+04  0.15538225582E+04  0.00000000000E+00 0.  1.
         21   -1    0    0  501  503 -0.00000000000E+00 -0.00000000000E+00 -0.57264998385E+02  0.57264998385E+02  0.00000000000E+00 0. -1.
          6    2    1    2  501    0 -0.80875285156E+02  0.18602534811E+03  0.39727435526E+03  0.48042189799E+03  0.17841537165E+03 0.  0.
         24    2    3    3    0    0 -0.11752641933E+03  0.17256025145E+03  0.28954139026E+03  0.36573494926E+03  0.79613672262E+02 0.  0.
         -6    2    1    2    0  502  0.80875285156E+02 -0.18602534811E+03  0.10992832046E+04  0.11306656586E+04  0.16980879189E+03 0.  0.
        -24    2    5    5    0    0  0.55571383796E+02 -0.15157380035E+03  0.10489521907E+04  0.10644652241E+04  0.81992190901E+02 0.  0.
          5    1    3    3  501    0  0.36651134174E+02  0.13465096654E+02  0.10773296499E+03  0.11468694874E+03  0.47000000000E+01 0. -1.
        -13    1    4    4    0    0 -0.76272537678E+02  0.10131498865E+03  0.23483461231E+03  0.26688859486E+03  0.00000000000E+00 0.  1.
         14    1    4    4    0    0 -0.41253881652E+02  0.71245262801E+02  0.54706777951E+02  0.98846354393E+02  0.00000000000E+00 0. -1.
         -5    1    5    5    0  502  0.25303901361E+02 -0.34451547757E+02  0.50331013886E+02  0.66200434483E+02  0.47000000000E+01 0.  1.
         11    1    6    6    0    0 -0.39333846112E+01 -0.10247530272E+02  0.12106440979E+02  0.16341643257E+02  0.00000000000E+00 0. -1.
        -12    1    6    6    0    0  0.59504768407E+02 -0.14132627008E+03  0.10368457497E+04  0.10481235808E+04  0.00000000000E+00 0.  1.
</event>
<event>
12    1  0.8196217E-002  0.3866052E+03  0.7818608E-02  0.1048561E+00
         21   -1    0    0  501  502  0.00000000000E+00  0.00000000000E+00  0.30972142496E+03  0.30972142496E+03  0.00000000000E+00 0. -1.
         21   -1    0    0  502  503 -0.00000000000E+00 -0.00000000000E+00 -0.12404297886E+04  0.12404297886E+04  0.00000000000E+00 0.  1.
         -6    2    1    2    0  503 -0.28101441053E+03  0.20188253335E+03 -0.10713068225E+04  0.11387736455E+04  0.17141018478E+03 0.  0.
        -24    2    3    3    0    0 -0.11985843813E+03  0.10542803053E+03 -0.34180363903E+03  0.38546646824E+03  0.79205780519E+02 0.  0.
          6    2    1    2  501    0  0.28101441053E+03 -0.20188253335E+03  0.14059845890E+03  0.41137756806E+03  0.17244686328E+03 0.  0.
         24    2    5    5    0    0  0.29555475678E+03 -0.20458378925E+03  0.12316619114E+03  0.38803892174E+03  0.78721998627E+02 0.  0.
          5    1    5    5  501    0 -0.14540346251E+02  0.27012558920E+01  0.17432267761E+02  0.23338646314E+02  0.47000000000E+01 0. -1.
        -13    1    6    6    0    0  0.18889217392E+03 -0.16934391192E+03  0.10354084872E+03  0.27400423578E+03  0.00000000000E+00 0.  1.
         14    1    6    6    0    0  0.10666258287E+03 -0.35239877326E+02  0.19625342424E+02  0.11403468597E+03  0.00000000000E+00 0. -1.
         -5    1    3    3    0  503 -0.16115597240E+03  0.96454502822E+02 -0.72950318348E+03  0.75330717723E+03  0.47000000000E+01 0.  1.
         13    1    4    4    0    0 -0.24874159476E+02  0.34639286647E+02 -0.30625372901E+02  0.52502547123E+02  0.00000000000E+00 0. -1.
        -14    1    4    4    0    0 -0.94984278653E+02  0.70788743884E+02 -0.31117826613E+03  0.33296392111E+03  0.00000000000E+00 0.  1.
</event>
<event>
12    1  0.8196217E-002  0.3270562E+03  0.7818608E-02  0.1072518E+00
         21   -1    0    0  503  502  0.00000000000E+00  0.00000000000E+00  0.32805268151E+03  0.32805268151E+03  0.00000000000E+00 0. -1.
         21   -1    0    0  501  503 -0.00000000000E+00 -0.00000000000E+00 -0.82410133874E+03  0.82410133874E+03  0.00000000000E+00 0.  1.
          6    2    1    2  501    0  0.16796870410E+03 -0.22169661913E+03 -0.69624103087E+03  0.76923165385E+03  0.17205489739E+03 0.  0.
         24    2    3    3    0    0  0.70829007597E+02 -0.20088489516E+03 -0.49122534833E+03  0.54136597284E+03  0.80020524159E+02 0.  0.
         -6    2    1    2    0  502 -0.16796870410E+03  0.22169661913E+03  0.20019237364E+03  0.38292236641E+03  0.17084986314E+03 0.  0.
        -24    2    5    5    0    0 -0.41019699515E+02  0.36225442299E+02  0.94371400006E+02  0.13445551617E+03  0.78596604714E+02 0.  0.
          5    1    3    3  501    0  0.97139696505E+02 -0.20811723975E+02 -0.20501568254E+03  0.22786568100E+03  0.47000000000E+01 0. -1.
        -13    1    4    4    0    0  0.24438577540E+02 -0.12075894758E+03 -0.19189049363E+03  0.22803931468E+03  0.00000000000E+00 0.  1.
         14    1    4    4    0    0  0.46390430057E+02 -0.80125947576E+02 -0.29933485471E+03  0.31332665817E+03  0.00000000000E+00 0. -1.
         -5    1    5    5    0  502 -0.12694900459E+03  0.18547117684E+03  0.10582097364E+03  0.24846685023E+03  0.47000000000E+01 0.  1.
         11    1    6    6    0    0 -0.35137088247E+02 -0.30734305392E+01  0.87218118869E+02  0.94080078682E+02  0.00000000000E+00 0. -1.
        -12    1    6    6    0    0 -0.58826112688E+01  0.39298872838E+02  0.71532811370E+01  0.40375437493E+02  0.00000000000E+00 0.  1.
</event>
<event>
12    1  0.8196217E-002  0.1952627E+03  0.7818608E-02  0.1154163E+00
         21   -1    0    0  501  502  0.00000000000E+00  0.00000000000E+00  0.19327181077E+04  0.19327181077E+04  0.00000000000E+00 0.  1.
         21   -1    0    0  502  503 -0.00000000000E+00 -0.00000000000E+00 -0.23519759757E+02  0.23519759757E+02  0.00000000000E+00 0.  1.
         -6    2    1    2    0  503 -0.85177901815E+02 -0.27175160344E+02  0.55663308224E+03  0.58988805099E+03  0.17359078361E+03 0.  0.
        -24    2    3    3    0    0 -0.46469539477E+02  0.48103165084E+02  0.25845458444E+03  0.27989180884E+03  0.84067353039E+02 0.  0.
          6    2    1    2  501    0  0.85177901815E+02  0.27175160344E+02  0.13525652657E+04  0.13663498164E+04  0.17171272140E+03 0.  0.
         24    2    5    5    0    0  0.15335246777E+02  0.29994156408E+02  0.30435735012E+03  0.31580335510E+03  0.77223981448E+02 0.  0.
          5    1    5    5  501    0  0.69842655038E+02 -0.28189960647E+01  0.10482079155E+04  0.10505464613E+04  0.47000000000E+01 0. -1.
        -11    1    6    6    0    0  0.22403301677E+02  0.21871001000E+01  0.27045384842E+03  0.27138897446E+03  0.00000000000E+00 0.  1.
         12    1    6    6    0    0 -0.70680548999E+01  0.27807056308E+02  0.33903501702E+02  0.44414380647E+02  0.00000000000E+00 0. -1.
         -5    1    3    3    0  503 -0.38708362338E+02 -0.75278325428E+02  0.29817849780E+03  0.30999624215E+03  0.47000000000E+01 0.  1.
         13    1    4    4    0    0  0.44501507798E+01  0.17406711954E+02  0.18274661195E+03  0.18362767124E+03  0.00000000000E+00 0. -1.
        -14    1    4    4    0    0 -0.50919690257E+02  0.30696453130E+02  0.75707972489E+02  0.96264137605E+02  0.00000000000E+00 0.  1.
</event>
<event>
12    1  0.8196217E-002  0.2635725E+03  0.7818608E-02  0.1105492E+00
         21   -1    0    0  501  502  0.00000000000E+00  0.00000000000E+00  0.65094959125E+02  0.65094959125E+02  0.00000000000E+00 0. -1.
         21   -1    0    0  502  503 -0.00000000000E+00 -0.00000000000E+00 -0.11839506476E+04  0.11839506476E+04  0.00000000000E+00 0. -1.
         -6    2    1    2    0  503  0.12866541466E+03  0.14990765969E+03 -0.35579974021E+03  0.44279105707E+03  0.17448028464E+03 0.  0.
        -24    2    3    3    0    0  0.36734930491E+02  0.12632455796E+03 -0.14542640120E+03  0.21195256728E+03  0.80422033959E+02 0.  0.
          6    2    1    2  501    0 -0.12866541466E+03 -0.14990765969E+03 -0.76305594826E+03  0.80625454964E+03  0.16960225023E+03 0.  0.
         24    2    5    5    0    0 -0.82206254666E+02 -0.17327938421E+03 -0.63586690668E+03  0.66876333774E+03  0.78320275710E+02 0.  0.
          5    1    5    5  501    0 -0.46459159997E+02  0.23371724521E+02 -0.12718904157E+03  0.13749121190E+03  0.47000000000E+01 0. -1.
        -13    1    6    6    0    0 -0.25443251565E+02 -0.45061024870E+02 -0.78448797752E+02  0.93979087468E+02  0.00000000000E+00 0.  1.
         14    1    6    6    0    0 -0.56763003102E+02 -0.12821835934E+03 -0.55741810893E+03  0.57478425027E+03  0.00000000000E+00 0. -1.
         -5    1    3    3    0  503  0.91930484172E+02  0.23583101730E+02 -0.21037333900E+03  0.23083848980E+03  0.47000000000E+01 0.  1.
         13    1    4    4    0    0  0.51752803612E+02  0.12319224721E+03 -0.14415524608E+03  0.19655894135E+03  0.00000000000E+00 0. -1.
        -14    1    4    4    0    0 -0.15017873121E+02  0.31323107541E+01 -0.12711551244E+01  0.15393625924E+02  0.00000000000E+00 0.  1.
</event>
<event>
12    1  0.8196217E-002  0.1869856E+03  0.7818608E-02  0.1163125E+00
         21   -1    0    0  501  502  0.00000000000E+00  0.00000000000E+00  0.49423135801E+03  0.49423135801E+03  0.00000000000E+00 0. -1.
         21   -1    0    0  502  503 -0.00000000000E+00 -0.00000000000E+00 -0.80185110879E+02  0.80185110879E+02  0.00000000000E+00 0. -1.
         -6    2    1    2    0  503  0.27302527818E+02  0.58066880701E+02  0.89843984447E+02  0.20015623203E+03  0.16695324201E+03 0.  0.
        -24    2    3    3    0    0  0.39354149430E+01  0.23164812382E+02  0.12153491794E+03  0.14733027626E+03  0.79896044963E+02 0.  0.
          6    2    1    2  501    0 -0.27302527818E+02 -0.58066880701E+02  0.32420226268E+03  0.37426023686E+03  0.17563150944E+03 0.  0.
         24    2    5    5    0    0  0.24631775431E+02 -0.12272378962E+02  0.27801211767E+03  0.29089401025E+03  0.81063259136E+02 0.  0.
          5    1    5    5  501    0 -0.51934303248E+02 -0.45794501739E+02  0.46190145013E+02  0.83366226613E+02  0.47000000000E+01 0. -1.
        -11    1    6    6    0    0  0.62149876917E+01  0.14124987982E+02  0.53413295520E+01  0.16330069163E+02  0.00000000000E+00 0.  1.
         12    1    6    6    0    0  0.18416787739E+02 -0.26397366944E+02  0.27267078812E+03  0.27456394108E+03  0.00000000000E+00 0. -1.
         -5    1    3    3    0  503  0.23367112875E+02  0.34902068319E+02 -0.31690933492E+02  0.52825955766E+02  0.47000000000E+01 0.  1.
         11    1    4    4    0    0 -0.10380568271E+02  0.54663164419E+00 -0.92009983145E+01  0.13882124253E+02  0.00000000000E+00 0. -1.
        -12    1    4    4    0    0  0.14315983214E+02  0.22618180737E+02  0.13073591625E+03  0.13344815201E+03  0.00000000000E+00 0.  1.
</event>
<event>
12    1  0.8196217E-002  0.2023854E+03  0.7818608E-02  0.1148100E+00
         21   -1    0    0  503  502  0.00000000000E+00  0.00000000000E+00  0.49378096717E+02  0.49378096717E+02  0.00000000000E+00 0.  1.
         21   -1    0    0  501  503 -0.00000000000E+00 -0.00000000000E+00 -0.87486667311E+03  0.87486667311E+03  0.00000000000E+00 0.  1.
          6    2    1    2  501    0  0.53028261591E+01  0.10869357126E+03 -0.52746647300E+03  0.56496083513E+03  0.17063836816E+03 0.  0.
         24    2    3    3    0    0 -0.44975166520E+02  0.42846009233E+02 -0.40201239110E+03  0.41454609304E+03  0.79849574466E+02 0.  0.
         -6    2    1    2    0  502 -0.53028261591E+01 -0.10869357126E+03 -0.29802210339E+03  0.35928393470E+03  0.16859821833E+03 0.  0.
        -24    2    5    5    0    0 -0.66502896932E+02 -0.87118293229E+02 -0.18591765369E+03  0.22966742754E+03  0.78546298481E+02 0.  0.
          5    1    3    3  501    0  0.50277992679E+02  0.65847562027E+02 -0.12545408190E+03  0.15041474209E+03  0.47000000000E+01 0. -1.
        -13    1    4    4    0    0 -0.48083643374E+02  0.62295400445E+02 -0.35418239535E+03  0.36281940804E+03  0.00000000000E+00 0.  1.
         14    1    4    4    0    0  0.31084768544E+01 -0.19449391212E+02 -0.47829995750E+02  0.51726684992E+02  0.00000000000E+00 0. -1.
         -5    1    5    5    0  502  0.61200070772E+02 -0.21575278031E+02 -0.11210444970E+03  0.12961650715E+03  0.47000000000E+01 0.  1.
         11    1    6    6    0    0 -0.27276239187E+02  0.93909547466E+01 -0.26149372836E+02  0.38935497364E+02  0.00000000000E+00 0. -1.
        -12    1    6    6    0    0 -0.39226657744E+02 -0.96509247976E+02 -0.15976828086E+03  0.19073193018E+03  0.00000000000E+00 0.  1.
</event>
<event>
12    1  0.8196217E-002  0.1747100E+03  0.7818608E-02  0.1173125E+00
         21   -1    0    0  503  502  0.00000000000E+00  0.00000000000E+00  0.77802446423E+02  0.77802446423E+02  0.00000000000E+00 0.  1.
         21   -1    0    0  501  503 -0.00000000000E+00 -0.00000000000E+00 -0.60357471527E+03  0.60357471527E+03  0.00000000000E+00 0.  1.
          6    2    1    2  501    0 -0.47357097882E+01  0.34537291357E+02 -0.46467553625E+03  0.49629235180E+03  0.17078493209E+03 0.  0.
         24    2    3    3    0    0 -0.17117522353E+02 -0.43272357495E+02 -0.29000318970E+03  0.30461509863E+03  0.80765102489E+02 0.  0.
         -6    2    1    2    0  502  0.47357097882E+01 -0.34537291357E+02 -0.61096732596E+02  0.18508480989E+03  0.17119674260E+03 0.  0.
        -24    2    5    5    0    0  0.33609437004E+02  0.19700724559E+02 -0.79900941831E+02  0.12065544718E+03  0.81583476421E+02 0.  0.
          5    1    3    3  501    0  0.12381812565E+02  0.77809648852E+02 -0.17467234655E+03  0.19167725318E+03  0.47000000000E+01 0. -1.
        -13    1    4    4    0    0 -0.30078566390E+02  0.10018173842E+02 -0.16636498506E+03  0.16935876776E+03  0.00000000000E+00 0.  1.
         14    1    4    4    0    0  0.12961044037E+02 -0.53290531337E+02 -0.12363820464E+03  0.13525633087E+03  0.00000000000E+00 0. -1.
         -5    1    5    5    0  502 -0.28873727216E+02 -0.54238015916E+02  0.18804209235E+02  0.64429362707E+02  0.47000000000E+01 0.  1.
         13    1    6    6    0    0 -0.22053944827E+02  0.18869085505E+02 -0.87512271074E+01  0.30315059725E+02  0.00000000000E+00 0. -1.
        -14    1    6    6    0    0  0.55663381832E+02  0.83163905432E+00 -0.71149714724E+02  0.90340387456E+02  0.00000000000E+00 0.  1.
</event>
<event>
12    1  0.8196217E-002  0.2139389E+03  0.7818608E-02  0.1138695E+00
         21   -1    0    0  501  502  0.00000000000E+00  0.00000000000E+00  0.19057549641E+03  0.19057549641E+03  0.00000000000E+00 0.  1.
         21   -1    0    0  502  503 -0.00000000000E+00 -0.00000000000E+00 -0.32386145104E+03  0.32386145104E+03  0.00000000000E+00 0.  1.
         -6    2    1    2    0  503 -0.11883713927E+03 -0.40066254996E+02 -0.19822375997E+03  0.29085976100E+03  0.17198596191E+03 0.  0.
        -24    2    3    3    0    0 -0.94256218715E+02 -0.86750624040E+02 -0.17721069219E+03  0.23387475433E+03  0.82969065000E+02 0.  0.
          6    2    1    2  501    0  0.11883713927E+03  0.40066254996E+02  0.64937805338E+02  0.22357718644E+03  0.17332705869E+03 0.  0.
         24    2    5    5    0    0  0.55946453995E+02 -0.27172962264E+02 -0.13134144006E+02  0.10277292366E+03  0.80755139192E+02 0.  0.
          5    1    5    5  501    0  0.62890685280E+02  0.67239217260E+02  0.78071949344E+02  0.12080426278E+03  0.47000000000E+01 0. -1.
        -13    1    6    6    0    0  0.25544592257E+02  0.15681191551E+02  0.24028436948E+02  0.38416034988E+02  0.00000000000E+00 0.  1.
         14    1    6    6    0    0  0.30401861738E+02 -0.42854153815E+02 -0.37162580953E+02  0.64356888671E+02  0.00000000000E+00 0. -1.
         -5    1    3    3    0  503 -0.24580920559E+02  0.46684369044E+02 -0.21013067775E+02  0.56985006676E+02  0.47000000000E+01 0.  1.
         11    1    4    4    0    0  0.69047226728E+01  0.60856648609E+01 -0.35033676571E+02  0.36222493096E+02  0.00000000000E+00 0. -1.
        -12    1    4    4    0    0 -0.10116094139E+03 -0.92836288901E+02 -0.14217701562E+03  0.19765226123E+03  0.00000000000E+00 0.  1.
</event>
<event>
12    1  0.8196217E-002  0.2236294E+03  0.7818608E-02  0.1131738E+00
         21   -1    0    0  503  502  0.00000000000E+00  0.00000000000E+00  0.39576569248E+02  0.39576569248E+02  0.00000000000E+00 0.  1.
         21   -1    0    0  501  503 -0.00000000000E+00 -0.00000000000E+00 -0.12980315664E+04  0.12980315664E+04  0.00000000000E+00 0. -1.
          6    2    1    2  501    0  0.13293506845E+03  0.41415865341E+02 -0.75747647776E+03  0.78898295959E+03  0.17127898246E+03 0.  0.
         24    2    3    3    0    0  0.39199287050E+02  0.72032160152E+02 -0.30114805394E+03  0.32209809733E+03  0.79572719621E+02 0.  0.
         -6    2    1    2    0  502 -0.13293506845E+03 -0.41415865341E+02 -0.50097851942E+03  0.54862517609E+03  0.17499457304E+03 0.  0.
        -24    2    5    5    0    0 -0.53602929657E+02  0.42178672027E+02 -0.20122462914E+03  0.22744591204E+03  0.81166354396E+02 0.  0.
          5    1    3    3  501    0  0.93735781396E+02 -0.30616294810E+02 -0.45632842382E+03  0.46688486226E+03  0.47000000000E+01 0. -1.
        -13    1    4    4    0    0  0.55811961533E+02  0.39390341045E+02 -0.12768353768E+03  0.14480904603E+03  0.00000000000E+00 0.  1.
         14    1    4    4    0    0 -0.16612674483E+02  0.32641819107E+02 -0.17346451626E+03  0.17728905129E+03  0.00000000000E+00 0. -1.
         -5    1    5    5    0  502 -0.79332138789E+02 -0.83594537368E+02 -0.29975389028E+03  0.32117926406E+03  0.47000000000E+01 0.  1.
         11    1    6    6    0    0 -0.49245520620E+02  0.40585486596E+02 -0.20892626986E+03  0.21845477623E+03  0.00000000000E+00 0. -1.
        -12    1    6    6    0    0 -0.43574090373E+01  0.15931854307E+01  0.77016407127E+01  0.89911358016E+01  0.00000000000E+00 0.  1.
</event>
<event>
12    1  0.8196217E-002  0.2961373E+03  0.7818608E-02  0.1087201E+00
         21   -1    0    0  501  502  0.00000000000E+00  0.00000000000E+00  0.17331483884E+03  0.17331483884E+03  0.00000000000E+00 0.  1.
         21   -1    0    0  502  503 -0.00000000000E+00 -0.00000000000E+00 -0.54483475876E+03  0.54483475876E+03  0.00000000000E+00 0.  1.
         -6    2    1    2    0  503 -0.23324194806E+03  0.60184171715E+02 -0.28188255984E+03  0.40884604761E+03  0.17225960711E+03 0.  0.
        -24    2    3    3    0    0 -0.11360930328E+03 -0.37127696144E+02 -0.15066392026E+03  0.20630718542E+03  0.74682650429E+02 0.  0.
          6    2    1    2  501    0  0.23324194806E+03 -0.60184171715E+02 -0.89637360085E+02  0.30930354999E+03  0.17207524184E+03 0.  0.
         24    2    5    5    0    0  0.13016880365E+03  0.32320418707E+02 -0.33181905334E+02  0.15966905959E+03  0.80029012477E+02 0.  0.
          5    1    5    5  501    0  0.10307314441E+03 -0.92504590422E+02 -0.56455454752E+02  0.14963449040E+03  0.47000000000E+01 0. -1.
        -13    1    6    6    0    0  0.79227499883E+02 -0.16774961433E+02  0.12346144218E+01  0.80993335168E+02  0.00000000000E+00 0.  1.
         14    1    6    6    0    0  0.50941303767E+02  0.49095380140E+02 -0.34416519755E+02  0.78675724418E+02  0.00000000000E+00 0. -1.
         -5    1    3    3    0  503 -0.11963264478E+03  0.97311867860E+02 -0.13121863959E+03  0.20253886219E+03  0.47000000000E+01 0.  1.
         11    1    4    4    0    0 -0.83396490847E+01 -0.32646228817E+02 -0.23087098495E+02  0.40845319435E+02  0.00000000000E+00 0. -1.
        -12    1    4    4    0    0 -0.10526965420E+03 -0.44814673279E+01 -0.12757682176E+03  0.16546186598E+03  0.00000000000E+00 0.  1.
</event>
<event>
12    1  0.8196217E-002  0.3227016E+03  0.7818608E-02  0.1074478E+00
         21   -1    0    0  501  502  0.00000000000E+00  0.00000000000E+00  0.11466601197E+03  0.11466601197E+03  0.00000000000E+00 0. -1.
         21   -1    0    0  502  503 -0.00000000000E+00 -0.00000000000E+00 -0.10411470961E+04  0.10411470961E+04  0.00000000000E+00 0.  1.
         -6    2    1    2    0  503  0.13379438514E+03 -0.23732611207E+03 -0.67137809082E+03  0.74490592916E+03  0.17294993928E+03 0.  0.
        -24    2    3    3    0    0  0.72854918452E+02 -0.21734768897E+03 -0.41782981723E+03  0.48333075253E+03  0.80492255081E+02 0.  0.
          6    2    1    2  501    0 -0.13379438514E+03  0.23732611207E+03 -0.25510299331E+03  0.41090717891E+03  0.17187946801E+03 0.  0.
         24    2    5    5    0    0 -0.13574560121E+03  0.18140840755E+03 -0.12961299447E+03  0.27342835607E+03  0.81410435365E+02 0.  0.
          5    1    5    5  501    0  0.19512160723E+01  0.55917704512E+02 -0.12548999884E+03  0.13747882285E+03  0.47000000000E+01 0. -1.
        -13    1    6    6    0    0 -0.11856134202E+03  0.98928291911E+02 -0.10072851161E+03  0.18436331472E+03  0.00000000000E+00 0.  1.
         14    1    6    6    0    0 -0.17184259186E+02  0.82480115643E+02 -0.28884482864E+02  0.89065041349E+02  0.00000000000E+00 0. -1.
         -5    1    3    3    0  503  0.60939466683E+02 -0.19978423100E+02 -0.25354827359E+03  0.26157517663E+03  0.47000000000E+01 0.  1.
         13    1    4    4    0    0  0.38490429920E+02 -0.18028247589E+03 -0.26861086453E+03  0.32578379465E+03  0.00000000000E+00 0. -1.
        -14    1    4    4    0    0  0.34364488532E+02 -0.37065213072E+02 -0.14921895270E+03  0.15754695788E+03  0.00000000000E+00 0.  1.
</event>
<event>
12    1  0.8196217E-002  0.3131332E+03  0.7818608E-02  0.1078913E+00
         21   -1    0    0  501  502  0.00000000000E+00  0.00000000000E+00  0.58374836848E+03  0.58374836848E+03  0.00000000000E+00 0. -1.
         21   -1    0    0  502  503 -0.00000000000E+00 -0.00000000000E+00 -0.24760929657E+03  0.24760929657E+03  0.00000000000E+00 0. -1.
         -6    2    1    2    0  503  0.45920031471E+02  0.25682552106E+03 -0.68161599589E+02  0.31997575054E+03  0.17225121107E+03 0.  0.
        -24    2    3    3    0    0  0.72558413258E+02  0.25573837356E+03 -0.82292773574E+02  0.28943781754E+03  0.79594664344E+02 0.  0.
          6    2    1    2  501    0 -0.45920031471E+02 -0.25682552106E+03  0.40430067150E+03  0.51138191451E+03  0.17316013383E+03 0.  0.
         24    2    5    5    0    0  0.30070261947E+02 -0.19142124098E+03  0.23717988284E+03  0.31643655665E+03  0.79570631573E+02 0.  0.
          5    1    5    5  501    0 -0.75990293418E+02 -0.65404280084E+02  0.16712078866E+03  0.19494535786E+03  0.47000000000E+01 0. -1.
        -13    1    6    6    0    0  0.23530996326E+02 -0.18290951826E+03  0.24233786363E+03  0.30452789659E+03  0.00000000000E+00 0.  1.
         14    1    6    6    0    0  0.65392656207E+01 -0.85117227223E+01 -0.51579807855E+01  0.11908660057E+02  0.00000000000E+00 0. -1.
         -5    1    3    3    0  503 -0.26638381787E+02  0.10871475015E+01  0.14131173986E+02  0.30537933003E+02  0.47000000000E+01 0.  1.
         11    1    4    4    0    0  0.57732460887E+02  0.90577768287E+02 -0.79353209630E+01  0.10770486742E+03  0.00000000000E+00 0. -1.
        -12    1    4    4    0    0  0.14825952371E+02  0.16516060527E+03 -0.74357452611E+02  0.18173295011E+03  0.00000000000E+00 0.  1.
</event>
<event>
12    1  0.8196217E-002  0.1798999E+03  0.7818608E-02  0.1168166E+00
         21   -1    0    0  503  502  0.00000000000E+00  0.00000000000E+00  0.74756847769E+02  0.74756847769E+02  0.00000000000E+00 0. -1.
         21   -1    0    0  501  503 -0.00000000000E+00 -0.00000000000E+00 -0.51995210963E+03  0.51995210963E+03  0.00000000000E+00 0. -1.
          6    2    1    2  501    0  0.48416820290E+02 -0.10963644505E+02 -0.34663990945E+03  0.39054218909E+03  0.17291496363E+03 0.  0.
         24    2    3    3    0    0  0.60032954492E+02  0.52816974548E+02 -0.22766894212E+03  0.25497271241E+03  0.82367156320E+02 0.  0.
         -6    2    1    2    0  502 -0.48416820290E+02  0.10963644505E+02 -0.98555352414E+02  0.20416676831E+03  0.17177462504E+03 0.  0.
        -24    2    5    5    0    0  0.25011664214E+02  0.25214976956E+02 -0.23627809425E+01  0.82224390038E+02  0.74120774238E+02 0.  0.
          5    1    3    3  501    0 -0.11616134202E+02 -0.63780619053E+02 -0.11897096733E+03  0.13556947668E+03  0.47000000000E+01 0. -1.
        -11    1    4    4    0    0  0.41625467218E+02  0.68439461131E+02 -0.21083680501E+03  0.22554112199E+03  0.00000000000E+00 0.  1.
         12    1    4    4    0    0  0.18407487274E+02 -0.15622486583E+02 -0.16832137107E+02  0.29431590415E+02  0.00000000000E+00 0. -1.
         -5    1    5    5    0  502 -0.73428484504E+02 -0.14251332451E+02 -0.96192571472E+02  0.12194237828E+03  0.47000000000E+01 0.  1.
         13    1    6    6    0    0 -0.11465427428E+02 -0.17933176119E+02  0.11294976787E+02  0.24096292919E+02  0.00000000000E+00 0. -1.
        -14    1    6    6    0    0  0.36477091642E+02  0.43148153075E+02 -0.13657757729E+02  0.58128097119E+02  0.00000000000E+00 0.  1.
</event>
<event>
12    1  0.8196217E-002  0.1952510E+03  0.7818608E-02  0.1153898E+00
         21   -1    0    0  501  502  0.00000000000E+00  0.00000000000E+00  0.75566017944E+02  0.75566017944E+02  0.00000000000E+00 0. -1.
         21   -1    0    0  502  503 -0.00000000000E+00 -0.00000000000E+00 -0.53496995776E+03  0.53496995776E+03  0.00000000000E+00 0. -1.
         -6    2    1    2    0  503 -0.42833334518E+02 -0.79508092627E+02 -0.15581730959E+03  0.24980388577E+03  0.17310897157E+03 0.  0.
        -24    2    3    3    0    0 -0.74434265796E+02 -0.34628269900E+02 -0.41668033798E+02  0.12305624473E+03  0.81651927874E+02 0.  0.
          6    2    1    2  501    0  0.42833334518E+02  0.79508092627E+02 -0.30358663022E+03  0.36073208993E+03  0.17264578569E+03 0.  0.
         24    2    5    5    0    0 -0.35677848763E+02  0.25179063416E+02 -0.98729796588E+02  0.13467001526E+03  0.80508050219E+02 0.  0.
          5    1    5    5  501    0  0.78511183280E+02  0.54329029211E+02 -0.20485683364E+03  0.22606207467E+03  0.47000000000E+01 0. -1.
        -13    1    6    6    0    0 -0.82663821189E+00 -0.13183783482E+02  0.84048087350E+01  0.15656828782E+02  0.00000000000E+00 0.  1.
         14    1    6    6    0    0 -0.34851210551E+02  0.38362846898E+02 -0.10713460532E+03  0.11901318648E+03  0.00000000000E+00 0. -1.
         -5    1    3    3    0  503  0.31600931279E+02 -0.44879822727E+02 -0.11414927579E+03  0.12674764104E+03  0.47000000000E+01 0.  1.
         11    1    4    4    0    0 -0.62549440260E+01 -0.46170566355E+02 -0.15091348777E+02  0.48975446197E+02  0.00000000000E+00 0. -1.
        -12    1    4    4    0    0 -0.68179321770E+02  0.11542296455E+02 -0.26576685021E+02  0.74080798533E+02  0.00000000000E+00 0.  1.
</event>
<event>
12    1  0.8196217E-002  0.1818200E+03  0.7818608E-02  0.1167047E+00
         21   -1    0    0  501  502  0.00000000000E+00  0.00000000000E+00  0.10708740754E+04  0.10708740754E+04  0.00000000000E+00 0. -1.
         21   -1    0    0  502  503 -0.00000000000E+00 -0.00000000000E+00 -0.71888654938E+02  0.71888654938E+02  0.00000000000E+00 0. -1.
         -6    2    1    2    0  503  0.51169514279E+02  0.10837688733E+02  0.61868534998E+02  0.18817037071E+03  0.16983697507E+03 0.  0.
        -24    2    3    3    0    0  0.80042438916E+02  0.67367748937E+01 -0.55856988413E+01  0.11453188258E+03  0.81450450779E+02 0.  0.
          6    2    1    2  501    0 -0.51169514279E+02 -0.10837688733E+02  0.93711688549E+03  0.95459235965E+03  0.17413426241E+03 0.  0.
         24    2    5    5    0    0 -0.37699973840E+02  0.10728046390E+01  0.21205703127E+03  0.22929437222E+03  0.78646587231E+02 0.  0.
          5    1    5    5  501    0 -0.13469540438E+02 -0.11910493372E+02  0.72505985422E+03  0.72529798743E+03  0.47000000000E+01 0. -1.
        -11    1    6    6    0    0 -0.23054326533E+02 -0.37208449698E+02  0.82277586275E+02  0.93196415725E+02  0.00000000000E+00 0.  1.
         12    1    6    6    0    0 -0.14645647307E+02  0.38281254337E+02  0.12977944500E+03  0.13609795650E+03  0.00000000000E+00 0. -1.
         -5    1    3    3    0  503 -0.28872924638E+02  0.41009138393E+01  0.67454233840E+02  0.73638488132E+02  0.47000000000E+01 0.  1.
         11    1    4    4    0    0  0.43588216906E+02 -0.36948952283E+02 -0.73149665455E+01  0.57607868068E+02  0.00000000000E+00 0. -1.
        -12    1    4    4    0    0  0.36454222011E+02  0.43685727177E+02  0.17292677043E+01  0.56924014512E+02  0.00000000000E+00 0.  1.
</event>
<event>
12    1  0.8196217E-002  0.1874236E+03  0.7818608E-02  0.1160958E+00
         21   -1    0    0  501  502  0.00000000000E+00  0.00000000000E+00  0.54314519553E+02  0.54314519553E+02  0.00000000000E+00 0. -1.
         21   -1    0    0  502  503 -0.00000000000E+00 -0.00000000000E+00 -0.67015957564E+03  0.67015957564E+03  0.00000000000E+00 0. -1.
         -6    2    1    2    0  503 -0.71736337883E+02  0.92202445471E+01 -0.37832448732E+03  0.42191231514E+03  0.17219021133E+03 0.  0.
        -24    2    3    3    0    0 -0.29309379635E+02 -0.20821158668E+02 -0.35270263294E+03  0.36376507002E+03  0.81445187085E+02 0.  0.
          6    2    1    2  501    0  0.71736337883E+02 -0.92202445471E+01 -0.23752056877E+03  0.30256178005E+03  0.17290602962E+03 0.  0.
         24    2    5    5    0    0  0.36658358627E+02  0.45179149571E+02 -0.20855952901E+03  0.23149427318E+03  0.81899515026E+02 0.  0.
          5    1    5    5  501    0  0.35077979256E+02 -0.54399394118E+02 -0.28961039758E+02  0.71067506871E+02  0.47000000000E+01 0. -1.
        -13    1    6    6    0    0  0.54858672436E+02  0.56692325153E+02 -0.16123679499E+03  0.17950152570E+03  0.00000000000E+00 0.  1.
         14    1    6    6    0    0 -0.18200313808E+02 -0.11513175582E+02 -0.47322734023E+02  0.51992747476E+02  0.00000000000E+00 0. -1.
         -5    1    3    3    0  503 -0.42426958248E+02  0.30041403215E+02 -0.25621854376E+02  0.58147245120E+02  0.47000000000E+01 0.  1.
         13    1    4    4    0    0 -0.53403068255E+02 -0.11626584439E+02 -0.30173230667E+03  0.30664221832E+03  0.00000000000E+00 0. -1.
        -14    1    4    4    0    0  0.24093688620E+02 -0.91945742293E+01 -0.50970326272E+02  0.57122851704E+02  0.00000000000E+00 0.  1.
</event>
<event>
12    1  0.8196217E-002  0.1790064E+03  0.7818608E-02  0.1168791E+00
         21   -1    0    0  501  502  0.00000000000E+00  0.00000000000E+00  0.58837637573E+03  0.58837637573E+03  0.00000000000E+00 0. -1.
         21   -1    0    0  502  503 -0.00000000000E+00 -0.00000000000E+00 -0.75401117194E+02  0.75401117194E+02  0.00000000000E+00 0. -1.
         -6    2    1    2    0  503 -0.43715519502E+02 -0.20633037096E+02  0.81514078932E+02  0.19669224827E+03  0.17235581395E+03 0.  0.
        -24    2    3    3    0    0 -0.23612541200E+02 -0.75683910191E+02  0.24493981586E+02  0.11478919664E+03  0.79315812851E+02 0.  0.
          6    2    1    2  501    0  0.43715519502E+02  0.20633037096E+02  0.43146117961E+03  0.46708524465E+03  0.17225883838E+03 0.  0.
         24    2    5    5    0    0  0.19588412620E+02 -0.39141127095E+02  0.12249708276E+03  0.15143358359E+03  0.77529744067E+02 0.  0.
          5    1    5    5  501    0  0.24127106881E+02  0.59774164191E+02  0.30896409685E+03  0.31565166106E+03  0.47000000000E+01 0. -1.
        -11    1    6    6    0    0 -0.55422642983E+01  0.22006571869E+02  0.26736734143E+02  0.35069343473E+02  0.00000000000E+00 0.  1.
         12    1    6    6    0    0  0.25130676919E+02 -0.61147698964E+02  0.95760348617E+02  0.11636424012E+03  0.00000000000E+00 0. -1.
         -5    1    3    3    0  503 -0.20102978301E+02  0.55050873095E+02  0.57020097346E+02  0.81903051631E+02  0.47000000000E+01 0.  1.
         11    1    4    4    0    0  0.22948054133E+02 -0.50033260351E+02 -0.26354585576E+01  0.55107948353E+02  0.00000000000E+00 0. -1.
        -12    1    4    4    0    0 -0.46560595333E+02 -0.25650649840E+02  0.27129440143E+02  0.59681248290E+02  0.00000000000E+00 0.  1.
</event>
<event>
12    1  0.8196217E-002  0.1923214E+03  0.7818608E-02  0.1156606E+00
         21   -1    0    0  501  502  0.00000000000E+00  0.00000000000E+00  0.55181114012E+03  0.55181114012E+03  0.00000000000E+00 0.  1.
         21   -1    0    0  502  503 -0.00000000000E+00 -0.00000000000E+00 -0.89727673084E+02  0.89727673084E+02  0.00000000000E+00 0. -1.
         -6    2    1    2    0  503 -0.60726172821E+02 -0.59429410478E+02  0.68033695105E+02  0.20306104355E+03  0.17142252140E+03 0.  0.
        -24    2    3    3    0    0 -0.49873142549E+02 -0.89899269698E+02  0.34407085472E+01  0.13066943838E+03  0.80581974476E+02 0.  0.
          6    2    1    2  501    0  0.60726172821E+02  0.59429410478E+02  0.39404977193E+03  0.43847776966E+03  0.17253408019E+03 0.  0.
         24    2    5    5    0    0  0.93915753293E+02  0.81550458129E+02  0.34464328695E+03  0.37480689909E+03  0.78933962421E+02 0.  0.
          5    1    5    5  501    0 -0.33189580472E+02 -0.22121047651E+02  0.49406484978E+02  0.63670870569E+02  0.47000000000E+01 0. -1.
        -11    1    6    6    0    0  0.21005738030E+02  0.66408138879E+02  0.20561772567E+03  0.21709429069E+03  0.00000000000E+00 0.  1.
         12    1    6    6    0    0  0.72910015263E+02  0.15142319250E+02  0.13902556129E+03  0.15771260840E+03  0.00000000000E+00 0. -1.
         -5    1    3    3    0  503 -0.10853030271E+02  0.30469859220E+02  0.64592986557E+02  0.72391605172E+02  0.47000000000E+01 0.  1.
         13    1    4    4    0    0 -0.36923047034E+02 -0.47844605360E+02 -0.37036151061E+02  0.70880844730E+02  0.00000000000E+00 0. -1.
        -14    1    4    4    0    0 -0.12950095516E+02 -0.42054664339E+02  0.40476859608E+02  0.59788593647E+02  0.00000000000E+00 0.  1.
</event>
<event>
12    1  0.8196217E-002  0.2279480E+03  0.7818608E-02  0.1129136E+00
         21   -1    0    0  501  502  0.00000000000E+00  0.00000000000E+00  0.57825418475E+03  0.57825418475E+03  0.00000000000E+00 0.  1.
         21   -1    0    0  502  503 -0.00000000000E+00 -0.00000000000E+00 -0.90765334659E+02  0.90765334659E+02  0.00000000000E+00 0. -1.
         -6    2    1    2    0  503  0.12842588665E+03 -0.62854113759E+02  0.17818554449E+03  0.28479458116E+03  0.17004122211E+03 0.  0.
        -24    2    3    3    0    0  0.16042115771E+03 -0.61613001900E+02  0.15153392593E+03  0.24287040554E+03  0.80575389148E+02 0.  0.
          6    2    1    2  501    0 -0.12842588665E+03  0.62854113759E+02  0.30930330560E+03  0.38422493825E+03  0.17752864653E+03 0.  0.
         24    2    5    5    0    0 -0.11782451996E+03 -0.19252633157E+02  0.17545225510E+03  0.22676986343E+03  0.79923687061E+02 0.  0.
          5    1    5    5  501    0 -0.10601366685E+02  0.82106746917E+02  0.13385105050E+03  0.15745507481E+03  0.47000000000E+01 0. -1.
        -13    1    6    6    0    0 -0.30568740507E+02 -0.13386828911E+02  0.11679044068E+03  0.12146465379E+03  0.00000000000E+00 0.  1.
         14    1    6    6    0    0 -0.87255779455E+02 -0.58658042466E+01  0.58661814418E+02  0.10530520965E+03  0.00000000000E+00 0. -1.
         -5    1    3    3    0  503 -0.31995271067E+02 -0.12411118592E+01  0.26651618561E+02  0.41924175618E+02  0.47000000000E+01 0.  1.
         11    1    4    4    0    0  0.20363945699E+02 -0.42840619819E+02  0.27389744154E+02  0.54774146052E+02  0.00000000000E+00 0. -1.
        -12    1    4    4    0    0  0.14005721202E+03 -0.18772382081E+02  0.12414418177E+03  0.18809625949E+03  0.00000000000E+00 0.  1.
</event>
<event>
12    1  0.8196217E-002  0.1776709E+03  0.7818608E-02  0.1170909E+00
         21   -1    0    0  503  502  0.00000000000E+00  0.00000000000E+00  0.14259706595E+03  0.14259706595E+03  0.00000000000E+00 0.  1.
         21   -1    0    0  501  503 -0.00000000000E+00 -0.00000000000E+00 -0.22617105151E+03  0.22617105151E+03  0.00000000000E+00 0.  1.
          6    2    1    2  501    0 -0.24613723033E+02  0.12835437661E+02 -0.78088727370E+02  0.19101259227E+03  0.17209699951E+03 0.  0.
         24    2    3    3    0    0 -0.14456674475E+02 -0.40504773656E+02 -0.97099380570E+02  0.13329051059E+03  0.80550843445E+02 0.  0.
         -6    2    1    2    0  502  0.24613723033E+02 -0.12835437661E+02 -0.54852581943E+01  0.17775552519E+03  0.17548890237E+03 0.  0.
        -24    2    5    5    0    0 -0.88697341052E+01 -0.46334066844E+02  0.48845691432E+02  0.10552504584E+03  0.80771998828E+02 0.  0.
          5    1    3    3  501    0 -0.10157048557E+02  0.53340211317E+02  0.19010653200E+02  0.57722081683E+02  0.47000000000E+01 0. -1.
        -13    1    4    4    0    0  0.22603290940E+02  0.41894481101E+00 -0.66347733866E+02  0.70093552237E+02  0.00000000000E+00 0.  1.
         14    1    4    4    0    0 -0.37059965415E+02 -0.40923718467E+02 -0.30751646705E+02  0.63196958351E+02  0.00000000000E+00 0. -1.
         -5    1    5    5    0  502  0.33483457138E+02  0.33498629183E+02 -0.54330949627E+02  0.72230479345E+02  0.47000000000E+01 0.  1.
         11    1    6    6    0    0 -0.32405947014E+02 -0.12955054918E+02 -0.77319674661E+01  0.35745799343E+02  0.00000000000E+00 0. -1.
        -12    1    6    6    0    0  0.23536212909E+02 -0.33379011927E+02  0.56577658899E+02  0.69779246497E+02  0.00000000000E+00 0.  1.
</event>
<event>
12    1  0.8196217E-002  0.2242082E+03  0.7818608E-02  0.1131195E+00
         21   -1    0    0  501  502  0.00000000000E+00  0.00000000000E+00  0.16217563736E+03  0.16217563736E+03  0.00000000000E+00 0. -1.
         21   -1    0    0  502  503 -0.00000000000E+00 -0.00000000000E+00 -0.30799385673E+03  0.30799385673E+03  0.00000000000E+00 0.  1.
         -6    2    1    2    0  503  0.14770341430E+02  0.13935616464E+03 -0.59060250135E+02  0.23185651637E+03  0.17501722038E+03 0.  0.
        -24    2    3    3    0    0  0.33832688080E+01  0.10344366537E+03  0.31101574342E+02  0.13402698290E+03  0.79270964454E+02 0.  0.
          6    2    1    2  501    0 -0.14770341430E+02 -0.13935616464E+03 -0.86757969239E+02  0.23831297772E+03  0.17212735552E+03 0.  0.
         24    2    5    5    0    0  0.53259035955E+02 -0.47086041444E+02 -0.16760796234E+02  0.10391258319E+03  0.73914007103E+02 0.  0.
          5    1    5    5  501    0 -0.68029377384E+02 -0.92270123192E+02 -0.69997173004E+02  0.13440039453E+03  0.47000000000E+01 0. -1.
        -13    1    6    6    0    0  0.15271338066E+02 -0.50749548703E+02 -0.33005981649E+02  0.62434968443E+02  0.00000000000E+00 0.  1.
         14    1    6    6    0    0  0.37987697888E+02  0.36635072595E+01  0.16245185414E+02  0.41477614751E+02  0.00000000000E+00 0. -1.
         -5    1    3    3    0  503  0.11387072622E+02  0.35912499264E+02 -0.90161824477E+02  0.97829533472E+02  0.47000000000E+01 0.  1.
         11    1    4    4    0    0  0.18712017180E+02 -0.52243413038E+01 -0.16571949252E+01  0.19498195404E+02  0.00000000000E+00 0. -1.
        -12    1    4    4    0    0 -0.15328748372E+02  0.10866800668E+03  0.32758769267E+02  0.11452878750E+03  0.00000000000E+00 0.  1.
</event>
<event>
12    1  0.8196217E-002  0.2468424E+03  0.7818608E-02  0.1115399E+00
         21   -1    0    0  501  502  0.00000000000E+00  0.00000000000E+00  0.23627637164E+03  0.23627637164E+03  0.00000000000E+00 0.  1.
         21   -1    0    0  502  503 -0.00000000000E+00 -0.00000000000E+00 -0.86432681398E+03  0.86432681398E+03  0.00000000000E+00 0.  1.
         -6    2    1    2    0  503 -0.55945334265E+02  0.16811270697E+03 -0.77508538276E+03  0.81328729417E+03  0.17113477034E+03 0.  0.
        -24    2    3    3    0    0 -0.29138288787E+02  0.94458982161E+01 -0.23308141020E+03  0.24788109491E+03  0.78611885666E+02 0.  0.
          6    2    1    2  501    0  0.55945334265E+02 -0.16811270697E+03  0.14703494042E+03  0.28731589144E+03  0.17187025659E+03 0.  0.
         24    2    5    5    0    0 -0.30232917595E+02 -0.11961167532E+03  0.95613632039E+02  0.17575746675E+03  0.80794420026E+02 0.  0.
          5    1    5    5  501    0  0.86178251860E+02 -0.48501031657E+02  0.51421308380E+02  0.11155842470E+03  0.47000000000E+01 0. -1.
        -11    1    6    6    0    0 -0.19743801593E+02 -0.12754436609E+03  0.69661029796E+02  0.14666302225E+03  0.00000000000E+00 0.  1.
         12    1    6    6    0    0 -0.10489116002E+02  0.79326907753E+01  0.25952602243E+02  0.29094444498E+02  0.00000000000E+00 0. -1.
         -5    1    3    3    0  503 -0.26807045478E+02  0.15866680876E+03 -0.54200397256E+03  0.56540619926E+03  0.47000000000E+01 0.  1.
         11    1    4    4    0    0 -0.34441164106E+01 -0.32556215473E+02 -0.65651660526E+02  0.73361499669E+02  0.00000000000E+00 0. -1.
        -12    1    4    4    0    0 -0.25694172376E+02  0.42002113689E+02 -0.16742974967E+03  0.17451959525E+03  0.00000000000E+00 0.  1.
</event>
<event>
12    1  0.8196217E-002  0.2463965E+03  0.7818608E-02  0.1116070E+00
         21   -1    0    0  501  502  0.00000000000E+00  0.00000000000E+00  0.69874255307E+03  0.69874255307E+03  0.00000000000E+00 0. -1.
         21   -1    0    0  502  503 -0.00000000000E+00 -0.00000000000E+00 -0.17739992746E+03  0.17739992746E+03  0.00000000000E+00 0.  1.
         -6    2    1    2    0  503  0.17331622612E+03 -0.25180808347E+02 -0.53243888311E+02  0.25208365873E+03  0.17331668129E+03 0.  0.
        -24    2    3    3    0    0  0.89461987961E+02 -0.30956119794E+02  0.36355013710E+02  0.12914082355E+03  0.79962095043E+02 0.  0.
          6    2    1    2  501    0 -0.17331622612E+03  0.25180808347E+02  0.57458651392E+03  0.62405882180E+03  0.16919563748E+03 0.  0.
         24    2    5    5    0    0 -0.14226222852E+03 -0.31950624961E+01  0.26210463724E+03  0.30872320049E+03  0.79764801570E+02 0.  0.
          5    1    5    5  501    0 -0.31053997595E+02  0.28375870844E+02  0.31248187668E+03  0.31533562131E+03  0.47000000000E+01 0. -1.
        -11    1    6    6    0    0 -0.12942123885E+03  0.17722112616E+02  0.17594607032E+03  0.21913682940E+03  0.00000000000E+00 0.  1.
         12    1    6    6    0    0 -0.12840989675E+02 -0.20917175112E+02  0.86158566925E+02  0.89586371090E+02  0.00000000000E+00 0. -1.
         -5    1    3    3    0  503  0.83854238154E+02  0.57753114469E+01 -0.89598902021E+02  0.12294283518E+03  0.47000000000E+01 0.  1.
         13    1    4    4    0    0  0.10121225777E+03 -0.28957654942E+02  0.17329438360E+02  0.10669009484E+03  0.00000000000E+00 0. -1.
        -14    1    4    4    0    0 -0.11750269811E+02 -0.19984648521E+01  0.19025575350E+02  0.22450728714E+02  0.00000000000E+00 0.  1.
</event>
<event>
12    1  0.8196217E-002  0.1965272E+03  0.7818608E-02  0.1153973E+00
         21   -1    0    0  501  502  0.00000000000E+00  0.00000000000E+00  0.11062257250E+04  0.11062257250E+04  0.00000000000E+00 0.  1.
         21   -1    0    0  502  503 -0.00000000000E+00 -0.00000000000E+00 -0.21895615253E+03  0.21895615253E+03  0.00000000000E+00 0.  1.
         -6    2    1    2    0  503 -0.81637108148E+02  0.60042589294E+00 -0.16653708585E+03  0.25320640987E+03  0.17237722327E+03 0.  0.
        -24    2    3    3    0    0 -0.80625032679E+02 -0.58754205748E+02 -0.13514714901E+03  0.18589062622E+03  0.79612313399E+02 0.  0.
          6    2    1    2  501    0  0.81637108148E+02 -0.60042589294E+00  0.10538066583E+04  0.10719754677E+04  0.17876787241E+03 0.  0.
         24    2    5    5    0    0  0.70523427592E+02  0.59510280050E+02  0.50869573594E+03  0.52342754946E+03  0.81792545486E+02 0.  0.
          5    1    5    5  501    0  0.11113680556E+02 -0.60110705943E+02  0.54511092238E+03  0.54854791820E+03  0.47000000000E+01 0. -1.
        -13    1    6    6    0    0  0.32115487289E+02  0.75209588493E+02  0.34345048447E+03  0.35305257684E+03  0.00000000000E+00 0.  1.
         14    1    6    6    0    0  0.38407940303E+02 -0.15699308443E+02  0.16524525147E+03  0.17037497263E+03  0.00000000000E+00 0. -1.
         -5    1    3    3    0  503 -0.10120754693E+01  0.59354631641E+02 -0.31389936842E+02  0.67315783654E+02  0.47000000000E+01 0.  1.
         13    1    4    4    0    0 -0.80862592600E+02 -0.37894905141E+02 -0.59227774917E+02  0.10715741710E+03  0.00000000000E+00 0. -1.
        -14    1    4    4    0    0  0.23755992161E+00 -0.20859300607E+02 -0.75919374089E+02  0.78733209121E+02  0.00000000000E+00 0.  1.
</event>
<event>
12    1  0.8196217E-002  0.1808379E+03  0.7818608E-02  0.1168148E+00
         21   -1    0    0  501  502  0.00000000000E+00  0.00000000000E+00  0.53365513980E+02  0.53365513980E+02  0.00000000000E+00 0. -1.
         21   -1    0    0  502  503 -0.00000000000E+00 -0.00000000000E+00 -0.62368670461E+03  0.62368670461E+03  0.00000000000E+00 0. -1.
         -6    2    1    2    0  503  0.35042653414E+02  0.40387130910E+02 -0.35895659621E+03  0.40193554345E+03  0.17275194709E+03 0.  0.
        -24    2    3    3    0    0 -0.31766160515E+02  0.65866092631E+02 -0.24078948124E+03  0.26373947922E+03  0.78939898081E+02 0.  0.
          6    2    1    2  501    0 -0.35042653414E+02 -0.40387130910E+02 -0.21136459442E+03  0.27511667514E+03  0.16779477127E+03 0.  0.
         24    2    5    5    0    0 -0.64654404187E+01  0.38453487478E+02 -0.13579995873E+03  0.16213612647E+03  0.79536294217E+02 0.  0.
          5    1    5    5  501    0 -0.28577212995E+02 -0.78840618388E+02 -0.75564635690E+02  0.11298054867E+03  0.47000000000E+01 0. -1.
        -11    1    6    6    0    0  0.12194700350E+02 -0.13809183056E+02 -0.84761214547E+02  0.86740231409E+02  0.00000000000E+00 0.  1.
         12    1    6    6    0    0 -0.18660140769E+02  0.52262670534E+02 -0.51038744181E+02  0.75395895063E+02  0.00000000000E+00 0. -1.
         -5    1    3    3    0  503  0.66808813929E+02 -0.25478961722E+02 -0.11816711497E+03  0.13819606423E+03  0.47000000000E+01 0.  1.
         11    1    4    4    0    0  0.26139416412E+02  0.20944272905E+02 -0.91337738792E+02  0.97285734748E+02  0.00000000000E+00 0. -1.
        -12    1    4    4    0    0 -0.57905576926E+02  0.44921819726E+02 -0.14945174245E+03  0.16645374447E+03  0.00000000000E+00 0.  1.
</event>
<event>
12    1  0.8196217E-002  0.1807223E+03  0.7818608E-02  0.1167244E+00
         21   -1    0    0  503  502  0.00000000000E+00  0.00000000000E+00  0.38166200103E+03  0.38166200103E+03  0.00000000000E+00 0.  1.
         21   -1    0    0  501  503 -0.00000000000E+00 -0.00000000000E+00 -0.96133412138E+02  0.96133412138E+02  0.00000000000E+00 0.  1.
          6    2    1    2  501    0  0.48298254853E+02  0.27827627186E+02  0.62382668012E+02  0.19064625758E+03  0.17131053676E+03 0.  0.
         24    2    3    3    0    0 -0.36850595202E+02 -0.50054150863E+01  0.39501055017E+02  0.96444381040E+02  0.79738100929E+02 0.  0.
         -6    2    1    2    0  502 -0.48298254853E+02 -0.27827627186E+02  0.22314592088E+03  0.28714915559E+03  0.17191113196E+03 0.  0.
        -24    2    5    5    0    0 -0.46216860730E+02 -0.12596860325E+02  0.34131901814E+02  0.97452824932E+02  0.77700625866E+02 0.  0.
          5    1    3    3  501    0  0.85148850055E+02  0.32833042273E+02  0.22881612995E+02  0.94201876541E+02  0.47000000000E+01 0. -1.
        -11    1    4    4    0    0  0.13094443314E+02 -0.25104234447E+02 -0.21217485149E+01  0.28393464911E+02  0.00000000000E+00 0.  1.
         12    1    4    4    0    0 -0.49945038516E+02  0.20098819361E+02  0.41622803532E+02  0.68050916129E+02  0.00000000000E+00 0. -1.
         -5    1    5    5    0  502 -0.20813941228E+01 -0.15230766861E+02  0.18901401907E+03  0.18969633066E+03  0.47000000000E+01 0.  1.
         13    1    6    6    0    0 -0.11446347191E+01 -0.26201826776E+02  0.42199865098E+02  0.49685757812E+02  0.00000000000E+00 0. -1.
        -14    1    6    6    0    0 -0.45072226011E+02  0.13604966451E+02 -0.80679632840E+01  0.47767067120E+02  0.00000000000E+00 0.  1.
</event>
<event>
12    1  0.8196217E-002  0.2734361E+03  0.7818608E-02  0.1099390E+00
         21   -1    0    0  501  502  0.00000000000E+00  0.00000000000E+00  0.19287872513E+03  0.19287872513E+03  0.00000000000E+00 0.  1.
         21   -1    0    0  502  503 -0.00000000000E+00 -0.00000000000E+00 -0.39695381411E+03  0.39695381411E+03  0.00000000000E+00 0.  1.
         -6    2    1    2    0  503 -0.15728094969E+03 -0.14343066029E+03 -0.14860821450E+03  0.31082736649E+03  0.17093741223E+03 0.  0.
        -24    2    3    3    0    0 -0.33918397143E+02 -0.10293458680E+02 -0.26488174663E+02  0.92014140310E+02  0.80675681985E+02 0.  0.
          6    2    1    2  501    0  0.15728094969E+03  0.14343066029E+03 -0.55466874471E+02  0.27900517275E+03  0.17163234197E+03 0.  0.
         24    2    5    5    0    0  0.31684760501E+02  0.31327814755E+02  0.18191731000E+02  0.95186972136E+02  0.82123471446E+02 0.  0.
          5    1    5    5  501    0  0.12559618919E+03  0.11210284553E+03 -0.73658605472E+02  0.18381820061E+03  0.47000000000E+01 0. -1.
        -13    1    6    6    0    0  0.46191153459E+02  0.11440537357E+02  0.40103236665E+02  0.62231649054E+02  0.00000000000E+00 0.  1.
         14    1    6    6    0    0 -0.14506392958E+02  0.19887277398E+02 -0.21911505665E+02  0.32955323082E+02  0.00000000000E+00 0. -1.
         -5    1    3    3    0  503 -0.12336255255E+03 -0.13313720161E+03 -0.12212003984E+03  0.21881322618E+03  0.47000000000E+01 0.  1.
         11    1    4    4    0    0 -0.25234148850E+02  0.33736310565E+02 -0.20117001026E+02  0.46686129085E+02  0.00000000000E+00 0. -1.
        -12    1    4    4    0    0 -0.86842482940E+01 -0.44029769244E+02 -0.63711736370E+01  0.45328011225E+02  0.00000000000E+00 0.  1.
</event>
<event>
12    1  0.8196217E-002  0.2986514E+03  0.7818608E-02  0.1086089E+00
         21   -1    0    0  501  502  0.00000000000E+00  0.00000000000E+00  0.31097020001E+03  0.31097020001E+03  0.00000000000E+00 0. -1.
         21   -1    0    0  502  503 -0.00000000000E+00 -0.00000000000E+00 -0.74709862577E+03  0.74709862577E+03  0.00000000000E+00 0.  1.
         -6    2    1    2    0  503  0.14059754684E+03 -0.19950184764E+03 -0.63409356081E+03  0.70090463798E+03  0.17211626966E+03 0.  0.
        -24    2    3    3    0    0  0.14706224713E+03 -0.89936945879E+02 -0.42602324279E+03  0.46561416369E+03  0.74731434272E+02 0.  0.
          6    2    1    2  501    0 -0.14059754684E+03  0.19950184764E+03  0.19796513505E+03  0.35716418780E+03  0.16972744316E+03 0.  0.
         24    2    5    5    0    0 -0.35076290149E+02  0.28694555850E+02  0.35741923354E+02  0.99000815194E+02  0.80436015926E+02 0.  0.
          5    1    5    5  501    0 -0.10552125669E+03  0.17080729179E+03  0.16222321170E+03  0.25816337261E+03  0.47000000000E+01 0. -1.
        -11    1    6    6    0    0 -0.22718908355E+02 -0.24212513754E+02  0.29313450971E+02  0.44290778126E+02  0.00000000000E+00 0.  1.
         12    1    6    6    0    0 -0.12357381794E+02  0.52907069604E+02  0.64284723822E+01  0.54710037069E+02  0.00000000000E+00 0. -1.
         -5    1    3    3    0  503 -0.64647002849E+01 -0.10956490176E+03 -0.20807031803E+03  0.23529047429E+03  0.47000000000E+01 0.  1.
         11    1    4    4    0    0  0.42278375292E+02 -0.40913922332E+02 -0.70945531806E+02  0.92166580392E+02  0.00000000000E+00 0. -1.
        -12    1    4    4    0    0  0.10478387183E+03 -0.49023023548E+02 -0.35507771098E+03  0.37344758330E+03  0.00000000000E+00 0.  1.
</event>
<event>
12    1  0.8196217E-002  0.2001798E+03  0.7818608E-02  0.1149719E+00
         21   -1    0    0  501  502  0.00000000000E+00  0.00000000000E+00  0.64940258252E+02  0.64940258252E+02  0.00000000000E+00 0.  1.
         21   -1    0    0  502  503 -0.00000000000E+00 -0.00000000000E+00 -0.61972154415E+03  0.61972154415E+03  0.00000000000E+00 0.  1.
         -6    2    1    2    0  503  0.40686730622E+02  0.94249702444E+02 -0.30638044785E+03  0.36563998860E+03  0.17112920842E+03 0.  0.
        -24    2    3    3    0    0 -0.42462425883E+02  0.68700158704E+02 -0.16893514766E+03  0.20291364790E+03  0.78179888526E+02 0.  0.
          6    2    1    2  501    0 -0.40686730622E+02 -0.94249702444E+02 -0.24840083805E+03  0.31902181381E+03  0.17185320737E+03 0.  0.
         24    2    5    5    0    0 -0.73638991999E+02 -0.10436052982E+03 -0.14162956749E+03  0.20672633493E+03  0.79768551696E+02 0.  0.
          5    1    5    5  501    0  0.32952261377E+02  0.10110827371E+02 -0.10677127056E+03  0.11229547888E+03  0.47000000000E+01 0. -1.
        -11    1    6    6    0    0 -0.30159723170E+02 -0.66307856921E+02 -0.12813236059E+03  0.14739146047E+03  0.00000000000E+00 0.  1.
         12    1    6    6    0    0 -0.43479268829E+02 -0.38052672894E+02 -0.13497206903E+02  0.59334874455E+02  0.00000000000E+00 0. -1.
         -5    1    3    3    0  503  0.83149156505E+02  0.25549543740E+02 -0.13744530019E+03  0.16272634070E+03  0.47000000000E+01 0.  1.
         11    1    4    4    0    0 -0.22579889969E+02  0.80886870028E+02 -0.15342980741E+03  0.17490924211E+03  0.00000000000E+00 0. -1.
        -12    1    4    4    0    0 -0.19882535914E+02 -0.12186711323E+02 -0.15505340256E+02  0.28004405791E+02  0.00000000000E+00 0.  1.
</event>
<event>
12    1  0.8196217E-002  0.1953140E+03  0.7818608E-02  0.1154619E+00
         21   -1    0    0  501  502  0.00000000000E+00  0.00000000000E+00  0.57468227453E+03  0.57468227453E+03  0.00000000000E+00 0.  1.
         21   -1    0    0  502  503 -0.00000000000E+00 -0.00000000000E+00 -0.77350465604E+02  0.77350465604E+02  0.00000000000E+00 0.  1.
         -6    2    1    2    0  503 -0.79542976991E+02 -0.41335526355E+02  0.11653724619E+03  0.22407004562E+03  0.16908797907E+03 0.  0.
        -24    2    3    3    0    0 -0.47690309785E+02 -0.18558986504E+02  0.14661023082E+03  0.17447329593E+03  0.79546021804E+02 0.  0.
          6    2    1    2  501    0  0.79542976991E+02  0.41335526355E+02  0.38079456274E+03  0.42796269452E+03  0.17352768644E+03 0.  0.
         24    2    5    5    0    0  0.10716898940E+03 -0.12115095175E+02  0.26379748092E+03  0.29631706163E+03  0.81133977186E+02 0.  0.
          5    1    5    5  501    0 -0.27626012413E+02  0.53450621530E+02  0.11699708182E+03  0.13164563288E+03  0.47000000000E+01 0. -1.
        -11    1    6    6    0    0  0.97293414971E+02  0.11753711583E+02  0.24639941665E+03  0.26517320916E+03  0.00000000000E+00 0.  1.
         12    1    6    6    0    0  0.98755744325E+01 -0.23868806757E+02  0.17398064275E+02  0.31143852474E+02  0.00000000000E+00 0. -1.
         -5    1    3    3    0  503 -0.31852667206E+02 -0.22776539851E+02 -0.30072984624E+02  0.49596749691E+02  0.47000000000E+01 0.  1.
         13    1    4    4    0    0 -0.28896093499E+01  0.26227484418E+02  0.20741659260E+02  0.33562586461E+02  0.00000000000E+00 0. -1.
        -14    1    4    4    0    0 -0.44800700435E+02 -0.44786470922E+02  0.12586857156E+03  0.14091070947E+03  0.00000000000E+00 0.  1.
</event>
<event>
12    1  0.8196217E-002  0.2019777E+03  0.7818608E-02  0.1148641E+00
         21   -1    0    0  503  502  0.00000000000E+00  0.00000000000E+00  0.12603099125E+03  0.12603099125E+03  0.00000000000E+00 0.  1.
         21   -1    0    0  501  503 -0.00000000000E+00 -0.00000000000E+00 -0.35480067345E+03  0.35480067345E+03  0.00000000000E+00 0.  1.
          6    2    1    2  501    0 -0.10126704675E+03 -0.34141374954E+02 -0.18961319439E+03  0.27509341465E+03  0.16823369180E+03 0.  0.
         24    2    3    3    0    0 -0.71383744891E+02  0.35373499673E+02 -0.15586999641E+03  0.19211135072E+03  0.79147910780E+02 0.  0.
         -6    2    1    2    0  502  0.10126704675E+03  0.34141374954E+02 -0.39156487800E+02  0.20573825004E+03  0.17138946512E+03 0.  0.
        -24    2    5    5    0    0 -0.89751787507E+01  0.83387535643E+01 -0.45685679389E+02  0.92231228690E+02  0.79179098251E+02 0.  0.
          5    1    3    3  501    0 -0.29883301859E+02 -0.69514874626E+02 -0.33743197983E+02  0.82982063932E+02  0.47000000000E+01 0. -1.
        -11    1    4    4    0    0 -0.32188650543E+02  0.41441719414E+00 -0.52748443169E+01  0.32620621514E+02  0.00000000000E+00 0.  1.
         12    1    4    4    0    0 -0.39195094348E+02  0.34959082479E+02 -0.15059515209E+03  0.15949072921E+03  0.00000000000E+00 0. -1.
         -5    1    5    5    0  502  0.11024222550E+03  0.25802621389E+02  0.65291915891E+01  0.11350702135E+03  0.47000000000E+01 0.  1.
         13    1    6    6    0    0  0.15153222760E+02  0.28106607650E+02 -0.51408908145E+02  0.60518405384E+02  0.00000000000E+00 0. -1.
        -14    1    6    6    0    0 -0.24128401511E+02 -0.19767854086E+02  0.57232287557E+01  0.31712823306E+02  0.00000000000E+00 0.  1.
</event>
<event>
12    1  0.8196217E-002  0.2434708E+03  0.7818608E-02  0.1117865E+00
         21   -1    0    0  503  502  0.00000000000E+00  0.00000000000E+00  0.27374581026E+03  0.27374581026E+03  0.00000000000E+00 0.  1.
         21   -1    0    0  501  503 -0.00000000000E+00 -0.00000000000E+00 -0.42783833027E+03  0.42783833027E+03  0.00000000000E+00 0. -1.
          6    2    1    2  501    0 -0.57766935294E+02 -0.16235317944E+03 -0.32488263596E+03  0.40598864338E+03  0.17199557471E+03 0.  0.
         24    2    3    3    0    0  0.33678691077E+01 -0.75333476011E+02 -0.25790201932E+03  0.28021747777E+03  0.79510427790E+02 0.  0.
         -6    2    1    2    0  502  0.57766935294E+02  0.16235317944E+03  0.17079011595E+03  0.29559549715E+03  0.16885455440E+03 0.  0.
        -24    2    5    5    0    0 -0.22907393243E+02  0.48798406240E+02  0.38284191506E+02  0.10328599709E+03  0.79349132058E+02 0.  0.
          5    1    3    3  501    0 -0.61134804402E+02 -0.87019703429E+02 -0.66980616639E+02  0.12577116561E+03  0.47000000000E+01 0. -1.
        -11    1    4    4    0    0 -0.21680473936E+02 -0.21357318957E+01 -0.18354227446E+02  0.28486522532E+02  0.00000000000E+00 0.  1.
         12    1    4    4    0    0  0.25048343043E+02 -0.73197744115E+02 -0.23954779187E+03  0.25173095524E+03  0.00000000000E+00 0. -1.
         -5    1    5    5    0  502  0.80674328537E+02  0.11355477320E+03  0.13250592445E+03  0.19230950006E+03  0.47000000000E+01 0.  1.
         11    1    6    6    0    0 -0.77570408882E+01 -0.22083877658E+02  0.10614733973E+02  0.25701009962E+02  0.00000000000E+00 0. -1.
        -12    1    6    6    0    0 -0.15150352355E+02  0.70882283898E+02  0.27669457533E+02  0.77584987125E+02  0.00000000000E+00 0.  1.
</event>
<event>
12    1  0.8196217E-002  0.3393665E+03  0.7818608E-02  0.1068234E+00
         21   -1    0    0  501  502  0.00000000000E+00  0.00000000000E+00  0.40090208490E+03  0.40090208490E+03  0.00000000000E+00 0. -1.
         21   -1    0    0  502  503 -0.00000000000E+00 -0.00000000000E+00 -0.46650475062E+03  0.46650475062E+03  0.00000000000E+00 0.  1.
         -6    2    1    2    0  503  0.44339594958E+02  0.27707085966E+03  0.24300871019E+03  0.40870148997E+03  0.17102459977E+03 0.  0.
        -24    2    3    3    0    0  0.29176197985E+02  0.86053563020E+02  0.15676893367E+03  0.19851841435E+03  0.81096214684E+02 0.  0.
          6    2    1    2  501    0 -0.44339594958E+02 -0.27707085966E+03 -0.30861137591E+03  0.45870534555E+03  0.19088046454E+03 0.  0.
         24    2    5    5    0    0 -0.44462205371E+02 -0.20626003224E+03 -0.31468506381E+03  0.38747917060E+03  0.81199320544E+02 0.  0.
          5    1    5    5  501    0  0.12261041311E+00 -0.70810827420E+02  0.60736879025E+01  0.71226174950E+02  0.47000000000E+01 0. -1.
        -11    1    6    6    0    0 -0.15601294698E+01 -0.15146122592E+03 -0.17522022683E+03  0.23161404286E+03  0.00000000000E+00 0.  1.
         12    1    6    6    0    0 -0.42902075901E+02 -0.54798806327E+02 -0.13946483698E+03  0.15586512774E+03  0.00000000000E+00 0. -1.
         -5    1    3    3    0  503  0.15163396973E+02  0.19101729664E+03  0.86239776522E+02  0.21018307562E+03  0.47000000000E+01 0.  1.
         11    1    4    4    0    0  0.11351660671E+02  0.86212830544E+02  0.75010560656E+02  0.11483943817E+03  0.00000000000E+00 0. -1.
        -12    1    4    4    0    0  0.17824537314E+02 -0.15926752346E+00  0.81758373010E+02  0.83678976176E+02  0.00000000000E+00 0.  1.
</event>
<event>
12    1  0.8196217E-002  0.2195451E+03  0.7818608E-02  0.1137708E+00
         21   -1    0    0  501  502  0.00000000000E+00  0.00000000000E+00  0.23761505882E+03  0.23761505882E+03  0.00000000000E+00 0. -1.
         21   -1    0    0  502  503 -0.00000000000E+00 -0.00000000000E+00 -0.20436155964E+03  0.20436155964E+03  0.00000000000E+00 0. -1.
         -6    2    1    2    0  503 -0.14333836181E+02  0.10464716306E+03  0.80874933740E+02  0.21732615213E+03  0.17185288445E+03 0.  0.
        -24    2    3    3    0    0  0.55997439854E+02  0.95714540449E+02  0.51915301401E+02  0.14059916574E+03  0.69108178697E+02 0.  0.
          6    2    1    2  501    0  0.14333836181E+02 -0.10464716306E+03 -0.47621434564E+02  0.22465046634E+03  0.19246699301E+03 0.  0.
         24    2    5    5    0    0  0.31667439839E+02 -0.12653484795E+03  0.17947115998E+02  0.15323023539E+03  0.78380556084E+02 0.  0.
          5    1    5    5  501    0 -0.17333603658E+02  0.21887684894E+02 -0.65568550562E+02  0.71420230947E+02  0.47000000000E+01 0. -1.
        -13    1    6    6    0    0  0.48092940925E+02 -0.75956587523E+02 -0.14309364281E+02  0.91033466709E+02  0.00000000000E+00 0.  1.
         14    1    6    6    0    0 -0.16425501087E+02 -0.50578260431E+02  0.32256480279E+02  0.62196768680E+02  0.00000000000E+00 0. -1.
         -5    1    3    3    0  503 -0.70331276035E+02  0.89326226111E+01  0.28959632339E+02  0.76726986391E+02  0.47000000000E+01 0.  1.
         11    1    4    4    0    0  0.35042187366E+02  0.54003572025E+01  0.25123475117E+01  0.35544769564E+02  0.00000000000E+00 0. -1.
        -12    1    4    4    0    0  0.20955252488E+02  0.90314183247E+02  0.49402953890E+02  0.10505439617E+03  0.00000000000E+00 0.  1.
</event>
<event>
12    1  0.8196217E-002  0.1829451E+03  0.7818608E-02  0.1165362E+00
         21   -1    0    0  501  502  0.00000000000E+00  0.00000000000E+00  0.13538010399E+03  0.13538010399E+03  0.00000000000E+00 0. -1.
         21   -1    0    0  502  503 -0.00000000000E+00 -0.00000000000E+00 -0.41288755274E+03  0.41288755274E+03  0.00000000000E+00 0. -1.
         -6    2    1    2    0  503 -0.23471525274E+02  0.51690110072E+02 -0.31388198434E+03  0.36330539182E+03  0.17391413874E+03 0.  0.
        -24    2    3    3    0    0  0.52357656163E+02  0.20998098227E+02 -0.12964195126E+03  0.16166575252E+03  0.78399845173E+02 0.  0.
          6    2    1    2  501    0  0.23471525274E+02 -0.51690110072E+02  0.36374535591E+02  0.18496226491E+03  0.17223574722E+03 0.  0.
         24    2    5    5    0    0  0.61891178358E+02 -0.72176115169E+02 -0.75588386747E+01  0.12293019641E+03  0.77555061648E+02 0.  0.
          5    1    5    5  501    0 -0.38419653084E+02  0.20486005097E+02  0.43933374266E+02  0.62032068499E+02  0.47000000000E+01 0. -1.
        -11    1    6    6    0    0  0.78662769901E+02 -0.62167778345E+02  0.38028011988E+01  0.10033506531E+03  0.00000000000E+00 0.  1.
         12    1    6    6    0    0 -0.16771591544E+02 -0.10008336823E+02 -0.11361639874E+02  0.22595131101E+02  0.00000000000E+00 0. -1.
         -5    1    3    3    0  503 -0.75829181437E+02  0.30692011845E+02 -0.18424003308E+03  0.20163963930E+03  0.47000000000E+01 0.  1.
         11    1    4    4    0    0 -0.74318783388E+01 -0.14976599632E+02 -0.62985664795E+02  0.65166903577E+02  0.00000000000E+00 0. -1.
        -12    1    4    4    0    0  0.59789534502E+02  0.35974697859E+02 -0.66656286470E+02  0.96498848946E+02  0.00000000000E+00 0.  1.
</event>
<event>
12    1  0.8196217E-002  0.1763007E+03  0.7818608E-02  0.1171705E+00
         21   -1    0    0  503  502  0.00000000000E+00  0.00000000000E+00  0.68399044012E+03  0.68399044012E+03  0.00000000000E+00 0.  1.
         21   -1    0    0  501  503 -0.00000000000E+00 -0.00000000000E+00 -0.57408740975E+02  0.57408740975E+02  0.00000000000E+00 0.  1.
          6    2    1    2  501    0 -0.32213950406E+02  0.21012681318E+02  0.14283339122E+03  0.22689934590E+03  0.17205424768E+03 0.  0.
         24    2    3    3    0    0 -0.73912379684E+02  0.41481690401E+02  0.57114748377E+02  0.12929035519E+03  0.79184158471E+02 0.  0.
         -6    2    1    2    0  502  0.32213950406E+02 -0.21012681318E+02  0.48374830793E+03  0.51449983520E+03  0.17093385744E+03 0.  0.
        -24    2    5    5    0    0  0.15582339582E+02  0.58722786643E+02  0.28502631133E+03  0.29968159282E+03  0.69841849517E+02 0.  0.
          5    1    3    3  501    0  0.41698429278E+02 -0.20469009083E+02  0.85718642844E+02  0.97608990713E+02  0.47000000000E+01 0. -1.
        -13    1    4    4    0    0  0.14445334910E+02  0.30934694317E+01 -0.38725175514E+01  0.15271988933E+02  0.00000000000E+00 0.  1.
         14    1    4    4    0    0 -0.88357714594E+02  0.38388220969E+02  0.60987265928E+02  0.11401836625E+03  0.00000000000E+00 0. -1.
         -5    1    5    5    0  502  0.16631610825E+02 -0.79735467960E+02  0.19872199660E+03  0.21481824239E+03  0.47000000000E+01 0.  1.
         13    1    6    6    0    0 -0.51806920289E+01  0.66212196226E+02  0.24639777244E+03  0.25519160794E+03  0.00000000000E+00 0. -1.
        -14    1    6    6    0    0  0.20763031611E+02 -0.74894095832E+01  0.38628538893E+02  0.44489984879E+02  0.00000000000E+00 0.  1.
</event>
<event>
12    1  0.8196217E-002  0.1822706E+03  0.7818608E-02  0.1165951E+00
         21   -1    0    0  501  502  0.00000000000E+00  0.00000000000E+00  0.10420874642E+04  0.10420874642E+04  0.00000000000E+00 0. -1.
         21   -1    0    0  502  503 -0.00000000000E+00 -0.00000000000E+00 -0.38298565191E+02  0.38298565191E+02  0.00000000000E+00 0. -1.
         -6    2    1    2    0  503 -0.40506297747E+02 -0.45817805499E+02  0.27511010064E+03  0.32925664336E+03  0.17024787300E+03 0.  0.
        -24    2    3    3    0    0 -0.34715205997E+02  0.35313248076E+02  0.98918406332E+02  0.13513969989E+03  0.77625487809E+02 0.  0.
          6    2    1    2  501    0  0.40506297747E+02  0.45817805499E+02  0.72867879836E+03  0.75112938602E+03  0.17170478128E+03 0.  0.
         24    2    5    5    0    0  0.83036516081E+02 -0.21808370589E+01  0.52233100213E+03  0.53499472391E+03  0.80559665915E+02 0.  0.
          5    1    5    5  501    0 -0.42530218335E+02  0.47998642558E+02  0.20634779623E+03  0.21613466211E+03  0.47000000000E+01 0. -1.
        -11    1    6    6    0    0  0.12001732809E+02  0.14525255503E+02  0.20334647211E+02  0.27722238637E+02  0.00000000000E+00 0.  1.
         12    1    6    6    0    0  0.71034783272E+02 -0.16706092562E+02  0.50199635492E+03  0.50727248527E+03  0.00000000000E+00 0. -1.
         -5    1    3    3    0  503 -0.57910917491E+01 -0.81131053575E+02  0.17619169431E+03  0.19411694347E+03  0.47000000000E+01 0.  1.
         11    1    4    4    0    0 -0.43085177531E+02 -0.10491398183E+02  0.37556099466E+02  0.58110778396E+02  0.00000000000E+00 0. -1.
        -12    1    4    4    0    0  0.83699715332E+01  0.45804646259E+02  0.61362306866E+02  0.77028921493E+02  0.00000000000E+00 0.  1.
</event>
<event>
12    1  0.8196217E-002  0.1815297E+03  0.7818608E-02  0.1166906E+00
         21   -1    0    0  503  502  0.00000000000E+00  0.00000000000E+00  0.14111997186E+04  0.14111997186E+04  0.00000000000E+00 0. -1.
         21   -1    0    0  501  503 -0.00000000000E+00 -0.00000000000E+00 -0.53435296689E+02  0.53435296689E+02  0.00000000000E+00 0. -1.
          6    2    1    2  501    0  0.40768918113E+02 -0.40017103829E+02  0.12467917891E+03  0.21825937671E+03  0.16979041370E+03 0.  0.
         24    2    3    3    0    0 -0.28868003479E+02 -0.15083984226E+01  0.10681190635E+03  0.13656757376E+03  0.80039252701E+02 0.  0.
         -6    2    1    2    0  502 -0.40768918113E+02  0.40017103829E+02  0.12330852430E+04  0.12463756386E+04  0.17230653688E+03 0.  0.
        -24    2    5    5    0    0 -0.89430866536E+02  0.39603365540E+02  0.10119410708E+04  0.10198916628E+04  0.81166289471E+02 0.  0.
          5    1    3    3  501    0  0.69636921592E+02 -0.38508705407E+02  0.17867272558E+02  0.81691802952E+02  0.47000000000E+01 0. -1.
        -11    1    4    4    0    0 -0.41150099014E+02 -0.31657390272E+02  0.73520869084E+02  0.90004662094E+02  0.00000000000E+00 0.  1.
         12    1    4    4    0    0  0.12282095535E+02  0.30148991849E+02  0.33291037266E+02  0.46562911662E+02  0.00000000000E+00 0. -1.
         -5    1    5    5    0  502  0.48661948423E+02  0.41373828975E+00  0.22114417221E+03  0.22648397582E+03  0.47000000000E+01 0.  1.
         11    1    6    6    0    0 -0.62169811948E+02  0.31411826366E+02  0.93919967263E+03  0.94177906826E+03  0.00000000000E+00 0. -1.
        -12    1    6    6    0    0 -0.27261054588E+02  0.81915391735E+01  0.72741398175E+02  0.78112594501E+02  0.00000000000E+00 0.  1.
</event>
<event>
12    1  0.8196217E-002  0.1944268E+03  0.7818608E-02  0.1155093E+00
         21   -1    0    0  503  502  0.00000000000E+00  0.00000000000E+00  0.14918342698E+03  0.14918342698E+03  0.00000000000E+00 0. -1.
         21   -1    0    0  501  503 -0.00000000000E+00 -0.00000000000E+00 -0.29053584070E+03  0.29053584070E+03  0.00000000000E+00 0. -1.
          6    2    1    2  501    0 -0.31522646414E+02 -0.80971902060E+02 -0.15314048282E+03  0.24749506393E+03  0.17393008087E+03 0.  0.
         24    2    3    3    0    0 -0.18986409212E+02  0.18775900728E+02 -0.10830764527E+03  0.13731859309E+03  0.80080158597E+02 0.  0.
         -6    2    1    2    0  502  0.31522646414E+02  0.80971902060E+02  0.11788069101E+02  0.19222420375E+03  0.17105864426E+03 0.  0.
        -24    2    5    5    0    0 -0.80043971640E+01 -0.19480066950E+02  0.19102883555E+02  0.83925626833E+02  0.78962315676E+02 0.  0.
          5    1    3    3  501    0 -0.12536237202E+02 -0.99747802788E+02 -0.44832837556E+02  0.11017647084E+03  0.47000000000E+01 0. -1.
        -11    1    4    4    0    0 -0.33819239480E+02  0.12125819812E+02 -0.94718576104E+01  0.37154980174E+02  0.00000000000E+00 0.  1.
         12    1    4    4    0    0  0.14832830268E+02  0.66500809159E+01 -0.98835787658E+02  0.10016361291E+03  0.00000000000E+00 0. -1.
         -5    1    5    5    0  502  0.39527043578E+02  0.10045196901E+03 -0.73148144540E+01  0.10829857692E+03  0.47000000000E+01 0.  1.
         13    1    6    6    0    0  0.13223103564E+01  0.28075814448E+02 -0.68815279814E+01  0.28937091923E+02  0.00000000000E+00 0. -1.
        -14    1    6    6    0    0 -0.93267075204E+01 -0.47555881398E+02  0.25984411536E+02  0.54988534910E+02  0.00000000000E+00 0.  1.
</event>
<event>
12    1  0.8196217E-002  0.1872563E+03  0.7818608E-02  0.1161666E+00
         21   -1    0    0  503  502  0.00000000000E+00  0.00000000000E+00  0.97419936978E+02  0.97419936978E+02  0.00000000000E+00 0.  1.
         21   -1    0    0  501  503 -0.00000000000E+00 -0.00000000000E+00 -0.10745555879E+04  0.10745555879E+04  0.00000000000E+00 0.  1.
          6    2    1    2  501    0 -0.54409533466E+02  0.50138355953E+02 -0.96970045146E+03  0.98761525897E+03  0.17201942370E+03 0.  0.
         24    2    3    3    0    0 -0.29527052285E+02  0.34209072062E+02 -0.93619685610E+03  0.94269910535E+03  0.10087091956E+03 0.  0.
         -6    2    1    2    0  502  0.54409533466E+02 -0.50138355953E+02 -0.74351994467E+01  0.18436026589E+03  0.16869846881E+03 0.  0.
        -24    2    5    5    0    0 -0.24182017645E+02 -0.10468601918E+02 -0.36423668253E+02  0.91555402787E+02  0.79758050171E+02 0.  0.
          5    1    3    3  501    0 -0.24882481181E+02  0.15929283890E+02 -0.33503595353E+02  0.44916153626E+02  0.47000000000E+01 0. -1.
        -11    1    4    4    0    0 -0.57320220354E+02  0.51086483652E+02 -0.71779740480E+03  0.72189234018E+03  0.00000000000E+00 0.  1.
         12    1    4    4    0    0  0.27793168068E+02 -0.16877411589E+02 -0.21839945130E+03  0.22080676516E+03  0.00000000000E+00 0. -1.
         -5    1    5    5    0  502  0.78591551112E+02 -0.39669754034E+02  0.28988468806E+02  0.92804863100E+02  0.47000000000E+01 0.  1.
         13    1    6    6    0    0 -0.17332970727E+02  0.27892083222E+02 -0.40765248164E+02  0.52346973538E+02  0.00000000000E+00 0. -1.
        -14    1    6    6    0    0 -0.68490469185E+01 -0.38360685140E+02  0.43415799111E+01  0.39208429250E+02  0.00000000000E+00 0.  1.
</event>
<event>
12    1  0.8196217E-002  0.1894123E+03  0.7818608E-02  0.1159196E+00
         21   -1    0    0  501  502  0.00000000000E+00  0.00000000000E+00  0.24517085746E+03  0.24517085746E+03  0.00000000000E+00 0. -1.
         21   -1    0    0  502  503 -0.00000000000E+00 -0.00000000000E+00 -0.20850164581E+03  0.20850164581E+03  0.00000000000E+00 0. -1.
         -6    2    1    2    0  503 -0.42137856708E+02  0.64411966059E+02 -0.10624616233E+03  0.21639245738E+03  0.17208413134E+03 0.  0.
        -24    2    3    3    0    0  0.40539988230E+02  0.49378106579E+02 -0.74960884011E+02  0.12660102341E+03  0.79542422277E+02 0.  0.
          6    2    1    2  501    0  0.42137856708E+02 -0.64411966059E+02  0.14291537397E+03  0.23728004590E+03  0.17306795118E+03 0.  0.
         24    2    5    5    0    0  0.81796397621E+01  0.32328768049E+02  0.60535601386E+02  0.10567287639E+03  0.79938363881E+02 0.  0.
          5    1    5    5  501    0  0.33958216946E+02 -0.96740734108E+02  0.82379772586E+02  0.13160716951E+03  0.47000000000E+01 0. -1.
        -13    1    6    6    0    0  0.26314252958E+02 -0.16739676675E+02  0.36770580552E+02  0.48215477578E+02  0.00000000000E+00 0.  1.
         14    1    6    6    0    0 -0.18134613196E+02  0.49068444724E+02  0.23765020834E+02  0.57457398816E+02  0.00000000000E+00 0. -1.
         -5    1    3    3    0  503 -0.82677844938E+02  0.15033859480E+02 -0.31285278315E+02  0.89791433966E+02  0.47000000000E+01 0.  1.
         13    1    4    4    0    0  0.25824348254E+02 -0.17800005358E+02 -0.12717037994E+02  0.33844648156E+02  0.00000000000E+00 0. -1.
        -14    1    4    4    0    0  0.14715639976E+02  0.67178111937E+02 -0.62243846017E+02  0.92756375254E+02  0.00000000000E+00 0.  1.
</event>
<event>
12    1  0.8196217E-002  0.2122880E+03  0.7818608E-02  0.1139851E+00
         21   -1    0    0  501  502  0.00000000000E+00  0.00000000000E+00  0.16145013901E+04  0.16145013901E+04  0.00000000000E+00 0.  1.
         21   -1    0    0  502  503 -0.00000000000E+00 -0.00000000000E+00 -0.39406568044E+02  0.39406568044E+02  0.00000000000E+00 0.  1.
         -6    2    1    2    0  503 -0.99371416276E+02 -0.74405318943E+02  0.33928250968E+03  0.39999478384E+03  0.17167520456E+03 0.  0.
        -24    2    3    3    0    0 -0.12174733990E+03 -0.61755730933E+02  0.34161735513E+03  0.37376054023E+03  0.66017717544E+02 0.  0.
          6    2    1    2  501    0  0.99371416276E+02  0.74405318943E+02  0.12358123124E+04  0.12539131743E+04  0.17220728041E+03 0.  0.
         24    2    5    5    0    0  0.74624420059E+02  0.10214015787E+03  0.65187895682E+03  0.66877909664E+03  0.79485154876E+02 0.  0.
          5    1    5    5  501    0  0.24746996218E+02 -0.27734838929E+02  0.58393335559E+03  0.58513407769E+03  0.47000000000E+01 0. -1.
        -11    1    6    6    0    0  0.56818471233E+02  0.91402130499E+02  0.62782932502E+03  0.63698693039E+03  0.00000000000E+00 0.  1.
         12    1    6    6    0    0  0.17805948826E+02  0.10738027372E+02  0.24049631798E+02  0.31792166252E+02  0.00000000000E+00 0. -1.
         -5    1    3    3    0  503  0.22375923622E+02 -0.12649588010E+02 -0.23348454446E+01  0.26234243614E+02  0.47000000000E+01 0.  1.
         13    1    4    4    0    0 -0.28159092850E+02  0.13400628922E+01  0.13896301508E+03  0.14179368758E+03  0.00000000000E+00 0. -1.
        -14    1    4    4    0    0 -0.93588247049E+02 -0.63095793825E+02  0.20265434005E+03  0.23196685264E+03  0.00000000000E+00 0.  1.
</event>
<event>
12    1  0.8196217E-002  0.1784670E+03  0.7818608E-02  0.1169362E+00
         21   -1    0    0  503  502  0.00000000000E+00  0.00000000000E+00  0.26709269421E+02  0.26709269421E+02  0.00000000000E+00 0.  1.
         21   -1    0    0  501  503 -0.00000000000E+00 -0.00000000000E+00 -0.12580542578E+04  0.12580542578E+04  0.00000000000E+00 0.  1.
          6    2    1    2  501    0  0.51417913712E+01  0.46739184476E+02 -0.76391078891E+03  0.78441843662E+03  0.17187670267E+03 0.  0.
         24    2    3    3    0    0  0.23997477841E+02  0.43253028601E+02 -0.75784018080E+03  0.76376335304E+03  0.81030959434E+02 0.  0.
         -6    2    1    2    0  502 -0.51417913712E+01 -0.46739184476E+02 -0.46743419951E+03  0.50034509064E+03  0.17216123103E+03 0.  0.
        -24    2    5    5    0    0  0.62959556165E+01 -0.96557694694E+02 -0.30793345239E+03  0.33278828132E+03  0.81006182610E+02 0.  0.
          5    1    3    3  501    0 -0.18855686470E+02  0.34861558744E+01 -0.60706081080E+01  0.20655083583E+02  0.47000000000E+01 0. -1.
        -13    1    4    4    0    0 -0.28887568817E+02  0.25777972318E+02 -0.27220639835E+03  0.27494602887E+03  0.00000000000E+00 0.  1.
         14    1    4    4    0    0  0.52885046658E+02  0.17475056283E+02 -0.48563378245E+03  0.48881732417E+03  0.00000000000E+00 0. -1.
         -5    1    5    5    0  502 -0.11437746988E+02  0.49818510218E+02 -0.15950074712E+03  0.16755680932E+03  0.47000000000E+01 0.  1.
         13    1    6    6    0    0 -0.25146818400E+02 -0.12164571918E+02 -0.13444949642E+03  0.13732081551E+03  0.00000000000E+00 0. -1.
        -14    1    6    6    0    0  0.31442774017E+02 -0.84393122776E+02 -0.17348395597E+03  0.19546746581E+03  0.00000000000E+00 0.  1.
</event>
<event>
12    1  0.8196217E-002  0.2178081E+03  0.7818608E-02  0.1135941E+00
         21   -1    0    0  503  502  0.00000000000E+00  0.00000000000E+00  0.19729852687E+03  0.19729852687E+03  0.00000000000E+00 0. -1.
         21   -1    0    0  501  503 -0.00000000000E+00 -0.00000000000E+00 -0.26310166602E+03  0.26310166602E+03  0.00000000000E+00 0. -1.
          6    2    1    2  501    0 -0.12456954676E+03  0.43612867217E+02 -0.10378387637E+03  0.23930543179E+03  0.17051786570E+03 0.  0.
         24    2    3    3    0    0 -0.11712065390E+03  0.13330166908E+02 -0.13458868096E+03  0.19521967527E+03  0.78113172055E+02 0.  0.
         -6    2    1    2    0  502  0.12456954676E+03 -0.43612867217E+02  0.37980737217E+02  0.22109476110E+03  0.17326483434E+03 0.  0.
        -24    2    5    5    0    0  0.22883811955E+02 -0.43101168003E+01 -0.35547284351E+02  0.89515299143E+02  0.78785362851E+02 0.  0.
          5    1    3    3  501    0 -0.74488928605E+01  0.30282700309E+02  0.30804804587E+02  0.44085756526E+02  0.47000000000E+01 0. -1.
        -13    1    4    4    0    0 -0.51198583264E+02 -0.22791484640E+02 -0.94908430346E+02  0.11021958470E+03  0.00000000000E+00 0.  1.
         14    1    4    4    0    0 -0.65922070640E+02  0.36121651548E+02 -0.39680250612E+02  0.85000090568E+02  0.00000000000E+00 0. -1.
         -5    1    5    5    0  502  0.10168573481E+03 -0.39302750417E+02  0.73528021568E+02  0.13157946196E+03  0.47000000000E+01 0.  1.
         13    1    6    6    0    0  0.47568327163E+02  0.13910590233E+02 -0.31108701712E+02  0.58514968956E+02  0.00000000000E+00 0. -1.
        -14    1    6    6    0    0 -0.24684515208E+02 -0.18220707033E+02 -0.44385826386E+01  0.31000330187E+02  0.00000000000E+00 0.  1.
</event>
<event>
12    1  0.8196217E-002  0.2228565E+03  0.7818608E-02  0.1132349E+00
         21   -1    0    0  501  502  0.00000000000E+00  0.00000000000E+00  0.10898755150E+03  0.10898755150E+03  0.00000000000E+00 0.  1.
         21   -1    0    0  502  503 -0.00000000000E+00 -0.00000000000E+00 -0.53480489806E+03  0.53480489806E+03  0.00000000000E+00 0.  1.
         -6    2    1    2    0  503  0.12601204320E+03  0.55524236329E+02 -0.34033640143E+03  0.40510433412E+03  0.17122698247E+03 0.  0.
        -24    2    3    3    0    0  0.10090497727E+03  0.85223404723E+02 -0.16631326984E+03  0.22672679716E+03  0.79373129418E+02 0.  0.
          6    2    1    2  501    0 -0.12601204320E+03 -0.55524236329E+02 -0.85480945135E+02  0.23868811545E+03  0.17522285417E+03 0.  0.
         24    2    5    5    0    0 -0.45771427481E+02  0.21569745483E+02  0.49889578301E+01  0.95199677635E+02  0.80484852164E+02 0.  0.
          5    1    5    5  501    0 -0.80240615719E+02 -0.77093981812E+02 -0.90469902965E+02  0.14348843781E+03  0.47000000000E+01 0. -1.
        -13    1    6    6    0    0  0.18058159849E+02 -0.32056442618E+01  0.17782046572E+02  0.25545537233E+02  0.00000000000E+00 0.  1.
         14    1    6    6    0    0 -0.63829587329E+02  0.24775389744E+02 -0.12793088742E+02  0.69654140402E+02  0.00000000000E+00 0. -1.
         -5    1    3    3    0  503  0.25107065934E+02 -0.29699168394E+02 -0.17402313159E+03  0.17837753696E+03  0.47000000000E+01 0.  1.
         11    1    4    4    0    0 -0.11737270731E+02  0.20837295055E+02 -0.20033423151E+02  0.31197667101E+02  0.00000000000E+00 0. -1.
        -12    1    4    4    0    0  0.11264224800E+03  0.64386109668E+02 -0.14627984669E+03  0.19552913006E+03  0.00000000000E+00 0.  1.
</event>
<event>
12    1  0.8196217E-002  0.1821480E+03  0.7818608E-02  0.1166162E+00
         21   -1    0    0  501  502  0.00000000000E+00  0.00000000000E+00  0.20138770818E+03  0.20138770818E+03  0.00000000000E+00 0.  1.
         21   -1    0    0  502  503 -0.00000000000E+00 -0.00000000000E+00 -0.17160009430E+03  0.17160009430E+03  0.00000000000E+00 0.  1.
         -6    2    1    2    0  503 -0.57019422478E+02 -0.91491584170E+01 -0.26400701640E+02  0.18405135714E+03  0.17275121817E+03 0.  0.
        -24    2    3    3    0    0 -0.68466430396E+02  0.36582395034E+02 -0.58026603020E+02  0.12708911869E+03  0.82210909937E+02 0.  0.
          6    2    1    2  501    0  0.57019422478E+02  0.91491584170E+01  0.56188315516E+02  0.18893644534E+03  0.17089450529E+03 0.  0.
         24    2    5    5    0    0 -0.24601814567E+02 -0.56298513430E+01  0.66446206822E+02  0.10522408186E+03  0.77589074587E+02 0.  0.
          5    1    5    5  501    0  0.81621237044E+02  0.14779009760E+02 -0.10257891306E+02  0.83712363485E+02  0.47000000000E+01 0. -1.
        -13    1    6    6    0    0 -0.42364363331E+02  0.16914463256E+02  0.18254513394E+02  0.49133141635E+02  0.00000000000E+00 0.  1.
         14    1    6    6    0    0  0.17762548765E+02 -0.22544314599E+02  0.48191693428E+02  0.56090940220E+02  0.00000000000E+00 0. -1.
         -5    1    3    3    0  503  0.11447007919E+02 -0.45731553451E+02  0.31625901380E+02  0.56962238452E+02  0.47000000000E+01 0.  1.
         13    1    4    4    0    0 -0.14370209132E+02  0.28884865682E+02  0.15248425483E+02  0.35684070055E+02  0.00000000000E+00 0. -1.
        -14    1    4    4    0    0 -0.54096221264E+02  0.76975293523E+01 -0.73275028503E+02  0.91405048631E+02  0.00000000000E+00 0.  1.
</event>
<event>
12    1  0.8196217E-002  0.2347925E+03  0.7818608E-02  0.1123472E+00
         21   -1    0    0  501  502  0.00000000000E+00  0.00000000000E+00  0.34011064234E+03  0.34011064234E+03  0.00000000000E+00 0. -1.
         21   -1    0    0  502  503 -0.00000000000E+00 -0.00000000000E+00 -0.26416861220E+03  0.26416861220E+03  0.00000000000E+00 0.  1.
         -6    2    1    2    0  503  0.15831288767E+03  0.15794185085E+02 -0.15039510749E+03  0.27883007928E+03  0.17267048985E+03 0.  0.
        -24    2    3    3    0    0  0.27511692360E+02 -0.19128926545E+01 -0.14264861061E+02  0.89156603823E+02  0.83575483064E+02 0.  0.
          6    2    1    2  501    0 -0.15831288767E+03 -0.15794185085E+02  0.22633713763E+03  0.32544917526E+03  0.17139497986E+03 0.  0.
         24    2    5    5    0    0 -0.13341222595E+03 -0.48991569604E+02  0.23246727437E+03  0.28323806452E+03  0.77354842229E+02 0.  0.
          5    1    5    5  501    0 -0.24900661727E+02  0.33197384519E+02 -0.61301367388E+01  0.42211110739E+02  0.47000000000E+01 0. -1.
        -11    1    6    6    0    0 -0.75603577987E+02 -0.37435722850E+02  0.67470704597E+02  0.10802606319E+03  0.00000000000E+00 0.  1.
         12    1    6    6    0    0 -0.57808647960E+02 -0.11555846754E+02  0.16499656978E+03  0.17521200133E+03  0.00000000000E+00 0. -1.
         -5    1    3    3    0  503  0.13080119531E+03  0.17707077739E+02 -0.13613024643E+03  0.18967347546E+03  0.47000000000E+01 0.  1.
         13    1    4    4    0    0  0.37837029254E+02 -0.18574308041E+02  0.22287694286E+02  0.47680048433E+02  0.00000000000E+00 0. -1.
        -14    1    4    4    0    0 -0.10325336893E+02  0.16661415386E+02 -0.36552555347E+02  0.41476555390E+02  0.00000000000E+00 0.  1.
</event>
<event>
12    1  0.8196217E-002  0.1844118E+03  0.7818608E-02  0.1163871E+00
         21   -1    0    0  503  502  0.00000000000E+00  0.00000000000E+00  0.61859347022E+03  0.61859347022E+03  0.00000000000E+00 0.  1.
         21   -1    0    0  501  503 -0.00000000000E+00 -0.00000000000E+00 -0.74898419341E+02  0.74898419341E+02  0.00000000000E+00 0.  1.
          6    2    1    2  501    0 -0.21283906050E+02  0.62158131363E+02  0.90859612089E+02  0.20454642885E+03  0.17107639958E+03 0.  0.
         24    2    3    3    0    0 -0.49775599299E+02  0.94734190386E+02  0.90373629290E+02  0.16101135810E+03  0.79404580806E+02 0.  0.
         -6    2    1    2    0  502  0.21283906050E+02 -0.62158131363E+02  0.45283543879E+03  0.48894546072E+03  0.17231102976E+03 0.  0.
        -24    2    5    5    0    0 -0.26744245334E+01 -0.68017423532E+02  0.13956056527E+03  0.17466601613E+03  0.79984644536E+02 0.  0.
          5    1    3    3  501    0  0.28491693249E+02 -0.32576059023E+02  0.48598279959E+00  0.43535070747E+02  0.47000000000E+01 0. -1.
        -13    1    4    4    0    0 -0.46442642533E+02  0.45315917215E+02  0.86669862873E+01  0.65464250167E+02  0.00000000000E+00 0.  1.
         14    1    4    4    0    0 -0.33329567655E+01  0.49418273171E+02  0.81706643002E+02  0.95547107935E+02  0.00000000000E+00 0. -1.
         -5    1    5    5    0  502  0.23958330584E+02  0.58592921691E+01  0.31327487352E+03  0.31427944458E+03  0.47000000000E+01 0.  1.
         13    1    6    6    0    0 -0.14393800451E+02 -0.32250563650E+02  0.13151944558E+03  0.13617872416E+03  0.00000000000E+00 0. -1.
        -14    1    6    6    0    0  0.11719375917E+02 -0.35766859882E+02  0.80411196935E+01  0.38487291976E+02  0.00000000000E+00 0.  1.
</event>
<event>
12    1  0.8196217E-002  0.2055727E+03  0.7818608E-02  0.1145202E+00
         21   -1    0    0  503  502  0.00000000000E+00  0.00000000000E+00  0.19534560572E+03  0.19534560572E+03  0.00000000000E+00 0. -1.
         21   -1    0    0  501  503 -0.00000000000E+00 -0.00000000000E+00 -0.30576710063E+03  0.30576710063E+03  0.00000000000E+00 0. -1.
          6    2    1    2  501    0  0.99783685075E+02  0.51711147425E+02 -0.19099652339E+03  0.28031307287E+03  0.17165348904E+03 0.  0.
         24    2    3    3    0    0  0.11026530874E+03  0.72226451189E+01 -0.74298537064E+02  0.15489536565E+03  0.79130883829E+02 0.  0.
         -6    2    1    2    0  502 -0.99783685075E+02 -0.51711147425E+02  0.80575028475E+02  0.22079963349E+03  0.17213168320E+03 0.  0.
        -24    2    5    5    0    0 -0.62446140406E+02 -0.23651819304E+02  0.12079441963E+03  0.15898452561E+03  0.78904109917E+02 0.  0.
          5    1    3    3  501    0 -0.10481623667E+02  0.44488502306E+02 -0.11669798632E+03  0.12541770722E+03  0.47000000000E+01 0. -1.
        -11    1    4    4    0    0  0.11338722243E+03  0.69552081400E+01 -0.86190985172E+02  0.14259706538E+03  0.00000000000E+00 0.  1.
         12    1    4    4    0    0 -0.31219136836E+01  0.26743697893E+00  0.11892448107E+02  0.12298300272E+02  0.00000000000E+00 0. -1.
         -5    1    5    5    0  502 -0.37337544669E+02 -0.28059328121E+02 -0.40219391160E+02  0.61815107877E+02  0.47000000000E+01 0.  1.
         11    1    6    6    0    0 -0.57686255654E+01 -0.34503903824E+02  0.14166174800E+02  0.37742243289E+02  0.00000000000E+00 0. -1.
        -12    1    6    6    0    0 -0.56677514841E+02  0.10852084520E+02  0.10662824484E+03  0.12124228233E+03  0.00000000000E+00 0.  1.
</event>
<event>
12    1  0.8196217E-002  0.2802349E+03  0.7818608E-02  0.1095616E+00
         21   -1    0    0  501  502  0.00000000000E+00  0.00000000000E+00  0.12016203859E+03  0.12016203859E+03  0.00000000000E+00 0.  1.
         21   -1    0    0  502  503 -0.00000000000E+00 -0.00000000000E+00 -0.66403637072E+03  0.66403637072E+03  0.00000000000E+00 0. -1.
         -6    2    1    2    0  503  0.12900705171E+03  0.17911588843E+03 -0.22069233191E+03  0.35670253195E+03  0.17264492478E+03 0.  0.
        -24    2    3    3    0    0  0.15753775614E+03  0.14445160106E+03 -0.15090867648E+03  0.27359138661E+03  0.79965045687E+02 0.  0.
          6    2    1    2  501    0 -0.12900705171E+03 -0.17911588843E+03 -0.32318200021E+03  0.42749587735E+03  0.17199069455E+03 0.  0.
         24    2    5    5    0    0 -0.20348501944E+01 -0.46681420135E+02 -0.76730005766E+02  0.12021505479E+03  0.79880348092E+02 0.  0.
          5    1    5    5  501    0 -0.12697220152E+03 -0.13243446830E+03 -0.24645199445E+03  0.30728082257E+03  0.47000000000E+01 0. -1.
        -13    1    6    6    0    0 -0.18797785976E+01  0.22214572755E+02 -0.28174035651E+02  0.35927664760E+02  0.00000000000E+00 0.  1.
         14    1    6    6    0    0 -0.15507159679E+00 -0.68895992890E+02 -0.48555970116E+02  0.84287390026E+02  0.00000000000E+00 0. -1.
         -5    1    3    3    0  503 -0.28530704427E+02  0.34664287378E+02 -0.69783655433E+02  0.83111145343E+02  0.47000000000E+01 0.  1.
         11    1    4    4    0    0  0.35283626155E+02  0.14836477994E+02 -0.65824332707E+02  0.76143930357E+02  0.00000000000E+00 0. -1.
        -12    1    4    4    0    0  0.12225412998E+03  0.12961512306E+03 -0.85084343775E+02  0.19744745625E+03  0.00000000000E+00 0.  1.
</event>
<event>
12    1  0.8196217E-002  0.2045919E+03  0.7818608E-02  0.1146324E+00
         21   -1    0    0  503  502  0.00000000000E+00  0.00000000000E+00  0.29224898916E+03  0.29224898916E+03  0.00000000000E+00 0.  1.
         21   -1    0    0  501  503 -0.00000000000E+00 -0.00000000000E+00 -0.26691668501E+03  0.26691668501E+03  0.00000000000E+00 0.  1.
          6    2    1    2  501    0 -0.10513652433E+03 -0.38897416313E+02 -0.17867082068E+03  0.27162675686E+03  0.17114653118E+03 0.  0.
         24    2    3    3    0    0 -0.25545089430E+01 -0.13358101534E+02 -0.13452889699E+03  0.15697107271E+03  0.79730352753E+02 0.  0.
         -6    2    1    2    0  502  0.10513652433E+03  0.38897416313E+02  0.20400312483E+03  0.28753891731E+03  0.16880360270E+03 0.  0.
        -24    2    5    5    0    0 -0.12665863080E+02  0.55215235078E+01  0.94241801479E+02  0.12303666564E+03  0.77881914700E+02 0.  0.
          5    1    3    3  501    0 -0.10258201539E+03 -0.25539314779E+02 -0.44141923689E+02  0.11465568415E+03  0.47000000000E+01 0. -1.
        -13    1    4    4    0    0 -0.16090708175E+02  0.69736265484E+01  0.25603853015E+01  0.17722808177E+02  0.00000000000E+00 0.  1.
         14    1    4    4    0    0  0.13536199232E+02 -0.20331728083E+02 -0.13708928229E+03  0.13924826453E+03  0.00000000000E+00 0. -1.
         -5    1    5    5    0  502  0.11780238741E+03  0.33375892805E+02  0.10976132335E+03  0.16450225167E+03  0.47000000000E+01 0.  1.
         11    1    6    6    0    0 -0.18923172346E+02  0.53704275864E+01 -0.75374302890E+01  0.21065156052E+02  0.00000000000E+00 0. -1.
        -12    1    6    6    0    0  0.62573092662E+01  0.15109592134E+00  0.10177923177E+03  0.10197150959E+03  0.00000000000E+00 0.  1.
</event>
<event>
12    1  0.8196217E-002  0.1858442E+03  0.7818608E-02  0.1162462E+00
         21   -1    0    0  501  502  0.00000000000E+00  0.00000000000E+00  0.16476586095E+03  0.16476586095E+03  0.00000000000E+00 0.  1.
         21   -1    0    0  502  503 -0.00000000000E+00 -0.00000000000E+00 -0.47904180631E+03  0.47904180631E+03  0.00000000000E+00 0.  1.
         -6    2    1    2    0  503  0.65774286247E+02  0.23529799061E+02 -0.39882029343E+03  0.43963664869E+03  0.17129754300E+03 0.  0.
        -24    2    3    3    0    0 -0.22746754882E+02  0.38032716747E+02 -0.24762968124E+03  0.26377590674E+03  0.79330747777E+02 0.  0.
          6    2    1    2  501    0 -0.65774286247E+02 -0.23529799061E+02  0.84544348071E+02  0.20417101857E+03  0.17221541702E+03 0.  0.
         24    2    5    5    0    0 -0.14862619785E+02  0.49907784775E+02  0.58030669602E+02  0.11084287894E+03  0.78783886350E+02 0.  0.
          5    1    5    5  501    0 -0.50911666462E+02 -0.73437583836E+02  0.26513678469E+02  0.93328139634E+02  0.47000000000E+01 0. -1.
        -13    1    6    6    0    0 -0.38652762279E+02  0.91612372282E+01  0.52858126803E+01  0.40073733480E+02  0.00000000000E+00 0.  1.
         14    1    6    6    0    0  0.23790142494E+02  0.40746547547E+02  0.52744856922E+02  0.70769145456E+02  0.00000000000E+00 0. -1.
         -5    1    3    3    0  503  0.88521041129E+02 -0.14502917686E+02 -0.15119061219E+03  0.17586074195E+03  0.47000000000E+01 0.  1.
         13    1    4    4    0    0  0.25497778673E+02  0.24618559777E+02 -0.14906397837E+03  0.15321971104E+03  0.00000000000E+00 0. -1.
        -14    1    4    4    0    0 -0.48244533556E+02  0.13414156970E+02 -0.98565702866E+02  0.11055619570E+03  0.00000000000E+00 0.  1.
</event>
<event>
12    1  0.8196217E-002  0.2026803E+03  0.7818608E-02  0.1147842E+00
         21   -1    0    0  501  502  0.00000000000E+00  0.00000000000E+00  0.41409746081E+02  0.41409746081E+02  0.00000000000E+00 0. -1.
         21   -1    0    0  502  503 -0.00000000000E+00 -0.00000000000E+00 -0.13911556689E+04  0.13911556689E+04  0.00000000000E+00 0. -1.
         -6    2    1    2    0  503 -0.10310439231E+03  0.10534335874E+02 -0.10604477027E+04  0.10793335421E+04  0.17225004163E+03 0.  0.
        -24    2    3    3    0    0 -0.11064150967E+03  0.13702893082E+02 -0.49892146728E+03  0.51772811919E+03  0.81795244047E+02 0.  0.
          6    2    1    2  501    0  0.10310439231E+03 -0.10534335874E+02 -0.28929822009E+03  0.35323187292E+03  0.17417751851E+03 0.  0.
         24    2    5    5    0    0  0.92737926952E+02 -0.30965067176E+02 -0.96348467592E+02  0.15886990294E+03  0.79984125758E+02 0.  0.
          5    1    5    5  501    0  0.10366465362E+02  0.20430731302E+02 -0.19294975249E+03  0.19436196998E+03  0.47000000000E+01 0. -1.
        -11    1    6    6    0    0  0.28694894040E+02 -0.70963521756E+01 -0.84478192490E+02  0.89500391980E+02  0.00000000000E+00 0.  1.
         12    1    6    6    0    0  0.64043032911E+02 -0.23868715000E+02 -0.11870275102E+02  0.69369510963E+02  0.00000000000E+00 0. -1.
         -5    1    3    3    0  503  0.75371173609E+01 -0.31685572081E+01 -0.56152623545E+03  0.56160542286E+03  0.47000000000E+01 0.  1.
         13    1    4    4    0    0 -0.63952507128E+02 -0.32732045679E+02 -0.23650004931E+03  0.24717116197E+03  0.00000000000E+00 0. -1.
        -14    1    4    4    0    0 -0.46689002546E+02  0.46434938761E+02 -0.26242141797E+03  0.27055695723E+03  0.00000000000E+00 0.  1.
</event>
<event>
12    1  0.8196217E-002  0.2074603E+03  0.7818608E-02  0.1148012E+00
         21   -1    0    0  503  502  0.00000000000E+00  0.00000000000E+00  0.46073644781E+03  0.46073644781E+03  0.00000000000E+00 0. -1.
         21   -1    0    0  501  503 -0.00000000000E+00 -0.00000000000E+00 -0.13537982582E+03  0.13537982582E+03  0.00000000000E+00 0. -1.
          6    2    1    2  501    0  0.86825059706E+01 -0.71678100675E+02 -0.14913273738E+02  0.20799562130E+03  0.19449071114E+03 0.  0.
         24    2    3    3    0    0 -0.37706654314E+02 -0.11161510064E+03 -0.11842059654E+02  0.14652660053E+03  0.86313891203E+02 0.  0.
         -6    2    1    2    0  502 -0.86825059706E+01  0.71678100675E+02  0.34026989573E+03  0.38812065233E+03  0.17216533565E+03 0.  0.
        -24    2    5    5    0    0 -0.49712606913E+02  0.99730391158E+02  0.25986542374E+03  0.29347727274E+03  0.78621733337E+02 0.  0.
          5    1    3    3  501    0  0.46389160284E+02  0.39936999969E+02 -0.30712140833E+01  0.61469020769E+02  0.47000000000E+01 0. -1.
        -13    1    4    4    0    0 -0.24820134269E+02  0.69567711762E+01 -0.87336283508E+01  0.27216024590E+02  0.00000000000E+00 0.  1.
         14    1    4    4    0    0 -0.12886520045E+02 -0.11857187182E+03 -0.31084313037E+01  0.11931057594E+03  0.00000000000E+00 0. -1.
         -5    1    5    5    0  502  0.41030100942E+02 -0.28052290483E+02  0.80404471984E+02  0.94643379587E+02  0.47000000000E+01 0.  1.
         11    1    6    6    0    0 -0.41670463875E+02  0.99295398257E+02  0.26348998980E+03  0.28464535548E+03  0.00000000000E+00 0. -1.
        -12    1    6    6    0    0 -0.80421430381E+01  0.43499290028E+00 -0.36245660514E+01  0.88319172624E+01  0.00000000000E+00 0.  1.
</event>
<event>
12    1  0.8196217E-002  0.1761719E+03  0.7818608E-02  0.1172028E+00
         21   -1    0    0  501  502  0.00000000000E+00  0.00000000000E+00  0.24684022853E+03  0.24684022853E+03  0.00000000000E+00 0.  1.
         21   -1    0    0  502  503 -0.00000000000E+00 -0.00000000000E+00 -0.31501777197E+03  0.31501777197E+03  0.00000000000E+00 0. -1.
         -6    2    1    2    0  503  0.38019651254E+02 -0.48262626612E+01 -0.25254348202E+03  0.30685340560E+03  0.17003533610E+03 0.  0.
        -24    2    3    3    0    0  0.28211848765E+02 -0.39944117950E+02 -0.25352509566E+03  0.27007691426E+03  0.79215683549E+02 0.  0.
          6    2    1    2  501    0 -0.38019651254E+02  0.48262626612E+01  0.18436593857E+03  0.25500459490E+03  0.17195277672E+03 0.  0.
         24    2    5    5    0    0 -0.79770098418E+02  0.15659502435E+02  0.17793729747E+03  0.21114258002E+03  0.79441919981E+02 0.  0.
          5    1    5    5  501    0  0.41750447164E+02 -0.10833239774E+02  0.64286411022E+01  0.43862014874E+02  0.47000000000E+01 0. -1.
        -11    1    6    6    0    0 -0.73929080646E+02 -0.20751916225E+02  0.12054617184E+03  0.14292491224E+03  0.00000000000E+00 0.  1.
         12    1    6    6    0    0 -0.58410177718E+01  0.36411418660E+02  0.57391125627E+02  0.68217667787E+02  0.00000000000E+00 0. -1.
         -5    1    3    3    0  503  0.98078024897E+01  0.35117855289E+02  0.98161363573E+00  0.36776491338E+02  0.47000000000E+01 0.  1.
         11    1    4    4    0    0 -0.28363377362E+01  0.16571095706E+02 -0.12659984692E+03  0.12771126522E+03  0.00000000000E+00 0. -1.
        -12    1    4    4    0    0  0.31048186501E+02 -0.56515213656E+02 -0.12692524874E+03  0.14236564904E+03  0.00000000000E+00 0.  1.
</event>
<event>
12    1  0.8196217E-002  0.1892059E+03  0.7818608E-02  0.1159252E+00
         21   -1    0    0  503  502  0.00000000000E+00  0.00000000000E+00  0.10101222009E+04  0.10101222009E+04  0.00000000000E+00 0. -1.
         21   -1    0    0  501  503 -0.00000000000E+00 -0.00000000000E+00 -0.39680287072E+02  0.39680287072E+02  0.00000000000E+00 0. -1.
          6    2    1    2  501    0  0.85276179611E+01 -0.78723158837E+02  0.31206356096E+03  0.36477625320E+03  0.17148758793E+03 0.  0.
         24    2    3    3    0    0 -0.37758582109E+02 -0.49699656687E+02  0.91873347596E+02  0.13786085915E+03  0.81664791008E+02 0.  0.
         -6    2    1    2    0  502 -0.85276179611E+01  0.78723158837E+02  0.65837835285E+03  0.68502623475E+03  0.17183954957E+03 0.  0.
        -24    2    5    5    0    0 -0.43749720915E+02  0.17425229359E+02  0.53295765736E+03  0.54097598813E+03  0.79959230226E+02 0.  0.
          5    1    3    3  501    0  0.46286200071E+02 -0.29023502150E+02  0.22019021337E+03  0.22691539405E+03  0.47000000000E+01 0. -1.
        -13    1    4    4    0    0 -0.43325952143E+02  0.70461876144E+01  0.53167835892E+02  0.68946397022E+02  0.00000000000E+00 0.  1.
         14    1    4    4    0    0  0.55673700332E+01 -0.56745844301E+02  0.38705511705E+02  0.68914462132E+02  0.00000000000E+00 0. -1.
         -5    1    5    5    0  502  0.35222102954E+02  0.61297929478E+02  0.12542069549E+03  0.14405024662E+03  0.47000000000E+01 0.  1.
         13    1    6    6    0    0 -0.49774049568E+02  0.38528134465E+02  0.27616223026E+03  0.28324450670E+03  0.00000000000E+00 0. -1.
        -14    1    6    6    0    0  0.60243286531E+01 -0.21102905106E+02  0.25679542710E+03  0.25773148143E+03  0.00000000000E+00 0.  1.
</event>
<event>
12    1  0.8196217E-002  0.2628642E+03  0.7818608E-02  0.1105462E+00
         21   -1    0    0  501  502  0.00000000000E+00  0.00000000000E+00  0.90739788764E+03  0.90739788764E+03  0.00000000000E+00 0.  1.
         21   -1    0    0  502  503 -0.00000000000E+00 -0.00000000000E+00 -0.93468514611E+02  0.93468514611E+02  0.00000000000E+00 0.  1.
         -6    2    1    2    0  503  0.72664054258E+02  0.18446670780E+03  0.19108844341E+03  0.32482764037E+03  0.17230836218E+03 0.  0.
        -24    2    3    3    0    0  0.31952379842E+02  0.20449711367E+02  0.37016571299E+02  0.96093630376E+02  0.80153689718E+02 0.  0.
          6    2    1    2  501    0 -0.72664054258E+02 -0.18446670780E+03  0.62284092962E+03  0.67603876188E+03  0.17259650314E+03 0.  0.
         24    2    5    5    0    0 -0.90174798873E+02 -0.15016247387E+03  0.33982599909E+03  0.39037646556E+03  0.78941828526E+02 0.  0.
          5    1    5    5  501    0  0.17510744615E+02 -0.34304233926E+02  0.28301493052E+03  0.28566229632E+03  0.47000000000E+01 0. -1.
        -13    1    6    6    0    0 -0.34943893317E+01 -0.79878751206E+02  0.15690811248E+03  0.17610502949E+03  0.00000000000E+00 0.  1.
         14    1    6    6    0    0 -0.86680409541E+02 -0.70283722664E+02  0.18291788662E+03  0.21427143607E+03  0.00000000000E+00 0. -1.
         -5    1    3    3    0  503  0.40711674416E+02  0.16401699643E+03  0.15407187211E+03  0.22873400999E+03  0.47000000000E+01 0.  1.
         13    1    4    4    0    0 -0.17745209901E+01 -0.43183165107E+01  0.51577298839E+02  0.51788169863E+02  0.00000000000E+00 0. -1.
        -14    1    4    4    0    0  0.33726900832E+02  0.24768027878E+02 -0.14560727540E+02  0.44305460512E+02  0.00000000000E+00 0.  1.
</event>
<event>
12    1  0.8196217E-002  0.2153967E+03  0.7818608E-02  0.1138639E+00
         21   -1    0    0  501  502  0.00000000000E+00  0.00000000000E+00  0.20242061614E+03  0.20242061614E+03  0.00000000000E+00 0.  1.
         21   -1    0    0  502  503 -0.00000000000E+00 -0.00000000000E+00 -0.22774293689E+03  0.22774293689E+03  0.00000000000E+00 0. -1.
         -6    2    1    2    0  503 -0.10434170352E+03  0.67552339013E+02  0.20450894665E+02  0.21636534557E+03  0.17591251824E+03 0.  0.
        -24    2    3    3    0    0 -0.13471869126E+03  0.20007960229E+02  0.10691437935E+02  0.15891479002E+03  0.81179796713E+02 0.  0.
          6    2    1    2  501    0  0.10434170352E+03 -0.67552339013E+02 -0.45773215408E+02  0.21379820746E+03  0.16782126404E+03 0.  0.
         24    2    5    5    0    0  0.40734645827E+02 -0.43089590219E+02 -0.87775890589E+02  0.13360719432E+03  0.81426354754E+02 0.  0.
          5    1    5    5  501    0  0.63607057690E+02 -0.24462748795E+02  0.42002675181E+02  0.80191013143E+02  0.47000000000E+01 0. -1.
        -13    1    6    6    0    0  0.12639019692E+02 -0.42633689362E+02 -0.33108103387E+01  0.44590781025E+02  0.00000000000E+00 0.  1.
         14    1    6    6    0    0  0.28095626135E+02 -0.45590085728E+00 -0.84465080250E+02  0.89016413291E+02  0.00000000000E+00 0. -1.
         -5    1    3    3    0  503  0.30376987740E+02  0.47544378784E+02  0.97594567301E+01  0.57450555557E+02  0.47000000000E+01 0.  1.
         13    1    4    4    0    0 -0.78870250739E+02 -0.99245167526E+01 -0.28457308126E+02  0.84432404148E+02  0.00000000000E+00 0. -1.
        -14    1    4    4    0    0 -0.55848440517E+02  0.29932476982E+02  0.39148746061E+02  0.74482385868E+02  0.00000000000E+00 0.  1.
</event>
<event>
12    1  0.8196217E-002  0.2011648E+03  0.7818608E-02  0.1148774E+00
         21   -1    0    0  501  502  0.00000000000E+00  0.00000000000E+00  0.13501394534E+03  0.13501394534E+03  0.00000000000E+00 0. -1.
         21   -1    0    0  502  503 -0.00000000000E+00 -0.00000000000E+00 -0.32862742022E+03  0.32862742022E+03  0.00000000000E+00 0. -1.
         -6    2    1    2    0  503 -0.82171645447E+02 -0.63602608938E+02 -0.16568441463E+03  0.26061194533E+03  0.17224920789E+03 0.  0.
        -24    2    3    3    0    0  0.15937187859E+01 -0.40378884525E+02 -0.13014368670E+03  0.16658423153E+03  0.95811965602E+02 0.  0.
          6    2    1    2  501    0  0.82171645447E+02  0.63602608938E+02 -0.27929060253E+02  0.20302942022E+03  0.17217270948E+03 0.  0.
         24    2    5    5    0    0  0.98582516947E+02  0.94453251821E+02 -0.41638974306E+02  0.16519913324E+03  0.83168623985E+02 0.  0.
          5    1    5    5  501    0 -0.16410871500E+02 -0.30850642883E+02  0.13709914053E+02  0.37830286981E+02  0.47000000000E+01 0. -1.
        -11    1    6    6    0    0  0.52673239202E+02  0.16724095390E+01 -0.30986747103E+02  0.61134651204E+02  0.00000000000E+00 0.  1.
         12    1    6    6    0    0  0.45909277745E+02  0.92780842282E+02 -0.10652227203E+02  0.10406448204E+03  0.00000000000E+00 0. -1.
         -5    1    3    3    0  503 -0.83765364233E+02 -0.23223724413E+02 -0.35540727929E+02  0.94027713800E+02  0.47000000000E+01 0.  1.
         13    1    4    4    0    0 -0.26448291550E+02 -0.55625284559E+02 -0.11668617999E+03  0.13194449215E+03  0.00000000000E+00 0. -1.
        -14    1    4    4    0    0  0.28042010335E+02  0.15246400034E+02 -0.13457506710E+02  0.34639739383E+02  0.00000000000E+00 0.  1.
</event>
<event>
12    1  0.8196217E-002  0.2683520E+03  0.7818608E-02  0.1102435E+00
         21   -1    0    0  503  502  0.00000000000E+00  0.00000000000E+00  0.19317585352E+03  0.19317585352E+03  0.00000000000E+00 0.  1.
         21   -1    0    0  501  503 -0.00000000000E+00 -0.00000000000E+00 -0.52987179610E+03  0.52987179610E+03  0.00000000000E+00 0. -1.
          6    2    1    2  501    0  0.45135181120E+02  0.20185645893E+03 -0.36612586527E+03  0.45308669681E+03  0.16868962924E+03 0.  0.
         24    2    3    3    0    0 -0.15685629885E+02  0.18524498593E+03 -0.27543753123E+03  0.34253545973E+03  0.83084076495E+02 0.  0.
         -6    2    1    2    0  502 -0.45135181120E+02 -0.20185645893E+03  0.29429922689E+02  0.26996095281E+03  0.17096660816E+03 0.  0.
        -24    2    5    5    0    0  0.17015643295E+02 -0.15598758738E+03 -0.21287655990E+02  0.17743505838E+03  0.80052333578E+02 0.  0.
          5    1    3    3  501    0  0.60820811005E+02  0.16611473000E+02 -0.90688334046E+02  0.11055123707E+03  0.47000000000E+01 0. -1.
        -11    1    4    4    0    0 -0.86867633368E+01  0.13388376981E+03 -0.12482667495E+03  0.18325398346E+03  0.00000000000E+00 0.  1.
         12    1    4    4    0    0 -0.69988665481E+01  0.51361216126E+02 -0.15061085627E+03  0.15928147627E+03  0.00000000000E+00 0. -1.
         -5    1    5    5    0  502 -0.62150824414E+02 -0.45868871551E+02  0.50717578679E+02  0.92525894428E+02  0.47000000000E+01 0.  1.
         13    1    6    6    0    0 -0.11990428816E+02 -0.68250209893E+02 -0.44247811108E+02  0.82217579151E+02  0.00000000000E+00 0. -1.
        -14    1    6    6    0    0  0.29006072111E+02 -0.87737377489E+02  0.22960155118E+02  0.95217479231E+02  0.00000000000E+00 0.  1.
</event>
<event>
12    1  0.8196217E-002  0.3278003E+03  0.7818608E-02  0.1072228E+00
         21   -1    0    0  501  502  0.00000000000E+00  0.00000000000E+00  0.20700305430E+03  0.20700305430E+03  0.00000000000E+00 0. -1.
         21   -1    0    0  502  503 -0.00000000000E+00 -0.00000000000E+00 -0.52291448571E+03  0.52291448571E+03  0.00000000000E+00 0. -1.
         -6    2    1    2    0  503 -0.24779312895E+03  0.12702680126E+03 -0.12097847976E+03  0.34941214217E+03  0.17296187307E+03 0.  0.
        -24    2    3    3    0    0 -0.17452081580E+03  0.13353213798E+03 -0.34385475494E+02  0.23569499453E+03  0.77983475811E+02 0.  0.
          6    2    1    2  501    0  0.24779312895E+03 -0.12702680126E+03 -0.19493295165E+03  0.38050539784E+03  0.17102122428E+03 0.  0.
         24    2    5    5    0    0  0.17598287542E+03 -0.31823838419E+02 -0.72723387774E+02  0.20969092495E+03  0.81846586634E+02 0.  0.
          5    1    5    5  501    0  0.71810253528E+02 -0.95202962842E+02 -0.12220956388E+03  0.17081447289E+03  0.47000000000E+01 0. -1.
        -13    1    6    6    0    0  0.16066299715E+03 -0.26630543797E+02 -0.89962191146E+02  0.18605101545E+03  0.00000000000E+00 0.  1.
         14    1    6    6    0    0  0.15319878276E+02 -0.51932946223E+01  0.17238803372E+02  0.23639909499E+02  0.00000000000E+00 0. -1.
         -5    1    3    3    0  503 -0.73272313153E+02 -0.65053367175E+01 -0.86593004268E+02  0.11371714765E+03  0.47000000000E+01 0.  1.
         13    1    4    4    0    0 -0.67410876844E+02  0.71924977144E+02  0.20177001640E+02  0.10062077345E+03  0.00000000000E+00 0. -1.
        -14    1    4    4    0    0 -0.10710993895E+03  0.61607160835E+02 -0.54562477134E+02  0.13507422108E+03  0.00000000000E+00 0.  1.
</event>
<event>
12    1  0.8196217E-002  0.1795881E+03  0.7818608E-02  0.1168658E+00
         21   -1    0    0  503  502  0.00000000000E+00  0.00000000000E+00  0.49446682144E+02  0.49446682144E+02  0.00000000000E+00 0.  1.
         21   -1    0    0  501  503 -0.00000000000E+00 -0.00000000000E+00 -0.11458820087E+04  0.11458820087E+04  0.00000000000E+00 0.  1.
          6    2    1    2  501    0 -0.22569173220E+02  0.42169975776E+02 -0.94477995607E+03  0.96169696053E+03  0.17310171594E+03 0.  0.
         24    2    3    3    0    0 -0.81393665999E+02  0.35561392237E+02 -0.59755369205E+03  0.60942978529E+03  0.80278931425E+02 0.  0.
         -6    2    1    2    0  502  0.22569173220E+02 -0.42169975776E+02 -0.15165537045E+03  0.23363173028E+03  0.17116296203E+03 0.  0.
        -24    2    5    5    0    0  0.19142129227E+02 -0.54997356924E+02 -0.17787805692E+03  0.20386588368E+03  0.80805723919E+02 0.  0.
          5    1    3    3  501    0  0.58824492779E+02  0.66085835386E+01 -0.34722626402E+03  0.35226717524E+03  0.47000000000E+01 0. -1.
        -13    1    4    4    0    0 -0.89432418275E+02  0.22393458135E+02 -0.36852118498E+03  0.37987825442E+03  0.00000000000E+00 0.  1.
         14    1    4    4    0    0  0.80387522766E+01  0.13167934102E+02 -0.22903250707E+03  0.22955153087E+03  0.00000000000E+00 0. -1.
         -5    1    5    5    0  502  0.34270439922E+01  0.12827381149E+02  0.26222686469E+02  0.29765846592E+02  0.47000000000E+01 0.  1.
         11    1    6    6    0    0 -0.31847196010E+02 -0.18950054256E+02 -0.61890334922E+02  0.72137105617E+02  0.00000000000E+00 0. -1.
        -12    1    6    6    0    0  0.50989325237E+02 -0.36047302668E+02 -0.11598772199E+03  0.13172877807E+03  0.00000000000E+00 0.  1.
</event>
<event>
12    1  0.8196217E-002  0.3120881E+03  0.7818608E-02  0.1079479E+00
         21   -1    0    0  503  502  0.00000000000E+00  0.00000000000E+00  0.88183305679E+03  0.88183305679E+03  0.00000000000E+00 0. -1.
         21   -1    0    0  501  503 -0.00000000000E+00 -0.00000000000E+00 -0.11015167926E+03  0.11015167926E+03  0.00000000000E+00 0.  1.
          6    2    1    2  501    0 -0.17830757473E+03  0.18805259610E+03  0.37115646330E+03  0.48422574175E+03  0.17193044704E+03 0.  0.
         24    2    3    3    0    0 -0.12959924680E+03  0.14010268413E+03  0.35947824459E+03  0.41472634564E+03  0.79678143583E+02 0.  0.
         -6    2    1    2    0  502  0.17830757473E+03 -0.18805259610E+03  0.40052491424E+03  0.50775899429E+03  0.17390117670E+03 0.  0.
        -24    2    5    5    0    0  0.15562118232E+03 -0.64773758460E+02  0.25425106766E+03  0.31506630527E+03  0.78800882867E+02 0.  0.
          5    1    3    3  501    0 -0.48708327927E+02  0.47949911967E+02  0.11678218709E+02  0.69499396107E+02  0.47000000000E+01 0. -1.
        -13    1    4    4    0    0 -0.98722756850E+02  0.77052267351E+02  0.15954033081E+03  0.20282098456E+03  0.00000000000E+00 0.  1.
         14    1    4    4    0    0 -0.30876489952E+02  0.63050416781E+02  0.19993791378E+03  0.21190536108E+03  0.00000000000E+00 0. -1.
         -5    1    5    5    0  502  0.22686392410E+02 -0.12327883764E+03  0.14627384658E+03  0.19269268903E+03  0.47000000000E+01 0.  1.
         11    1    6    6    0    0  0.57761077849E+02  0.15147481360E+02  0.80073468155E+02  0.99887679962E+02  0.00000000000E+00 0. -1.
        -12    1    6    6    0    0  0.97860104471E+02 -0.79921239820E+02  0.17417759950E+03  0.21517862531E+03  0.00000000000E+00 0.  1.
</event>
<event>
12    1  0.8196217E-002  0.2358713E+03  0.7818608E-02  0.1123200E+00
         21   -1    0    0  503  502  0.00000000000E+00  0.00000000000E+00  0.86683868529E+03  0.86683868529E+03  0.00000000000E+00 0.  1.
         21   -1    0    0  501  503 -0.00000000000E+00 -0.00000000000E+00 -0.12180702179E+03  0.12180702179E+03  0.00000000000E+00 0.  1.
          6    2    1    2  501    0  0.15579014914E+03 -0.25083164434E+02  0.31122851379E+02  0.23791572842E+03  0.17531550486E+03 0.  0.
         24    2    3    3    0    0  0.91223626836E+02 -0.90616131962E+01 -0.51744787033E+02  0.13154533121E+03  0.78884651554E+02 0.  0.
         -6    2    1    2    0  502 -0.15579014914E+03  0.25083164434E+02  0.71390881212E+03  0.75072997865E+03  0.17038184503E+03 0.  0.
        -24    2    5    5    0    0 -0.81924764156E+02  0.17344333721E+02  0.19479635753E+03  0.22631047567E+03  0.79109529108E+02 0.  0.
          5    1    3    3  501    0  0.64566522306E+02 -0.16021551238E+02  0.82867638412E+02  0.10637039721E+03  0.47000000000E+01 0. -1.
        -11    1    4    4    0    0  0.19776348626E+02  0.19611876880E+02  0.13202620451E+02  0.30822700506E+02  0.00000000000E+00 0.  1.
         12    1    4    4    0    0  0.71447278210E+02 -0.28673490076E+02 -0.64947407484E+02  0.10072263070E+03  0.00000000000E+00 0. -1.
         -5    1    5    5    0  502 -0.73865384985E+02  0.77388307138E+01  0.51911245459E+03  0.52441950298E+03  0.47000000000E+01 0.  1.
         13    1    6    6    0    0 -0.89592316455E+02  0.22630291735E+02  0.19621944466E+03  0.21688933522E+03  0.00000000000E+00 0. -1.
        -14    1    6    6    0    0  0.76675522982E+01 -0.52859580148E+01 -0.14230871236E+01  0.94211404480E+01  0.00000000000E+00 0.  1.
</event>
<event>
12    1  0.8196217E-002  0.1820925E+03  0.7818608E-02  0.1166201E+00
         21   -1    0    0  501  502  0.00000000000E+00  0.00000000000E+00  0.31106201648E+03  0.31106201648E+03  0.00000000000E+00 0.  1.
         21   -1    0    0  502  503 -0.00000000000E+00 -0.00000000000E+00 -0.11767125722E+03  0.11767125722E+03  0.00000000000E+00 0.  1.
         -6    2    1    2    0  503 -0.35751185901E+02  0.39542251876E+02  0.27630081397E+02  0.18249296094E+03  0.17233259244E+03 0.  0.
        -24    2    3    3    0    0 -0.59082950242E+02  0.11742863570E+02  0.73422887432E+02  0.12387343943E+03  0.79529986435E+02 0.  0.
          6    2    1    2  501    0  0.35751185901E+02 -0.39542251876E+02  0.16576067786E+03  0.24624031277E+03  0.17411476769E+03 0.  0.
         24    2    5    5    0    0  0.36663575671E+01 -0.30251603385E+02  0.74516903719E+01  0.84377476144E+02  0.78328979988E+02 0.  0.
          5    1    5    5  501    0  0.32084828334E+02 -0.92906484917E+01  0.15830898749E+03  0.16186283662E+03  0.47000000000E+01 0. -1.
        -13    1    6    6    0    0 -0.15768591540E+02 -0.43300848278E+02  0.27407112367E+02  0.53616804726E+02  0.00000000000E+00 0.  1.
         14    1    6    6    0    0  0.19434949107E+02  0.13049244894E+02 -0.19955421995E+02  0.30760671418E+02  0.00000000000E+00 0. -1.
         -5    1    3    3    0  503  0.23331764341E+02  0.27799388307E+02 -0.45792806035E+02  0.58619521510E+02  0.47000000000E+01 0.  1.
         13    1    4    4    0    0 -0.32877053061E+02 -0.83848795352E+01 -0.89753586787E+01  0.35096493930E+02  0.00000000000E+00 0. -1.
        -14    1    4    4    0    0 -0.26205897181E+02  0.20127743105E+02  0.82398246111E+02  0.88776945497E+02  0.00000000000E+00 0.  1.
</event>
<event>
12    1  0.8196217E-002  0.2760118E+03  0.7818608E-02  0.1097933E+00
         21   -1    0    0  501  502  0.00000000000E+00  0.00000000000E+00  0.45893731592E+03  0.45893731592E+03  0.00000000000E+00 0. -1.
         21   -1    0    0  502  503 -0.00000000000E+00 -0.00000000000E+00 -0.49732119677E+03  0.49732119677E+03  0.00000000000E+00 0. -1.
         -6    2    1    2    0  503 -0.19752508727E+03 -0.86295212078E+02 -0.40956274532E+03  0.49370445781E+03  0.17187037435E+03 0.  0.
        -24    2    3    3    0    0 -0.27023931706E+02 -0.36429790081E+02 -0.18948046540E+03  0.21083433868E+03  0.80565806085E+02 0.  0.
          6    2    1    2  501    0  0.19752508727E+03  0.86295212078E+02  0.37117886446E+03  0.46255405488E+03  0.17239338890E+03 0.  0.
         24    2    5    5    0    0  0.11402335725E+03 -0.17982625121E+02  0.15265694607E+03  0.20638941043E+03  0.77251179613E+02 0.  0.
          5    1    5    5  501    0  0.83501730019E+02  0.10427783720E+03  0.21852191840E+03  0.25616464445E+03  0.47000000000E+01 0. -1.
        -11    1    6    6    0    0  0.66289182607E+02 -0.17674890921E+02  0.14166836346E+03  0.15740578994E+03  0.00000000000E+00 0.  1.
         12    1    6    6    0    0  0.47734174644E+02 -0.30773420045E+00  0.10988582605E+02  0.48983620497E+02  0.00000000000E+00 0. -1.
         -5    1    3    3    0  503 -0.17050115556E+03 -0.49865421997E+02 -0.22008227992E+03  0.28287011913E+03  0.47000000000E+01 0.  1.
         13    1    4    4    0    0 -0.77398718877E+01 -0.15561601950E+02  0.17834145950E+01  0.17471394899E+02  0.00000000000E+00 0. -1.
        -14    1    4    4    0    0 -0.19284059818E+02 -0.20868188131E+02 -0.19126387999E+03  0.19336294378E+03  0.00000000000E+00 0.  1.
</event>
<event>
12    1  0.8196217E-002  0.1791512E+03  0.7818608E-02  0.1169428E+00
         21   -1    0    0  503  502  0.00000000000E+00  0.00000000000E+00  0.75248075941E+03  0.75248075941E+03  0.00000000000E+00 0.  1.
         21   -1    0    0  501  503 -0.00000000000E+00 -0.00000000000E+00 -0.42135652431E+02  0.42135652431E+02  0.00000000000E+00 0.  1.
          6    2    1    2  501    0 -0.46635886825E+02  0.63851749003E+01  0.32750633825E+03  0.37330354662E+03  0.17285676129E+03 0.  0.
         24    2    3    3    0    0 -0.46592937941E+02  0.31560017906E+02  0.33307664353E+03  0.34709490556E+03  0.79799037623E+02 0.  0.
         -6    2    1    2    0  502  0.46635886825E+02 -0.63851749003E+01  0.38283876873E+03  0.42131286523E+03  0.16947958923E+03 0.  0.
        -24    2    5    5    0    0 -0.10873556534E+02 -0.11303649401E+02  0.77898280775E+02  0.11092227474E+03  0.77392520086E+02 0.  0.
          5    1    3    3  501    0 -0.42948884099E-01 -0.25174843006E+02 -0.55703052788E+01  0.26208641053E+02  0.47000000000E+01 0. -1.
        -11    1    4    4    0    0 -0.17269854547E+02  0.30291863680E+02  0.42203380189E+02  0.54744590424E+02  0.00000000000E+00 0.  1.
         12    1    4    4    0    0 -0.29323083394E+02  0.12681542263E+01  0.29087326334E+03  0.29235031514E+03  0.00000000000E+00 0. -1.
         -5    1    5    5    0  502  0.57509443360E+02  0.49184745010E+01  0.30494048795E+03  0.31039059048E+03  0.47000000000E+01 0.  1.
         13    1    6    6    0    0 -0.11532929779E+02  0.31082924221E+02  0.50625673336E+02  0.60515414963E+02  0.00000000000E+00 0. -1.
        -14    1    6    6    0    0  0.65937324522E+00 -0.42386573622E+02  0.27272607439E+02  0.50406859781E+02  0.00000000000E+00 0.  1.
</event>
<event>
12    1  0.8196217E-002  0.2402831E+03  0.7818608E-02  0.1119865E+00
         21   -1    0    0  501  502  0.00000000000E+00  0.00000000000E+00  0.53579810462E+02  0.53579810462E+02  0.00000000000E+00 0. -1.
         21   -1    0    0  502  503 -0.00000000000E+00 -0.00000000000E+00 -0.10886424607E+04  0.10886424607E+04  0.00000000000E+00 0. -1.
         -6    2    1    2    0  503 -0.20398315533E+02  0.16355366584E+03 -0.44230903362E+03  0.50261861906E+03  0.17269134928E+03 0.  0.
        -24    2    3    3    0    0 -0.77410192374E+01  0.18331378899E+03 -0.43277978297E+03  0.47685883967E+03  0.80200647204E+02 0.  0.
          6    2    1    2  501    0  0.20398315533E+02 -0.16355366584E+03 -0.59275361664E+03  0.63960365212E+03  0.17484304070E+03 0.  0.
         24    2    5    5    0    0  0.56002730192E+02 -0.40297714288E+02 -0.20134905937E+03  0.22768215307E+03  0.80854854822E+02 0.  0.
          5    1    5    5  501    0 -0.35604414659E+02 -0.12325595156E+03 -0.39140455726E+03  0.41192149905E+03  0.47000000000E+01 0. -1.
        -13    1    6    6    0    0  0.89126937791E+01  0.11883144667E+02 -0.11676438956E+03  0.11770542854E+03  0.00000000000E+00 0.  1.
         14    1    6    6    0    0  0.47090036413E+02 -0.52180858955E+02 -0.84584669812E+02  0.10997672453E+03  0.00000000000E+00 0. -1.
         -5    1    3    3    0  503 -0.12657296295E+02 -0.19760123145E+02 -0.95292506509E+01  0.25759779389E+02  0.47000000000E+01 0.  1.
         11    1    4    4    0    0  0.23387337183E+01  0.90432316605E+02 -0.30780338946E+03  0.32082144586E+03  0.00000000000E+00 0. -1.
        -12    1    4    4    0    0 -0.10079752956E+02  0.92881472384E+02 -0.12497639351E+03  0.15603739381E+03  0.00000000000E+00 0.  1.
</event>
<event>
12    1  0.8196217E-002  0.1999718E+03  0.7818608E-02  0.1152357E+00
         21   -1    0    0  501  502  0.00000000000E+00  0.00000000000E+00  0.16046914823E+03  0.16046914823E+03  0.00000000000E+00 0. -1.
         21   -1    0    0  502  503 -0.00000000000E+00 -0.00000000000E+00 -0.28802951658E+03  0.28802951658E+03  0.00000000000E+00 0. -1.
         -6    2    1    2    0  503  0.28271086881E+02 -0.68730568037E+02 -0.16193096269E+03  0.25731372385E+03  0.18564905188E+03 0.  0.
        -24    2    3    3    0    0  0.38785478948E+02 -0.12332740781E+02 -0.17676716669E+03  0.19787072334E+03  0.79055563144E+02 0.  0.
          6    2    1    2  501    0 -0.28271086881E+02  0.68730568037E+02  0.34370594343E+02  0.19118494097E+03  0.17276341789E+03 0.  0.
         24    2    5    5    0    0  0.14861146880E+02  0.80352983661E+02  0.68961488570E+02  0.13449199522E+03  0.81577902657E+02 0.  0.
          5    1    5    5  501    0 -0.43132233761E+02 -0.11622415624E+02 -0.34590894227E+02  0.56692945748E+02  0.47000000000E+01 0. -1.
        -11    1    6    6    0    0  0.11660054799E+02  0.19426937779E+02 -0.17530353795E+02  0.28647444800E+02  0.00000000000E+00 0.  1.
         12    1    6    6    0    0  0.32010920802E+01  0.60926045882E+02  0.86491842365E+02  0.10584455042E+03  0.00000000000E+00 0. -1.
         -5    1    3    3    0  503 -0.10514392067E+02 -0.56397827256E+02  0.14836203998E+02  0.59443000503E+02  0.47000000000E+01 0.  1.
         11    1    4    4    0    0 -0.33137054372E+01 -0.35447788540E+02 -0.11004376996E+03  0.11565966307E+03  0.00000000000E+00 0. -1.
        -12    1    4    4    0    0  0.42099184386E+02  0.23115047759E+02 -0.66723396737E+02  0.82211060272E+02  0.00000000000E+00 0.  1.
</event>
<event>
12    1  0.8196217E-002  0.2291370E+03  0.7818608E-02  0.1127876E+00
         21   -1    0    0  501  502  0.00000000000E+00  0.00000000000E+00  0.13467367349E+03  0.13467367349E+03  0.00000000000E+00 0.  1.
         21   -1    0    0  502  503 -0.00000000000E+00 -0.00000000000E+00 -0.59474070562E+03  0.59474070562E+03  0.00000000000E+00 0. -1.
         -6    2    1    2    0  503 -0.61842270246E+02  0.13339050210E+03 -0.44603141424E+03  0.49984794402E+03  0.17113284959E+03 0.  0.
        -24    2    3    3    0    0 -0.15813252441E+02  0.58777361021E+00 -0.19061102246E+03  0.20827136452E+03  0.82425693601E+02 0.  0.
          6    2    1    2  501    0  0.61842270246E+02 -0.13339050210E+03 -0.14035617887E+02  0.22956643509E+03  0.17574486369E+03 0.  0.
         24    2    5    5    0    0  0.64695216673E+02 -0.15771194313E+03  0.17292191979E+02  0.18952653664E+03  0.81010864222E+02 0.  0.
          5    1    5    5  501    0 -0.28529464274E+01  0.24321441029E+02 -0.31327809866E+02  0.40039898452E+02  0.47000000000E+01 0. -1.
        -11    1    6    6    0    0  0.16254578002E+02 -0.51982023553E+02  0.44215598022E+02  0.70152413979E+02  0.00000000000E+00 0.  1.
         12    1    6    6    0    0  0.48440638671E+02 -0.10572991957E+03 -0.26923406043E+02  0.11937412266E+03  0.00000000000E+00 0. -1.
         -5    1    3    3    0  503 -0.46029017805E+02  0.13280272849E+03 -0.25542039178E+03  0.29157657950E+03  0.47000000000E+01 0.  1.
         13    1    4    4    0    0  0.25795774584E+02  0.22712196257E+02 -0.10585880977E+03  0.11129848809E+03  0.00000000000E+00 0. -1.
        -14    1    4    4    0    0 -0.41609027025E+02 -0.22124422647E+02 -0.84752212690E+02  0.96972876431E+02  0.00000000000E+00 0.  1.
</event>
<event>
12    1  0.8196217E-002  0.1836360E+03  0.7818608E-02  0.1164836E+00
         21   -1    0    0  501  502  0.00000000000E+00  0.00000000000E+00  0.19175474825E+04  0.19175474825E+04  0.00000000000E+00 0.  1.
         21   -1    0    0  502  503 -0.00000000000E+00 -0.00000000000E+00 -0.17401819063E+02  0.17401819063E+02  0.00000000000E+00 0. -1.
         -6    2    1    2    0  503 -0.26471433188E+02  0.54747314539E+02  0.98806360187E+03  0.10049835089E+04  0.17327482943E+03 0.  0.
        -24    2    3    3    0    0  0.50272439918E+02  0.35107226197E+02  0.61068388663E+03  0.61935040006E+03  0.83067882578E+02 0.  0.
          6    2    1    2  501    0  0.26471433188E+02 -0.54747314539E+02  0.91208206158E+03  0.92996579272E+03  0.17101076967E+03 0.  0.
         24    2    5    5    0    0 -0.43153728321E+02 -0.33355033000E+02  0.35459748789E+03  0.36772346709E+03  0.80662056358E+02 0.  0.
          5    1    5    5  501    0  0.69625161509E+02 -0.21392281539E+02  0.55748457369E+03  0.56224232563E+03  0.47000000000E+01 0. -1.
        -13    1    6    6    0    0 -0.69393862314E+01  0.24900030393E+02  0.14201692859E+03  0.14435018047E+03  0.00000000000E+00 0.  1.
         14    1    6    6    0    0 -0.36214342090E+02 -0.58255063393E+02  0.21258055930E+03  0.22337328662E+03  0.00000000000E+00 0. -1.
         -5    1    3    3    0  503 -0.76743873106E+02  0.19640088341E+02  0.37737971523E+03  0.38563310879E+03  0.47000000000E+01 0.  1.
         13    1    4    4    0    0  0.41912140340E+02  0.13908071650E+02  0.11567841038E+03  0.12382066303E+03  0.00000000000E+00 0. -1.
        -14    1    4    4    0    0  0.83602995785E+01  0.21199154547E+02  0.49500547626E+03  0.49552973703E+03  0.00000000000E+00 0.  1.
</event>
<event>
12    1  0.8196217E-002  0.2967531E+03  0.7818608E-02  0.1086927E+00
         21   -1    0    0  501  502  0.00000000000E+00  0.00000000000E+00  0.45918202953E+02  0.45918202953E+02  0.00000000000E+00 0. -1.
         21   -1    0    0  502  503 -0.00000000000E+00 -0.00000000000E+00 -0.23584353794E+04  0.23584353794E+04  0.00000000000E+00 0.  1.
         -6    2    1    2    0  503 -0.23391830982E+03 -0.56993448601E+02 -0.63572446041E+03  0.70157537303E+03  0.17348309895E+03 0.  0.
        -24    2    3    3    0    0 -0.18677915049E+03 -0.92925638570E+02 -0.57246916773E+03  0.61476209829E+03  0.81791589621E+02 0.  0.
          6    2    1    2  501    0  0.23391830982E+03  0.56993448601E+02 -0.16767927160E+04  0.17027782093E+04  0.17278248970E+03 0.  0.
         24    2    5    5    0    0  0.21362081504E+03  0.10991703047E+02 -0.10813445410E+04  0.11051924263E+04  0.79935053035E+02 0.  0.
          5    1    5    5  501    0  0.20297494776E+02  0.46001745553E+02 -0.59544817498E+03  0.59758578295E+03  0.47000000000E+01 0. -1.
        -13    1    6    6    0    0  0.14474044414E+03 -0.27357521178E+02 -0.77440648848E+03  0.78829159550E+03  0.00000000000E+00 0.  1.
         14    1    6    6    0    0  0.68880370900E+02  0.38349224225E+02 -0.30693805253E+03  0.31690083084E+03  0.00000000000E+00 0. -1.
         -5    1    3    3    0  503 -0.47139159328E+02  0.35932189969E+02 -0.63255292678E+02  0.86813274733E+02  0.47000000000E+01 0.  1.
         13    1    4    4    0    0 -0.18543485940E+03 -0.71181974858E+02 -0.54244266149E+03  0.57766512932E+03  0.00000000000E+00 0. -1.
        -14    1    4    4    0    0 -0.13442910938E+01 -0.21743663712E+02 -0.30026506242E+02  0.37096968977E+02  0.00000000000E+00 0.  1.
</event>
<event>
12    1  0.8196217E-002  0.2948156E+03  0.7818608E-02  0.1088036E+00
         21   -1    0    0  501  502  0.00000000000E+00  0.00000000000E+00  0.22244265555E+03  0.22244265555E+03  0.00000000000E+00 0. -1.
         21   -1    0    0  502  503 -0.00000000000E+00 -0.00000000000E+00 -0.49747784905E+03  0.49747784905E+03  0.00000000000E+00 0.  1.
         -6    2    1    2    0  503  0.14554497115E+03  0.18955848724E+03 -0.30591002656E+03  0.42484956861E+03  0.17262807677E+03 0.  0.
        -24    2    3    3    0    0  0.11727105866E+03  0.77306501718E+02 -0.10376306984E+03  0.19185728442E+03  0.79458457796E+02 0.  0.
          6    2    1    2  501    0 -0.14554497115E+03 -0.18955848724E+03  0.30874833065E+02  0.29507093599E+03  0.17028753107E+03 0.  0.
         24    2    5    5    0    0 -0.10959416498E+03 -0.65088139397E+02 -0.29291112933E+02  0.15214662380E+03  0.77738529378E+02 0.  0.
          5    1    5    5  501    0 -0.35950806165E+02 -0.12447034784E+03  0.60165945998E+02  0.14292431219E+03  0.47000000000E+01 0. -1.
        -11    1    6    6    0    0  0.40233377851E+01 -0.30144838174E+02 -0.49981101881E+01  0.30820117146E+02  0.00000000000E+00 0.  1.
         12    1    6    6    0    0 -0.11361750277E+03 -0.34943301224E+02 -0.24293002745E+02  0.12132650666E+03  0.00000000000E+00 0. -1.
         -5    1    3    3    0  503  0.28273912486E+02  0.11225198552E+03 -0.20214695673E+03  0.23299228420E+03  0.47000000000E+01 0.  1.
         13    1    4    4    0    0  0.47581575723E+02 -0.40511291397E+01 -0.85047414265E+01  0.48505140164E+02  0.00000000000E+00 0. -1.
        -14    1    4    4    0    0  0.69689482938E+02  0.81357630858E+02 -0.95258328410E+02  0.14335214425E+03  0.00000000000E+00 0.  1.
</event>
<event>
12    1  0.8196217E-002  0.2339823E+03  0.7818608E-02  0.1123934E+00
         21   -1    0    0  503  502  0.00000000000E+00  0.00000000000E+00  0.61376108744E+03  0.61376108744E+03  0.00000000000E+00 0. -1.
         21   -1    0    0  501  503 -0.00000000000E+00 -0.00000000000E+00 -0.89358462992E+02  0.89358462992E+02  0.00000000000E+00 0. -1.
          6    2    1    2  501    0  0.15795167527E+03 -0.18978443292E+02  0.24149902386E+03  0.33599267246E+03  0.17105667012E+03 0.  0.
         24    2    3    3    0    0  0.82415810884E+02  0.37410129062E+02  0.19908551683E+03  0.23252125863E+03  0.78988664153E+02 0.  0.
         -6    2    1    2    0  502 -0.15795167527E+03  0.18978443292E+02  0.28290360059E+03  0.36712687797E+03  0.17157734196E+03 0.  0.
        -24    2    5    5    0    0 -0.18532736120E+03  0.19003069935E+02  0.22247603300E+03  0.30062116610E+03  0.78550319996E+02 0.  0.
          5    1    3    3  501    0  0.75535864386E+02 -0.56388572354E+02  0.42413507027E+02  0.10347141383E+03  0.47000000000E+01 0. -1.
        -11    1    4    4    0    0  0.44449676792E+02 -0.46386327803E+01  0.15329568246E+03  0.15967735263E+03  0.00000000000E+00 0.  1.
         12    1    4    4    0    0  0.37966134092E+02  0.42048761843E+02  0.45789834365E+02  0.72843906001E+02  0.00000000000E+00 0. -1.
         -5    1    5    5    0  502  0.27375685933E+02 -0.24626643413E-01  0.60427567585E+02  0.66505711868E+02  0.47000000000E+01 0.  1.
         13    1    6    6    0    0 -0.14969050310E+03 -0.12051451324E+02  0.13868297692E+03  0.20441490231E+03  0.00000000000E+00 0. -1.
        -14    1    6    6    0    0 -0.35636858099E+02  0.31054521259E+02  0.83793056080E+02  0.96206263794E+02  0.00000000000E+00 0.  1.
</event>
<event>
12    1  0.8196217E-002  0.1939556E+03  0.7818608E-02  0.1156477E+00
         21   -1    0    0  503  502  0.00000000000E+00  0.00000000000E+00  0.33790983550E+03  0.33790983550E+03  0.00000000000E+00 0. -1.
         21   -1    0    0  501  503 -0.00000000000E+00 -0.00000000000E+00 -0.10969909083E+03  0.10969909083E+03  0.00000000000E+00 0. -1.
          6    2    1    2  501    0 -0.86036846472E+01 -0.72755514042E+02  0.83894567692E+02  0.21132216252E+03  0.17958666340E+03 0.  0.
         24    2    3    3    0    0  0.58108689368E+02 -0.73630430586E+02  0.34316035460E+02  0.12806696939E+03  0.80159205772E+02 0.  0.
         -6    2    1    2    0  502  0.86036846472E+01  0.72755514042E+02  0.14431617698E+03  0.23628676381E+03  0.17215367438E+03 0.  0.
        -24    2    5    5    0    0  0.60422431164E+02  0.58213323741E+02  0.12929892005E+03  0.18021301064E+03  0.93374821164E+02 0.  0.
          5    1    3    3  501    0 -0.66712374016E+02  0.87491654338E+00  0.49578532232E+02  0.83255193135E+02  0.47000000000E+01 0. -1.
        -11    1    4    4    0    0  0.65795323681E+02 -0.59289294126E+02 -0.16590830410E+01  0.88583280436E+02  0.00000000000E+00 0.  1.
         12    1    4    4    0    0 -0.76866343130E+01 -0.14341136460E+02  0.35975118501E+02  0.39483688951E+02  0.00000000000E+00 0. -1.
         -5    1    5    5    0  502 -0.51818746517E+02  0.14542190301E+02  0.15017256921E+02  0.56073753172E+02  0.47000000000E+01 0.  1.
         11    1    6    6    0    0  0.49092842469E+02  0.83513811465E+02  0.10916902199E+03  0.14595389426E+03  0.00000000000E+00 0. -1.
        -12    1    6    6    0    0  0.11329588695E+02 -0.25300487724E+02  0.20129898069E+02  0.34259116383E+02  0.00000000000E+00 0.  1.
</event>
<event>
12    1  0.8196217E-002  0.2852180E+03  0.7818608E-02  0.1093008E+00
         21   -1    0    0  503  502  0.00000000000E+00  0.00000000000E+00  0.12364552067E+04  0.12364552067E+04  0.00000000000E+00 0.  1.
         21   -1    0    0  501  503 -0.00000000000E+00 -0.00000000000E+00 -0.67392172485E+02  0.67392172485E+02  0.00000000000E+00 0. -1.
          6    2    1    2  501    0 -0.13888296078E+03  0.17870193382E+03  0.69307938363E+03  0.74947205606E+03  0.17356979247E+03 0.  0.
         24    2    3    3    0    0 -0.11300456857E+03  0.16280577581E+03  0.38744768113E+03  0.44229912985E+03  0.78975068847E+02 0.  0.
         -6    2    1    2    0  502  0.13888296078E+03 -0.17870193382E+03  0.47598365056E+03  0.55437532310E+03  0.17189736857E+03 0.  0.
        -24    2    5    5    0    0  0.11187439502E+03 -0.19953064983E+03  0.36822031445E+03  0.44124564245E+03  0.82359920608E+02 0.  0.
          5    1    3    3  501    0 -0.25878392210E+02  0.15896158007E+02  0.30563170250E+03  0.30717292621E+03  0.47000000000E+01 0. -1.
        -11    1    4    4    0    0 -0.57196637408E+01  0.33308146851E+02  0.13355619945E+03  0.13776576357E+03  0.00000000000E+00 0.  1.
         12    1    4    4    0    0 -0.10728490483E+03  0.12949762896E+03  0.25389148168E+03  0.30453336628E+03  0.00000000000E+00 0. -1.
         -5    1    5    5    0  502  0.27008565758E+02  0.20828716016E+02  0.10776333611E+03  0.11312968066E+03  0.47000000000E+01 0.  1.
         13    1    6    6    0    0  0.43882587311E+02 -0.15249085146E+03  0.26649447490E+03  0.31015874387E+03  0.00000000000E+00 0. -1.
        -14    1    6    6    0    0  0.67991807707E+02 -0.47039798371E+02  0.10172583955E+03  0.13108689858E+03  0.00000000000E+00 0.  1.
</event>
<event>
12    1  0.8196217E-002  0.1867857E+03  0.7818608E-02  0.1161522E+00
         21   -1    0    0  501  502  0.00000000000E+00  0.00000000000E+00  0.16742434189E+04  0.16742434189E+04  0.00000000000E+00 0. -1.
         21   -1    0    0  502  503 -0.00000000000E+00 -0.00000000000E+00 -0.26525850119E+02  0.26525850119E+02  0.00000000000E+00 0. -1.
         -6    2    1    2    0  503  0.25476732764E+02  0.73695746036E+02  0.42891649480E+03  0.46782289201E+03  0.16973146993E+03 0.  0.
        -24    2    3    3    0    0  0.67489866160E+02  0.71172148059E+02  0.39312299541E+03  0.41237258523E+03  0.76714423871E+02 0.  0.
          6    2    1    2  501    0 -0.25476732764E+02 -0.73695746036E+02  0.12188010740E+04  0.12329463770E+04  0.16911707109E+03 0.  0.
         24    2    5    5    0    0  0.84712563581E+01 -0.79203212155E+01  0.97116387937E+03  0.97444078204E+03  0.79000401436E+02 0.  0.
          5    1    5    5  501    0 -0.33947989122E+02 -0.65775424821E+02  0.24763719462E+03  0.25850559498E+03  0.47000000000E+01 0. -1.
        -11    1    6    6    0    0  0.34412456882E+02 -0.26332777713E+02  0.71455080762E+03  0.71586345698E+03  0.00000000000E+00 0.  1.
         12    1    6    6    0    0 -0.25941200524E+02  0.18412456497E+02  0.25661307175E+03  0.25857732506E+03  0.00000000000E+00 0. -1.
         -5    1    3    3    0  503 -0.42013133396E+02  0.25235979767E+01  0.35793499387E+02  0.55450306788E+02  0.47000000000E+01 0.  1.
         13    1    4    4    0    0  0.59010672537E+02  0.23930050694E+02  0.12827918790E+03  0.14321472287E+03  0.00000000000E+00 0. -1.
        -14    1    4    4    0    0  0.84791936226E+01  0.47242097365E+02  0.26484380751E+03  0.26915786235E+03  0.00000000000E+00 0.  1.
</event>
<event>
12    1  0.8196217E-002  0.1885634E+03  0.7818608E-02  0.1160402E+00
         21   -1    0    0  503  502  0.00000000000E+00  0.00000000000E+00  0.33430259250E+03  0.33430259250E+03  0.00000000000E+00 0.  1.
         21   -1    0    0  501  503 -0.00000000000E+00 -0.00000000000E+00 -0.10480761888E+03  0.10480761888E+03  0.00000000000E+00 0.  1.
          6    2    1    2  501    0 -0.48162864381E+02  0.56351596653E+02  0.11166733562E+03  0.21676025833E+03  0.17035331460E+03 0.  0.
         24    2    3    3    0    0 -0.70876753012E+02  0.40038238201E+02  0.13666756521E+03  0.17895618606E+03  0.81979988480E+02 0.  0.
         -6    2    1    2    0  502  0.48162864381E+02 -0.56351596653E+02  0.11782763799E+03  0.22234995305E+03  0.17338104105E+03 0.  0.
        -24    2    5    5    0    0 -0.69763072617E+01 -0.77213894078E+02  0.11987435546E+03  0.16317358314E+03  0.79025963051E+02 0.  0.
          5    1    3    3  501    0  0.22713888631E+02  0.16313358452E+02 -0.25000229593E+02  0.37804072273E+02  0.47000000000E+01 0. -1.
        -11    1    4    4    0    0 -0.17599807143E+02  0.37556797098E+02  0.11717882925E+02  0.43099593965E+02  0.00000000000E+00 0.  1.
         12    1    4    4    0    0 -0.53276945868E+02  0.24814411036E+01  0.12494968229E+03  0.13585659209E+03  0.00000000000E+00 0. -1.
         -5    1    5    5    0  502  0.55139171643E+02  0.20862297425E+02 -0.20467174646E+01  0.59176369910E+02  0.47000000000E+01 0.  1.
         13    1    6    6    0    0 -0.40239173850E+02 -0.21007277423E+02  0.49563914574E+02  0.67209213987E+02  0.00000000000E+00 0. -1.
        -14    1    6    6    0    0  0.33262866588E+02 -0.56206616655E+02  0.70310440884E+02  0.95964369152E+02  0.00000000000E+00 0.  1.
</event>
<event>
12    1  0.8196217E-002  0.3120276E+03  0.7818608E-02  0.1080959E+00
         21   -1    0    0  501  502  0.00000000000E+00  0.00000000000E+00  0.34064453778E+03  0.34064453778E+03  0.00000000000E+00 0.  1.
         21   -1    0    0  502  503 -0.00000000000E+00 -0.00000000000E+00 -0.10467492008E+04  0.10467492008E+04  0.00000000000E+00 0. -1.
         -6    2    1    2    0  503  0.24335807620E+03 -0.22841847881E+02 -0.94706975322E+03  0.99315345559E+03  0.17224333259E+03 0.  0.
        -24    2    3    3    0    0  0.49988876879E+02 -0.19086555816E+02 -0.34289924592E+03  0.35876411035E+03  0.90931895386E+02 0.  0.
          6    2    1    2  501    0 -0.24335807620E+03  0.22841847881E+02  0.24096509017E+03  0.39424028303E+03  0.19394927899E+03 0.  0.
         24    2    5    5    0    0 -0.12692256264E+03 -0.63287428915E+02  0.16234136499E+03  0.22937894342E+03  0.78392253001E+02 0.  0.
          5    1    5    5  501    0 -0.11643551356E+03  0.86129276795E+02  0.78623725176E+02  0.16486133962E+03  0.47000000000E+01 0. -1.
        -11    1    6    6    0    0 -0.80954599984E+02  0.33986043006E+01  0.83359300052E+02  0.11624960505E+03  0.00000000000E+00 0.  1.
         12    1    6    6    0    0 -0.45967962652E+02 -0.66686033215E+02  0.78982064938E+02  0.11312933836E+03  0.00000000000E+00 0. -1.
         -5    1    3    3    0  503  0.19336919932E+03 -0.37552920643E+01 -0.60417050729E+03  0.63438934523E+03  0.47000000000E+01 0.  1.
         13    1    4    4    0    0  0.29443816784E+02  0.57087144630E+01 -0.31420541194E+03  0.31563359875E+03  0.00000000000E+00 0. -1.
        -14    1    4    4    0    0  0.20545060095E+02 -0.24795270279E+02 -0.28693833985E+02  0.43130511605E+02  0.00000000000E+00 0.  1.
</event>
<event>
12    1  0.8196217E-002  0.1909703E+03  0.7818608E-02  0.1158438E+00
         21   -1    0    0  503  502  0.00000000000E+00  0.00000000000E+00  0.78998604731E+02  0.78998604731E+02  0.00000000000E+00 0.  1.
         21   -1    0    0  501  503 -0.00000000000E+00 -0.00000000000E+00 -0.78401878461E+03  0.78401878461E+03  0.00000000000E+00 0.  1.
          6    2    1    2  501    0 -0.72683063549E+01 -0.71612383107E+02 -0.63102395425E+03  0.65821238302E+03  0.17283271862E+03 0.  0.
         24    2    3    3    0    0 -0.28019324435E+02 -0.90272302903E+01 -0.50233276846E+03  0.51353682390E+03  0.10254406764E+03 0.  0.
         -6    2    1    2    0  502  0.72683063549E+01  0.71612383107E+02 -0.73996225626E+02  0.20480500632E+03  0.17688552093E+03 0.  0.
        -24    2    5    5    0    0  0.10495922192E+02  0.32247992679E+02 -0.11824820683E+03  0.14530458129E+03  0.77334891935E+02 0.  0.
          5    1    3    3  501    0  0.20751018080E+02 -0.62585152816E+02 -0.12869118580E+03  0.14467555912E+03  0.47000000000E+01 0. -1.
        -13    1    4    4    0    0  0.35979743607E+02 -0.18234712634E+02 -0.15047748028E+03  0.15578998288E+03  0.00000000000E+00 0.  1.
         14    1    4    4    0    0 -0.63999068042E+02  0.92074823435E+01 -0.35185528818E+03  0.35774684103E+03  0.00000000000E+00 0. -1.
         -5    1    5    5    0  502 -0.32276158367E+01  0.39364390427E+02  0.44251981208E+02  0.59500425028E+02  0.47000000000E+01 0.  1.
         11    1    6    6    0    0 -0.30464624892E+02  0.24576691261E+02 -0.36367988408E+02  0.53429745498E+02  0.00000000000E+00 0. -1.
        -12    1    6    6    0    0  0.40960547083E+02  0.76713014185E+01 -0.81880218427E+02  0.91874835795E+02  0.00000000000E+00 0.  1.
</event>
<event>
12    1  0.8196217E-002  0.4073988E+03  0.7818608E-02  0.1041331E+00
         21   -1    0    0  503  502  0.00000000000E+00  0.00000000000E+00  0.15359041450E+03  0.15359041450E+03  0.00000000000E+00 0. -1.
         21   -1    0    0  501  503 -0.00000000000E+00 -0.00000000000E+00 -0.11099159872E+04  0.11099159872E+04  0.00000000000E+00 0.  1.
          6    2    1    2  501    0  0.19849351083E+03  0.31119959857E+03 -0.37163444075E+03  0.55143985212E+03  0.17242067442E+03 0.  0.
         24    2    3    3    0    0  0.16157327931E+03  0.26741609592E+03 -0.37338916008E+03  0.49394839501E+03  0.83356218301E+02 0.  0.
         -6    2    1    2    0  502 -0.19849351083E+03 -0.31119959857E+03 -0.58469113192E+03  0.71206654955E+03  0.17008876286E+03 0.  0.
        -24    2    5    5    0    0 -0.20892567303E+03 -0.29048140034E+03 -0.58250751037E+03  0.68829825241E+03  0.80063124077E+02 0.  0.
          5    1    3    3  501    0  0.36920231522E+02  0.43783502652E+02  0.17547193371E+01  0.57491457105E+02  0.47000000000E+01 0. -1.
        -13    1    4    4    0    0  0.12137723189E+03  0.12532594807E+03 -0.22357229449E+03  0.28359054382E+03  0.00000000000E+00 0.  1.
         14    1    4    4    0    0  0.40196047418E+02  0.14209014785E+03 -0.14981686560E+03  0.21035785120E+03  0.00000000000E+00 0. -1.
         -5    1    5    5    0  502  0.10432162204E+02 -0.20718198225E+02 -0.21836215544E+01  0.23768297142E+02  0.47000000000E+01 0.  1.
         13    1    6    6    0    0 -0.34454644754E+02 -0.97865324447E+01 -0.66251301991E+02  0.75313569679E+02  0.00000000000E+00 0. -1.
        -14    1    6    6    0    0 -0.17447102828E+03 -0.28069486790E+03 -0.51625620838E+03  0.61298468273E+03  0.00000000000E+00 0.  1.
</event>
<event>
12    1  0.8196217E-002  0.2025458E+03  0.7818608E-02  0.1147988E+00
         21   -1    0    0  503  502  0.00000000000E+00  0.00000000000E+00  0.12906421373E+03  0.12906421373E+03  0.00000000000E+00 0. -1.
         21   -1    0    0  501  503 -0.00000000000E+00 -0.00000000000E+00 -0.60080837176E+03  0.60080837176E+03  0.00000000000E+00 0. -1.
          6    2    1    2  501    0  0.47931995447E+02 -0.90700778018E+02 -0.48812205166E+03  0.52847698925E+03  0.17464444890E+03 0.  0.
         24    2    3    3    0    0 -0.22859916010E+02 -0.99248235423E+02 -0.34949812685E+03  0.37251790396E+03  0.79043406447E+02 0.  0.
         -6    2    1    2    0  502 -0.47931995447E+02  0.90700778018E+02  0.16377893629E+02  0.20139559623E+03  0.17253360096E+03 0.  0.
        -24    2    5    5    0    0 -0.60789300154E+01  0.10937617003E+03  0.49959361479E+02  0.14438459435E+03  0.79692366793E+02 0.  0.
          5    1    3    3  501    0  0.70791911457E+02  0.85474574047E+01 -0.13862392481E+03  0.15595908529E+03  0.47000000000E+01 0. -1.
        -11    1    4    4    0    0 -0.12322973690E+02 -0.87901781750E+01 -0.46316546305E+01  0.15829565298E+02  0.00000000000E+00 0.  1.
         12    1    4    4    0    0 -0.10536942320E+02 -0.90458057248E+02 -0.34486647222E+03  0.35668833866E+03  0.00000000000E+00 0. -1.
         -5    1    5    5    0  502 -0.41853065432E+02 -0.18675392013E+02 -0.33581467850E+02  0.57011001884E+02  0.47000000000E+01 0.  1.
         11    1    6    6    0    0  0.13405484068E+02 -0.71775985137E+01 -0.19201348878E+01  0.15326834034E+02  0.00000000000E+00 0. -1.
        -12    1    6    6    0    0 -0.19484414084E+02  0.11655376854E+03  0.51879496367E+02  0.12905776031E+03  0.00000000000E+00 0.  1.
</event>
<event>
12    1  0.8196217E-002  0.2735305E+03  0.7818608E-02  0.1099292E+00
         21   -1    0    0  503  502  0.00000000000E+00  0.00000000000E+00  0.59884994058E+02  0.59884994058E+02  0.00000000000E+00 0. -1.
         21   -1    0    0  501  503 -0.00000000000E+00 -0.00000000000E+00 -0.13743255349E+04  0.13743255349E+04  0.00000000000E+00 0. -1.
          6    2    1    2  501    0 -0.20879589748E+03 -0.39150942483E+02 -0.87377063398E+03  0.91554985714E+03  0.17212756022E+03 0.  0.
         24    2    3    3    0    0 -0.13962359888E+03 -0.85014220951E+02 -0.68938069051E+03  0.71328767961E+03  0.82531268624E+02 0.  0.
         -6    2    1    2    0  502  0.20879589748E+03  0.39150942483E+02 -0.44066990690E+03  0.51866067186E+03  0.17230903224E+03 0.  0.
        -24    2    5    5    0    0  0.36120037600E+02 -0.75209842689E+01 -0.18253319991E+03  0.20457171818E+03  0.84675831785E+02 0.  0.
          5    1    3    3  501    0 -0.69172298597E+02  0.45863278468E+02 -0.18438994347E+03  0.20226217753E+03  0.47000000000E+01 0. -1.
        -11    1    4    4    0    0 -0.41842848149E+02 -0.61367703308E+02 -0.19264703213E+03  0.20646960536E+03  0.00000000000E+00 0.  1.
         12    1    4    4    0    0 -0.97780750733E+02 -0.23646517642E+02 -0.49673365839E+03  0.50681807425E+03  0.00000000000E+00 0. -1.
         -5    1    5    5    0  502  0.17267585988E+03  0.46671926752E+02 -0.25813670699E+03  0.31408895369E+03  0.47000000000E+01 0.  1.
         11    1    6    6    0    0  0.63565026541E+02 -0.74777905849E+01 -0.11383432196E+03  0.13059357874E+03  0.00000000000E+00 0. -1.
        -12    1    6    6    0    0 -0.27444988941E+02 -0.43193684089E-01 -0.68698877947E+02  0.73978139439E+02  0.00000000000E+00 0.  1.
</event>
<event>
12    1  0.8196217E-002  0.1835711E+03  0.7818608E-02  0.1164652E+00
         21   -1    0    0  501  502  0.00000000000E+00  0.00000000000E+00  0.15940059321E+03  0.15940059321E+03  0.00000000000E+00 0. -1.
         21   -1    0    0  502  503 -0.00000000000E+00 -0.00000000000E+00 -0.21377692666E+03  0.21377692666E+03  0.00000000000E+00 0. -1.
         -6    2    1    2    0  503  0.56360176555E+02  0.27598044049E+02 -0.51448584220E+02  0.18958308453E+03  0.17133787552E+03 0.  0.
        -24    2    3    3    0    0  0.91998958803E+02 -0.26601487981E+01 -0.68330388758E+02  0.13965547335E+03  0.79772955288E+02 0.  0.
          6    2    1    2  501    0 -0.56360176555E+02 -0.27598044049E+02 -0.29277492366E+01  0.18359443534E+03  0.17251151682E+03 0.  0.
         24    2    5    5    0    0 -0.10322143462E+03 -0.35066259769E+02 -0.52790380466E+01  0.13585168393E+03  0.80891931888E+02 0.  0.
          5    1    5    5  501    0  0.46861258061E+02  0.74682157203E+01  0.23512888100E+01  0.47742751409E+02  0.47000000000E+01 0. -1.
        -11    1    6    6    0    0  0.13514325171E+02 -0.69642541726E+01 -0.42135634893E+01  0.15776309400E+02  0.00000000000E+00 0.  1.
         12    1    6    6    0    0 -0.11673575979E+03 -0.28102005596E+02 -0.10654745573E+01  0.12007537453E+03  0.00000000000E+00 0. -1.
         -5    1    3    3    0  503 -0.35638782248E+02  0.30258192847E+02  0.16881804538E+02  0.49927611188E+02  0.47000000000E+01 0.  1.
         11    1    4    4    0    0  0.96673473850E+02 -0.26730518611E+01 -0.30310160640E+02  0.10134895949E+03  0.00000000000E+00 0. -1.
        -12    1    4    4    0    0 -0.46745150469E+01  0.12903063004E-01 -0.38020228118E+02  0.38306513853E+02  0.00000000000E+00 0.  1.
</event>
<event>
12    1  0.8196217E-002  0.2330490E+03  0.7818608E-02  0.1124938E+00
         21   -1    0    0  503  502  0.00000000000E+00  0.00000000000E+00  0.25285533523E+03  0.25285533523E+03  0.00000000000E+00 0.  1.
         21   -1    0    0  501  503 -0.00000000000E+00 -0.00000000000E+00 -0.35891564754E+03  0.35891564754E+03  0.00000000000E+00 0. -1.
          6    2    1    2  501    0 -0.10569216809E+03 -0.11509295258E+03 -0.24820280094E+03  0.33879421553E+03  0.16958675642E+03 0.  0.
         24    2    3    3    0    0 -0.32188920954E+02 -0.28578347051E+02 -0.41551962087E+02  0.10296766167E+03  0.83802895198E+02 0.  0.
         -6    2    1    2    0  502  0.10569216809E+03  0.11509295258E+03  0.14214248863E+03  0.27297676724E+03  0.17290056752E+03 0.  0.
        -24    2    5    5    0    0  0.10714605646E+03  0.23700361574E+02  0.54881865372E+02  0.14652034845E+03  0.80088755828E+02 0.  0.
          5    1    3    3  501    0 -0.73503247138E+02 -0.86514605525E+02 -0.20665083885E+03  0.23582655386E+03  0.47000000000E+01 0. -1.
        -13    1    4    4    0    0  0.21101224389E+02 -0.18424927460E+01  0.10663499109E+02  0.23714271304E+02  0.00000000000E+00 0.  1.
         14    1    4    4    0    0 -0.53290145343E+02 -0.26735854305E+02 -0.52215461195E+02  0.79253390362E+02  0.00000000000E+00 0. -1.
         -5    1    5    5    0  502 -0.14538883681E+01  0.91392591002E+02  0.87260623254E+02  0.12645641879E+03  0.47000000000E+01 0.  1.
         13    1    6    6    0    0 -0.12661935159E+02  0.66735818556E+01  0.99698429828E+01  0.17443023415E+02  0.00000000000E+00 0. -1.
        -14    1    6    6    0    0  0.11980799162E+03  0.17026779718E+02  0.44912022390E+02  0.12907732504E+03  0.00000000000E+00 0.  1.
</event>
<event>
12    1  0.8196217E-002  0.2398919E+03  0.7818608E-02  0.1120007E+00
         21   -1    0    0  501  502  0.00000000000E+00  0.00000000000E+00  0.43249093619E+03  0.43249093619E+03  0.00000000000E+00 0.  1.
         21   -1    0    0  502  503 -0.00000000000E+00 -0.00000000000E+00 -0.18740769395E+03  0.18740769395E+03  0.00000000000E+00 0.  1.
         -6    2    1    2    0  503 -0.36221265278E+02 -0.16169715598E+03 -0.44937040462E+02  0.24406448848E+03  0.17346523174E+03 0.  0.
        -24    2    3    3    0    0 -0.10999659094E+02 -0.16664529847E+03  0.86043356840E+01  0.18448779428E+03  0.77910613155E+02 0.  0.
          6    2    1    2  501    0  0.36221265278E+02  0.16169715598E+03  0.29002028270E+03  0.37583414167E+03  0.17228345060E+03 0.  0.
         24    2    5    5    0    0 -0.43469596126E+02  0.11364108046E+03  0.16513089880E+03  0.22001543933E+03  0.79590695746E+02 0.  0.
          5    1    5    5  501    0  0.79690861404E+02  0.48056075515E+02  0.12488938390E+03  0.15581870233E+03  0.47000000000E+01 0. -1.
        -13    1    6    6    0    0  0.74059404484E+01  0.86201514495E+02  0.85702450810E+02  0.12178037252E+03  0.00000000000E+00 0.  1.
         14    1    6    6    0    0 -0.50875536575E+02  0.27439565970E+02  0.79428447989E+02  0.98235066816E+02  0.00000000000E+00 0. -1.
         -5    1    3    3    0  503 -0.25221606184E+02  0.49481424908E+01 -0.53541376146E+02  0.59576694203E+02  0.47000000000E+01 0.  1.
         11    1    4    4    0    0  0.18049047669E+02 -0.60875261548E+01 -0.76266140613E+01  0.20518073459E+02  0.00000000000E+00 0. -1.
        -12    1    4    4    0    0 -0.29048706763E+02 -0.16055777232E+03  0.16230949745E+02  0.16396972082E+03  0.00000000000E+00 0.  1.
</event>
<event>
12    1  0.8196217E-002  0.1740519E+03  0.7818608E-02  0.1174031E+00
         21   -1    0    0  503  502  0.00000000000E+00  0.00000000000E+00  0.28010137261E+03  0.28010137261E+03  0.00000000000E+00 0.  1.
         21   -1    0    0  501  503 -0.00000000000E+00 -0.00000000000E+00 -0.37964027334E+03  0.37964027334E+03  0.00000000000E+00 0.  1.
          6    2    1    2  501    0  0.11485315672E+02  0.44955961891E+01 -0.32909840493E+03  0.37165897343E+03  0.17225710302E+03 0.  0.
         24    2    3    3    0    0 -0.36038613914E+02 -0.37617728905E+02 -0.12498564023E+03  0.15784558108E+03  0.81116841546E+02 0.  0.
         -6    2    1    2    0  502 -0.11485315672E+02 -0.44955961891E+01  0.22955950420E+03  0.28808267252E+03  0.17361433518E+03 0.  0.
        -24    2    5    5    0    0  0.14667689741E+01  0.10836013738E+02  0.21216126731E+02  0.78722056136E+02  0.75016448089E+02 0.  0.
          5    1    3    3  501    0  0.47523929586E+02  0.42113325094E+02 -0.20411276470E+03  0.21381339235E+03  0.47000000000E+01 0. -1.
        -13    1    4    4    0    0 -0.51993640254E+02 -0.20549618002E+02 -0.12211658249E+03  0.13430593861E+03  0.00000000000E+00 0.  1.
         14    1    4    4    0    0  0.15955026340E+02 -0.17068110903E+02 -0.28690577381E+01  0.23539642470E+02  0.00000000000E+00 0. -1.
         -5    1    5    5    0  502 -0.12952084647E+02 -0.15331609927E+02  0.20834337747E+03  0.20936061639E+03  0.47000000000E+01 0.  1.
         13    1    6    6    0    0  0.34927179018E+02  0.19751088471E+02  0.48352430359E+01  0.40415255847E+02  0.00000000000E+00 0. -1.
        -14    1    6    6    0    0 -0.33460410044E+02 -0.89150747337E+01  0.16380883695E+02  0.38306800290E+02  0.00000000000E+00 0.  1.
</event>
<event>
12    1  0.8196217E-002  0.2228367E+03  0.7818608E-02  0.1131859E+00
         21   -1    0    0  503  502  0.00000000000E+00  0.00000000000E+00  0.26134207657E+03  0.26134207657E+03  0.00000000000E+00 0.  1.
         21   -1    0    0  501  503 -0.00000000000E+00 -0.00000000000E+00 -0.23266754261E+03  0.23266754261E+03  0.00000000000E+00 0.  1.
          6    2    1    2  501    0 -0.34095261792E+02  0.13705221105E+03 -0.91862485444E+02  0.24066134493E+03  0.17185276046E+03 0.  0.
         24    2    3    3    0    0 -0.36251558999E+02  0.18432455458E+02  0.46911059643E+01  0.87625460086E+02  0.77474407620E+02 0.  0.
         -6    2    1    2    0  502  0.34095261792E+02 -0.13705221105E+03  0.12053701940E+03  0.25334827426E+03  0.17236699102E+03 0.  0.
        -24    2    5    5    0    0  0.50774639227E+02 -0.13526438065E+02  0.71402593591E+02  0.11928448338E+03  0.79808703093E+02 0.  0.
          5    1    3    3  501    0  0.21562972074E+01  0.11861975559E+03 -0.96553591409E+02  0.15303588484E+03  0.47000000000E+01 0. -1.
        -11    1    4    4    0    0 -0.25720723863E+02 -0.14522641851E+02 -0.27508333505E+02  0.40362992636E+02  0.00000000000E+00 0.  1.
         12    1    4    4    0    0 -0.10530835137E+02  0.32955097309E+02  0.32199439469E+02  0.47262467450E+02  0.00000000000E+00 0. -1.
         -5    1    5    5    0  502 -0.16679377435E+02 -0.12352577299E+03  0.49134425813E+02  0.13406379087E+03  0.47000000000E+01 0.  1.
         11    1    6    6    0    0 -0.18693520404E+02 -0.10311803855E+02  0.26834657070E+01  0.21517016337E+02  0.00000000000E+00 0. -1.
        -12    1    6    6    0    0  0.69468159631E+02 -0.32146342102E+01  0.68719127884E+02  0.97767467047E+02  0.00000000000E+00 0.  1.
</event>
<event>
12    1  0.8196217E-002  0.2063452E+03  0.7818608E-02  0.1147312E+00
         21   -1    0    0  501  502  0.00000000000E+00  0.00000000000E+00  0.93314841181E+02  0.93314841181E+02  0.00000000000E+00 0.  1.
         21   -1    0    0  502  503 -0.00000000000E+00 -0.00000000000E+00 -0.53389747172E+03  0.53389747172E+03  0.00000000000E+00 0.  1.
         -6    2    1    2    0  503  0.35278875434E+02 -0.78567338730E+02 -0.35457591714E+03  0.40366027499E+03  0.17262708602E+03 0.  0.
        -24    2    3    3    0    0  0.66348921814E+02 -0.92259488205E+02 -0.20064670175E+03  0.24596082639E+03  0.85578248449E+02 0.  0.
          6    2    1    2  501    0 -0.35278875434E+02  0.78567338730E+02 -0.86006713404E+02  0.22355203791E+03  0.18751248794E+03 0.  0.
         24    2    5    5    0    0 -0.62369841097E+02  0.28705605161E+02 -0.11717228418E+03  0.15864059287E+03  0.81996857735E+02 0.  0.
          5    1    5    5  501    0  0.27090965663E+02  0.49861733569E+02  0.31165570780E+02  0.64911445039E+02  0.47000000000E+01 0. -1.
        -13    1    6    6    0    0 -0.35235029538E+02 -0.19338313656E+02 -0.15726801153E+02  0.43160282160E+02  0.00000000000E+00 0.  1.
         14    1    6    6    0    0 -0.27134811559E+02  0.48043918818E+02 -0.10144548303E+03  0.11548031071E+03  0.00000000000E+00 0. -1.
         -5    1    3    3    0  503 -0.31070046380E+02  0.13692149475E+02 -0.15392921539E+03  0.15769944860E+03  0.47000000000E+01 0.  1.
         13    1    4    4    0    0  0.17014129860E+02 -0.68415980975E+02 -0.52192478551E+02  0.87717055839E+02  0.00000000000E+00 0. -1.
        -14    1    4    4    0    0  0.49334791954E+02 -0.23843507230E+02 -0.14845422319E+03  0.15824377055E+03  0.00000000000E+00 0.  1.
</event>
<event>
12    1  0.8196217E-002  0.3043885E+03  0.7818608E-02  0.1083917E+00
         21   -1    0    0  503  502  0.00000000000E+00  0.00000000000E+00  0.40743816728E+03  0.40743816728E+03  0.00000000000E+00 0. -1.
         21   -1    0    0  501  503 -0.00000000000E+00 -0.00000000000E+00 -0.21964733223E+04  0.21964733223E+04  0.00000000000E+00 0.  1.
          6    2    1    2  501    0 -0.13908134535E+03  0.19734675152E+03 -0.21298468958E+04  0.21514878913E+04  0.18537255956E+03 0.  0.
         24    2    3    3    0    0 -0.38587127756E+02  0.16561983774E+03 -0.10600249354E+04  0.10764777509E+04  0.78946738872E+02 0.  0.
         -6    2    1    2    0  502  0.13908134535E+03 -0.19734675152E+03  0.34081174074E+03  0.45242359832E+03  0.17391120931E+03 0.  0.
        -24    2    5    5    0    0  0.11311399394E+03 -0.20393205836E+03  0.34712738511E+03  0.42450143921E+03  0.72945118706E+02 0.  0.
          5    1    3    3  501    0 -0.10049421760E+03  0.31726913780E+02 -0.10698219604E+04  0.10750101403E+04  0.47000000000E+01 0. -1.
        -11    1    4    4    0    0 -0.21798084396E+02  0.94829013418E+02 -0.81763851144E+03  0.82340781734E+03  0.00000000000E+00 0.  1.
         12    1    4    4    0    0 -0.16789043360E+02  0.70790824326E+02 -0.24238642393E+03  0.25306993359E+03  0.00000000000E+00 0. -1.
         -5    1    5    5    0  502  0.25967351419E+02  0.65853068345E+01 -0.63156443672E+01  0.27922159114E+02  0.47000000000E+01 0.  1.
         11    1    6    6    0    0  0.12197289911E+03 -0.17558001024E+03  0.31550887214E+03  0.38111884828E+03  0.00000000000E+00 0. -1.
        -12    1    6    6    0    0 -0.88589051696E+01 -0.28352048114E+02  0.31618512968E+02  0.43382590925E+02  0.00000000000E+00 0.  1.
</event>
<event>
12    1  0.8196217E-002  0.2191700E+03  0.7818608E-02  0.1134734E+00
         21   -1    0    0  503  502  0.00000000000E+00  0.00000000000E+00  0.12760998382E+04  0.12760998382E+04  0.00000000000E+00 0.  1.
         21   -1    0    0  501  503 -0.00000000000E+00 -0.00000000000E+00 -0.38589452927E+02  0.38589452927E+02  0.00000000000E+00 0.  1.
          6    2    1    2  501    0  0.10926526521E+03  0.78696445615E+02  0.50660949666E+03  0.55198610628E+03  0.17292614227E+03 0.  0.
         24    2    3    3    0    0  0.30684000500E+02  0.78550304016E+02  0.16817376661E+03  0.20451543141E+03  0.80202791468E+02 0.  0.
         -6    2    1    2    0  502 -0.10926526521E+03 -0.78696445615E+02  0.73090088857E+03  0.76270318481E+03  0.17137097325E+03 0.  0.
        -24    2    5    5    0    0 -0.13311703382E+03 -0.12940045021E+02  0.47193617107E+03  0.49441672225E+03  0.61939940372E+02 0.  0.
          5    1    3    3  501    0  0.78581264708E+02  0.14614159924E+00  0.33843573005E+03  0.34747067487E+03  0.47000000000E+01 0. -1.
        -11    1    4    4    0    0  0.37891787742E+02  0.72263241153E+02  0.17478214643E+03  0.19289002647E+03  0.00000000000E+00 0.  1.
         12    1    4    4    0    0 -0.72077872418E+01  0.62870628634E+01 -0.66083798118E+01  0.11625404944E+02  0.00000000000E+00 0. -1.
         -5    1    5    5    0  502  0.23851768615E+02 -0.65756400595E+02  0.25896471750E+03  0.26828646256E+03  0.47000000000E+01 0.  1.
         11    1    6    6    0    0 -0.28459476832E+02  0.13417342166E+02  0.18888998291E+03  0.19149253911E+03  0.00000000000E+00 0. -1.
        -12    1    6    6    0    0 -0.10465755699E+03 -0.26357387187E+02  0.28304618816E+03  0.30292418314E+03  0.00000000000E+00 0.  1.
</event>
<event>
12    1  0.8196217E-002  0.2512712E+03  0.7818608E-02  0.1112715E+00
         21   -1    0    0  503  502  0.00000000000E+00  0.00000000000E+00  0.78056097580E+02  0.78056097580E+02  0.00000000000E+00 0.  1.
         21   -1    0    0  501  503 -0.00000000000E+00 -0.00000000000E+00 -0.83251269571E+03  0.83251269571E+03  0.00000000000E+00 0. -1.
          6    2    1    2  501    0  0.24631578191E+02 -0.17970212655E+03 -0.29283590020E+03  0.38499210006E+03  0.17194907306E+03 0.  0.
         24    2    3    3    0    0  0.27598924130E+02 -0.28004831794E+02 -0.18055143053E+03  0.19617799436E+03  0.65886380911E+02 0.  0.
         -6    2    1    2    0  502 -0.24631578191E+02  0.17970212655E+03 -0.46162069793E+03  0.52557669324E+03  0.17388968566E+03 0.  0.
        -24    2    5    5    0    0 -0.13871891087E+02  0.20658851239E+03 -0.40212227859E+03  0.45923816360E+03  0.79536916912E+02 0.  0.
          5    1    3    3  501    0 -0.29673459381E+01 -0.15169729476E+03 -0.11228446967E+03  0.18881410570E+03  0.47000000000E+01 0. -1.
        -13    1    4    4    0    0 -0.14178467373E+02 -0.29332547886E+02 -0.55851647410E+02  0.64659367619E+02  0.00000000000E+00 0.  1.
         14    1    4    4    0    0  0.41777391502E+02  0.13277160922E+01 -0.12469978311E+03  0.13151862674E+03  0.00000000000E+00 0. -1.
         -5    1    5    5    0  502 -0.10759687104E+02 -0.26886385839E+02 -0.59498419345E+02  0.66338529638E+02  0.47000000000E+01 0.  1.
         13    1    6    6    0    0 -0.13221905806E+02  0.52463187634E+02 -0.18653769048E+03  0.19422542269E+03  0.00000000000E+00 0. -1.
        -14    1    6    6    0    0 -0.64998528131E+00  0.15412532476E+03 -0.21558458811E+03  0.26501274091E+03  0.00000000000E+00 0.  1.
</event>
<event>
12    1  0.8196217E-002  0.1785776E+03  0.7818608E-02  0.1169548E+00
         21   -1    0    0  503  502  0.00000000000E+00  0.00000000000E+00  0.12918956695E+03  0.12918956695E+03  0.00000000000E+00 0. -1.
         21   -1    0    0  501  503 -0.00000000000E+00 -0.00000000000E+00 -0.35218372976E+03  0.35218372976E+03  0.00000000000E+00 0.  1.
          6    2    1    2  501    0 -0.84263397620E+01  0.34803670991E+02 -0.24406808479E+03  0.30155652773E+03  0.17344973534E+03 0.  0.
         24    2    3    3    0    0 -0.69140774473E+00  0.90273633858E+02 -0.15405379530E+03  0.19543674510E+03  0.79455286008E+02 0.  0.
         -6    2    1    2    0  502  0.84263397620E+01 -0.34803670991E+02  0.21073921975E+02  0.17981676899E+03  0.17495045443E+03 0.  0.
        -24    2    5    5    0    0  0.56727035261E+02 -0.68048732589E+02  0.11313494614E+02  0.12018835924E+03  0.80427980207E+02 0.  0.
          5    1    3    3  501    0 -0.77349320173E+01 -0.55469962867E+02 -0.90014289482E+02  0.10611978263E+03  0.47000000000E+01 0. -1.
        -13    1    4    4    0    0  0.27989445568E+02  0.39497719747E+02 -0.11628281191E+03  0.12595702154E+03  0.00000000000E+00 0.  1.
         14    1    4    4    0    0 -0.28680853313E+02  0.50775914111E+02 -0.37770983393E+02  0.69479723568E+02  0.00000000000E+00 0. -1.
         -5    1    5    5    0  502 -0.48300695499E+02  0.33245061598E+02  0.97604273615E+01  0.59628409744E+02  0.47000000000E+01 0.  1.
         11    1    6    6    0    0 -0.29808946888E+01 -0.36352214131E+02 -0.24254672209E+02  0.43802492273E+02  0.00000000000E+00 0. -1.
        -12    1    6    6    0    0  0.59707929950E+02 -0.31696518458E+02  0.35568166823E+02  0.76385866968E+02  0.00000000000E+00 0.  1.
</event>
<event>
12    1  0.8196217E-002  0.2725698E+03  0.7818608E-02  0.1099857E+00
         21   -1    0    0  501  502  0.00000000000E+00  0.00000000000E+00  0.66914478988E+03  0.66914478988E+03  0.00000000000E+00 0. -1.
         21   -1    0    0  502  503 -0.00000000000E+00 -0.00000000000E+00 -0.16368882395E+03  0.16368882395E+03  0.00000000000E+00 0.  1.
         -6    2    1    2    0  503  0.16235243976E+03 -0.13416398758E+03  0.16198617852E+02  0.27277374331E+03  0.17258281942E+03 0.  0.
        -24    2    3    3    0    0  0.17667603128E+03 -0.12159783432E+03  0.47945860831E+02  0.23545014597E+03  0.84483799179E+02 0.  0.
          6    2    1    2  501    0 -0.16235243976E+03  0.13416398758E+03  0.48925734807E+03  0.56005987052E+03  0.17302027532E+03 0.  0.
         24    2    5    5    0    0 -0.15366136856E+03  0.62082644996E+02  0.42320321001E+03  0.46179240988E+03  0.81763083723E+02 0.  0.
          5    1    5    5  501    0 -0.86910712051E+01  0.72081342584E+02  0.66054138058E+02  0.98267460647E+02  0.47000000000E+01 0. -1.
        -13    1    6    6    0    0 -0.28919708239E+02  0.20628457373E+02  0.27787919915E+02  0.45100457552E+02  0.00000000000E+00 0.  1.
         14    1    6    6    0    0 -0.12474166032E+03  0.41454187623E+02  0.39541529010E+03  0.41669195232E+03  0.00000000000E+00 0. -1.
         -5    1    3    3    0  503 -0.14323591519E+02 -0.12566153257E+02 -0.31747242979E+02  0.37323597341E+02  0.47000000000E+01 0.  1.
         13    1    4    4    0    0  0.48891413635E+01  0.72529321563E+01 -0.97459173826E+01  0.13095481425E+02  0.00000000000E+00 0. -1.
        -14    1    4    4    0    0  0.17178688992E+03 -0.12885076648E+03  0.57691778214E+02  0.22235466454E+03  0.00000000000E+00 0.  1.
</event>
<event>
12    1  0.8196217E-002  0.2350569E+03  0.7818608E-02  0.1123361E+00
         21   -1    0    0  501  502  0.00000000000E+00  0.00000000000E+00  0.45892897872E+02  0.45892897872E+02  0.00000000000E+00 0.  1.
         21   -1    0    0  502  503 -0.00000000000E+00 -0.00000000000E+00 -0.12662755830E+04  0.12662755830E+04  0.00000000000E+00 0.  1.
         -6    2    1    2    0  503 -0.15821530943E+03  0.27970433055E+02 -0.45512275238E+03  0.51162209507E+03  0.16972336069E+03 0.  0.
        -24    2    3    3    0    0 -0.10562947078E+02  0.18630369120E+02 -0.18196843996E+03  0.20093925793E+03  0.82494883048E+02 0.  0.
          6    2    1    2  501    0  0.15821530943E+03 -0.27970433055E+02 -0.76525993271E+03  0.80054638577E+03  0.17157308032E+03 0.  0.
         24    2    5    5    0    0  0.12694822596E+03  0.35782574374E+02 -0.61613481614E+03  0.63531180446E+03  0.81257199889E+02 0.  0.
          5    1    5    5  501    0  0.31267083473E+02 -0.63753007430E+02 -0.14912511657E+03  0.16523458130E+03  0.47000000000E+01 0. -1.
        -13    1    6    6    0    0  0.32616258995E+02  0.10624670765E+01 -0.33797595228E+03  0.33954777795E+03  0.00000000000E+00 0.  1.
         14    1    6    6    0    0  0.94331966961E+02  0.34720107298E+02 -0.27815886385E+03  0.29576402652E+03  0.00000000000E+00 0. -1.
         -5    1    3    3    0  503 -0.14765236235E+03  0.93400639347E+01 -0.27315431242E+03  0.31068283714E+03  0.47000000000E+01 0.  1.
         13    1    4    4    0    0  0.16371579820E+02 -0.50791079189E+01 -0.15526987321E+03  0.15621318603E+03  0.00000000000E+00 0. -1.
        -14    1    4    4    0    0 -0.26934526898E+02  0.23709477039E+02 -0.26698566755E+02  0.44726071898E+02  0.00000000000E+00 0.  1.
</event>
<event>
12    1  0.8196217E-002  0.1835901E+03  0.7818608E-02  0.1164711E+00
         21   -1    0    0  503  502  0.00000000000E+00  0.00000000000E+00  0.27800956640E+03  0.27800956640E+03  0.00000000000E+00 0.  1.
         21   -1    0    0  501  503 -0.00000000000E+00 -0.00000000000E+00 -0.29779562204E+03  0.29779562204E+03  0.00000000000E+00 0.  1.
          6    2    1    2  501    0  0.59880702353E+01 -0.62688869884E+02 -0.23217920192E+03  0.29599406877E+03  0.17245160349E+03 0.  0.
         24    2    3    3    0    0 -0.12350309299E+02 -0.10723392991E+03 -0.10900772998E+03  0.16365412757E+03  0.56994231389E+02 0.  0.
         -6    2    1    2    0  502 -0.59880702353E+01  0.62688869884E+02  0.21239314629E+03  0.27981111968E+03  0.17093174870E+03 0.  0.
        -24    2    5    5    0    0  0.33917284422E+02  0.95173875763E+02  0.17293916403E+03  0.21480020019E+03  0.77606202933E+02 0.  0.
          5    1    3    3  501    0  0.18338379535E+02  0.44545060021E+02 -0.12317147195E+03  0.13233994120E+03  0.47000000000E+01 0. -1.
        -11    1    4    4    0    0 -0.48664897947E+01 -0.23567449026E+01 -0.34172820398E+02  0.34597956925E+02  0.00000000000E+00 0.  1.
         12    1    4    4    0    0 -0.74838195047E+01 -0.10487718500E+03 -0.74834909580E+02  0.12905617064E+03  0.00000000000E+00 0. -1.
         -5    1    5    5    0  502 -0.39905354657E+02 -0.32485005879E+02  0.39453982253E+02  0.65010919490E+02  0.47000000000E+01 0.  1.
         13    1    6    6    0    0 -0.13108909085E+02  0.13663202778E+02  0.12044467651E+01  0.18973067743E+02  0.00000000000E+00 0. -1.
        -14    1    6    6    0    0  0.47026193507E+02  0.81510672985E+02  0.17173471727E+03  0.19582713244E+03  0.00000000000E+00 0.  1.
</event>
<event>
12    1  0.8196217E-002  0.2321025E+03  0.7818608E-02  0.1125688E+00
         21   -1    0    0  503  502  0.00000000000E+00  0.00000000000E+00  0.30211389289E+03  0.30211389289E+03  0.00000000000E+00 0.  1.
         21   -1    0    0  501  503 -0.00000000000E+00 -0.00000000000E+00 -0.18923475763E+03  0.18923475763E+03  0.00000000000E+00 0. -1.
          6    2    1    2  501    0 -0.15624725767E+03 -0.95452622568E+01 -0.87557425624E+01  0.22930553945E+03  0.16733215421E+03 0.  0.
         24    2    3    3    0    0 -0.46133405430E+02  0.23914221728E+02  0.41395112885E+02  0.10367992173E+03  0.79597673975E+02 0.  0.
         -6    2    1    2    0  502  0.15624725767E+03  0.95452622568E+01  0.12163487782E+03  0.26204311107E+03  0.17136869900E+03 0.  0.
        -24    2    5    5    0    0  0.14072223380E+03 -0.41058954208E+02  0.52342265197E+02  0.17471975077E+03  0.79364310488E+02 0.  0.
          5    1    3    3  501    0 -0.11011385224E+03 -0.33459483985E+02 -0.50150855448E+02  0.12562561772E+03  0.47000000000E+01 0. -1.
        -13    1    4    4    0    0  0.16635025317E+02  0.10920093523E+02 -0.92918261866E+01  0.21961569701E+02  0.00000000000E+00 0.  1.
         14    1    4    4    0    0 -0.62768430747E+02  0.12994128206E+02  0.50686939072E+02  0.81718352031E+02  0.00000000000E+00 0. -1.
         -5    1    5    5    0  502  0.15525023877E+02  0.50604216464E+02  0.69292612618E+02  0.87323360299E+02  0.47000000000E+01 0.  1.
         11    1    6    6    0    0  0.14800627466E+03 -0.38606600184E+02  0.59589335477E+02  0.16415607153E+03  0.00000000000E+00 0. -1.
        -12    1    6    6    0    0 -0.72840408651E+01 -0.24523540241E+01 -0.72470702792E+01  0.10563679246E+02  0.00000000000E+00 0.  1.
</event>
<event>
12    1  0.8196217E-002  0.1896986E+03  0.7818608E-02  0.1159171E+00
         21   -1    0    0  501  502  0.00000000000E+00  0.00000000000E+00  0.61388345894E+02  0.61388345894E+02  0.00000000000E+00 0. -1.
         21   -1    0    0  502  503 -0.00000000000E+00 -0.00000000000E+00 -0.58207820973E+03  0.58207820973E+03  0.00000000000E+00 0. -1.
         -6    2    1    2    0  503 -0.33398906797E+02 -0.68991838023E+02 -0.27962732276E+03  0.33790087221E+03  0.17352290661E+03 0.  0.
        -24    2    3    3    0    0 -0.74490416183E+01 -0.49365259893E+02 -0.28785568556E+03  0.30401290936E+03  0.84086480746E+02 0.  0.
          6    2    1    2  501    0  0.33398906797E+02  0.68991838023E+02 -0.24106254107E+03  0.30556568341E+03  0.17141726133E+03 0.  0.
         24    2    5    5    0    0  0.35044357093E+02  0.36927784241E+02 -0.25382453685E+03  0.27069779578E+03  0.79111522021E+02 0.  0.
          5    1    5    5  501    0 -0.16454502962E+01  0.32064053782E+02  0.12761995782E+02  0.34867887633E+02  0.47000000000E+01 0. -1.
        -11    1    6    6    0    0 -0.20004518193E+02 -0.69549515722E+01 -0.88680499586E+02  0.91174465210E+02  0.00000000000E+00 0.  1.
         12    1    6    6    0    0  0.55048875286E+02  0.43882735813E+02 -0.16514403727E+03  0.17952333057E+03  0.00000000000E+00 0. -1.
         -5    1    3    3    0  503 -0.25949865179E+02 -0.19626578130E+02  0.82283627968E+01  0.33887962851E+02  0.47000000000E+01 0.  1.
         11    1    4    4    0    0  0.28043148136E+02 -0.42767922203E+02 -0.95824164397E+02  0.10861760359E+03  0.00000000000E+00 0. -1.
        -12    1    4    4    0    0 -0.35492189755E+02 -0.65973376905E+01 -0.19203152116E+03  0.19539530577E+03  0.00000000000E+00 0.  1.
</event>
<event>
12    1  0.8196217E-002  0.2547915E+03  0.7818608E-02  0.1110516E+00
         21   -1    0    0  501  502  0.00000000000E+00  0.00000000000E+00  0.18926382754E+04  0.18926382754E+04  0.00000000000E+00 0. -1.
         21   -1    0    0  502  503 -0.00000000000E+00 -0.00000000000E+00 -0.12355456994E+03  0.12355456994E+03  0.00000000000E+00 0.  1.
         -6    2    1    2    0  503  0.25510433474E+02  0.18400778762E+03  0.27513798764E+02  0.25627271105E+03  0.17438189466E+03 0.  0.
        -24    2    3    3    0    0 -0.37474973444E+02  0.16726487787E+03  0.13945824730E+02  0.18953691532E+03  0.79673353381E+02 0.  0.
          6    2    1    2  501    0 -0.25510433474E+02 -0.18400778762E+03  0.17415699067E+04  0.17599201343E+04  0.17246301357E+03 0.  0.
         24    2    5    5    0    0 -0.25026075894E+01 -0.36481527725E+02  0.10253186458E+04  0.10282567444E+04  0.68530591794E+02 0.  0.
          5    1    5    5  501    0 -0.23007825885E+02 -0.14752625989E+03  0.71625126089E+03  0.73166338991E+03  0.47000000000E+01 0. -1.
        -11    1    6    6    0    0  0.23009035949E+02  0.73862426914E+01  0.21574301103E+03  0.21709219039E+03  0.00000000000E+00 0.  1.
         12    1    6    6    0    0 -0.25511643538E+02 -0.43867770416E+02  0.80957563478E+03  0.81116455400E+03  0.00000000000E+00 0. -1.
         -5    1    3    3    0  503  0.62985406918E+02  0.16742909746E+02  0.13567974034E+02  0.66735795723E+02  0.47000000000E+01 0.  1.
         13    1    4    4    0    0  0.22428832508E+02  0.25130161778E+02 -0.53015975176E+01  0.34098159700E+02  0.00000000000E+00 0. -1.
        -14    1    4    4    0    0 -0.59903805952E+02  0.14213471609E+03  0.19247422248E+02  0.15543875562E+03  0.00000000000E+00 0.  1.
</event>
<event>
12    1  0.8196217E-002  0.1894277E+03  0.7818608E-02  0.1159158E+00
         21   -1    0    0  501  502  0.00000000000E+00  0.00000000000E+00  0.67653485003E+03  0.67653485003E+03  0.00000000000E+00 0.  1.
         21   -1    0    0  502  503 -0.00000000000E+00 -0.00000000000E+00 -0.14876807523E+03  0.14876807523E+03  0.00000000000E+00 0.  1.
         -6    2    1    2    0  503 -0.42526426070E+02  0.64839327757E+02 -0.67319773884E+02  0.20103436700E+03  0.17283005937E+03 0.  0.
        -24    2    3    3    0    0  0.32825780358E+02  0.24331482990E+02 -0.71374204510E+02  0.11525926042E+03  0.80751886182E+02 0.  0.
          6    2    1    2  501    0  0.42526426070E+02 -0.64839327757E+02  0.59508654868E+03  0.62426855826E+03  0.17196103357E+03 0.  0.
         24    2    5    5    0    0  0.11849354877E+02 -0.85068233497E+01  0.51521921524E+03  0.52172434973E+03  0.80825021505E+02 0.  0.
          5    1    5    5  501    0  0.30677071193E+02 -0.56332504407E+02  0.79867333449E+02  0.10254420853E+03  0.47000000000E+01 0. -1.
        -11    1    6    6    0    0 -0.24673481608E+00 -0.40667380219E+02  0.16988172202E+03  0.17468169958E+03  0.00000000000E+00 0.  1.
         12    1    6    6    0    0  0.12096089693E+02  0.32160556869E+02  0.34533749321E+03  0.34704265015E+03  0.00000000000E+00 0. -1.
         -5    1    3    3    0  503 -0.75352206428E+02  0.40507844767E+02  0.40544306259E+01  0.85775106581E+02  0.47000000000E+01 0.  1.
         11    1    4    4    0    0 -0.10795123381E+02 -0.16331564920E+02  0.31325334699E+01  0.19825929171E+02  0.00000000000E+00 0. -1.
        -12    1    4    4    0    0  0.43620903740E+02  0.40663047910E+02 -0.74506737980E+02  0.95433331247E+02  0.00000000000E+00 0.  1.
</event>
<event>
12    1  0.8196217E-002  0.1747398E+03  0.7818608E-02  0.1173035E+00
         21   -1    0    0  501  502  0.00000000000E+00  0.00000000000E+00  0.24777293854E+02  0.24777293854E+02  0.00000000000E+00 0. -1.
         21   -1    0    0  502  503 -0.00000000000E+00 -0.00000000000E+00 -0.17869031945E+04  0.17869031945E+04  0.00000000000E+00 0. -1.
         -6    2    1    2    0  503 -0.20385748258E+02 -0.17493684041E+02 -0.37618173064E+03  0.41478513212E+03  0.17266268748E+03 0.  0.
        -24    2    3    3    0    0  0.35703077226E+02 -0.57626969609E+02 -0.25322933575E+03  0.27373188557E+03  0.78793853450E+02 0.  0.
          6    2    1    2  501    0  0.20385748258E+02  0.17493684041E+02 -0.13859441700E+04  0.13968953562E+04  0.17249285833E+03 0.  0.
         24    2    5    5    0    0 -0.64896009621E+01  0.46107170600E+02 -0.41726477053E+03  0.42740946929E+03  0.80006122345E+02 0.  0.
          5    1    5    5  501    0  0.26875349220E+02 -0.28613486559E+02 -0.96867939948E+03  0.96948588694E+03  0.47000000000E+01 0. -1.
        -13    1    6    6    0    0  0.29784894981E+01  0.67508673923E+02 -0.34115643863E+03  0.34778442759E+03  0.00000000000E+00 0.  1.
         14    1    6    6    0    0 -0.94680904602E+01 -0.21401503323E+02 -0.76108331899E+02  0.79625041701E+02  0.00000000000E+00 0. -1.
         -5    1    3    3    0  503 -0.56088825484E+02  0.40133285568E+02 -0.12295239488E+03  0.14105324655E+03  0.47000000000E+01 0.  1.
         11    1    4    4    0    0 -0.10883811368E+02 -0.38984473313E+00 -0.10103146535E+01  0.10937552949E+02  0.00000000000E+00 0. -1.
        -12    1    4    4    0    0  0.46586888594E+02 -0.57237124876E+02 -0.25221902110E+03  0.26279433262E+03  0.00000000000E+00 0.  1.
</event>
<event>
12    1  0.8196217E-002  0.2082404E+03  0.7818608E-02  0.1143092E+00
         21   -1    0    0  501  502  0.00000000000E+00  0.00000000000E+00  0.42020847086E+03  0.42020847086E+03  0.00000000000E+00 0.  1.
         21   -1    0    0  502  503 -0.00000000000E+00 -0.00000000000E+00 -0.12375667283E+03  0.12375667283E+03  0.00000000000E+00 0.  1.
         -6    2    1    2    0  503 -0.63869203576E+02  0.96918782545E+02  0.36721735052E+02  0.21145337458E+03  0.17289163721E+03 0.  0.
        -24    2    3    3    0    0 -0.78555121402E+02  0.81152707453E+02  0.81947988863E+02  0.16113688285E+03  0.80578862670E+02 0.  0.
          6    2    1    2  501    0  0.63869203576E+02 -0.96918782545E+02  0.25973006298E+03  0.33251176912E+03  0.17213902932E+03 0.  0.
         24    2    5    5    0    0 -0.83984629428E+01 -0.31803367026E+02  0.20054153017E+03  0.21854683865E+03  0.80397929233E+02 0.  0.
          5    1    5    5  501    0  0.72267666519E+02 -0.65115415519E+02  0.59188532806E+02  0.11396493047E+03  0.47000000000E+01 0. -1.
        -13    1    6    6    0    0  0.53704863846E+01  0.13829522341E+02  0.14326647541E+03  0.14403256850E+03  0.00000000000E+00 0.  1.
         14    1    6    6    0    0 -0.13768949327E+02 -0.45632889367E+02  0.57275054761E+02  0.74514270146E+02  0.00000000000E+00 0. -1.
         -5    1    3    3    0  503  0.14685917826E+02  0.15766075092E+02 -0.45226253811E+02  0.50316491729E+02  0.47000000000E+01 0.  1.
         13    1    4    4    0    0 -0.61163790353E+01 -0.16241484047E+02  0.96669305393E+01  0.19865685052E+02  0.00000000000E+00 0. -1.
        -14    1    4    4    0    0 -0.72438742367E+02  0.97394191500E+02  0.72281058324E+02  0.14127119779E+03  0.00000000000E+00 0.  1.
</event>
<event>
12    1  0.8196217E-002  0.1756848E+03  0.7818608E-02  0.1172389E+00
         21   -1    0    0  503  502  0.00000000000E+00  0.00000000000E+00  0.66138967661E+03  0.66138967661E+03  0.00000000000E+00 0.  1.
         21   -1    0    0  501  503 -0.00000000000E+00 -0.00000000000E+00 -0.78148847153E+02  0.78148847153E+02  0.00000000000E+00 0.  1.
          6    2    1    2  501    0  0.42969461924E+01 -0.28832738175E+02  0.54907989166E+02  0.18276142343E+03  0.17186349259E+03 0.  0.
         24    2    3    3    0    0 -0.50098530483E+02 -0.52570518744E+02  0.59183050808E+02  0.12307292989E+03  0.79817231046E+02 0.  0.
         -6    2    1    2    0  502 -0.42969461924E+01  0.28832738175E+02  0.52833284029E+03  0.55677710033E+03  0.17324941208E+03 0.  0.
        -24    2    5    5    0    0  0.62957731862E+02  0.22012367673E+02  0.37267202146E+03  0.38700640294E+03  0.80257709939E+02 0.  0.
          5    1    3    3  501    0  0.54395476675E+02  0.23737780568E+02 -0.42750616418E+01  0.59688493540E+02  0.47000000000E+01 0. -1.
        -11    1    4    4    0    0  0.21250165454E+02 -0.20958392083E+02  0.15219530667E+02  0.33503102009E+02  0.00000000000E+00 0.  1.
         12    1    4    4    0    0 -0.71348695937E+02 -0.31612126661E+02  0.43963520141E+02  0.89569827883E+02  0.00000000000E+00 0. -1.
         -5    1    5    5    0  502 -0.67254678055E+02  0.68203705020E+01  0.15566081884E+03  0.16977069740E+03  0.47000000000E+01 0.  1.
         13    1    6    6    0    0  0.15137630879E+02 -0.29295506334E+02  0.14855941220E+03  0.15217514092E+03  0.00000000000E+00 0. -1.
        -14    1    6    6    0    0  0.47820100983E+02  0.51307874007E+02  0.22411260926E+03  0.23483126202E+03  0.00000000000E+00 0.  1.
</event>
<event>
12    1  0.8196217E-002  0.1829044E+03  0.7818608E-02  0.1165828E+00
         21   -1    0    0  503  502  0.00000000000E+00  0.00000000000E+00  0.57122026384E+02  0.57122026384E+02  0.00000000000E+00 0.  1.
         21   -1    0    0  501  503 -0.00000000000E+00 -0.00000000000E+00 -0.68880788766E+03  0.68880788766E+03  0.00000000000E+00 0.  1.
          6    2    1    2  501    0 -0.11113405708E+02 -0.51225315816E+02 -0.46994845841E+03  0.50428718823E+03  0.17523262793E+03 0.  0.
         24    2    3    3    0    0  0.31070658900E+01 -0.21564894341E+02 -0.46301013447E+03  0.47034322333E+03  0.79810178454E+02 0.  0.
         -6    2    1    2    0  502  0.11113405708E+02  0.51225315816E+02 -0.16173740287E+03  0.24164272581E+03  0.17171103250E+03 0.  0.
        -24    2    5    5    0    0 -0.23134699147E-01  0.99734278322E+01 -0.17685407054E+03  0.19607580320E+03  0.84076682474E+02 0.  0.
          5    1    3    3  501    0 -0.14220471598E+02 -0.29660421475E+02 -0.69383239424E+01  0.33943964908E+02  0.47000000000E+01 0. -1.
        -13    1    4    4    0    0 -0.33339736096E+02 -0.10966881506E+02 -0.11413536582E+03  0.11940976603E+03  0.00000000000E+00 0.  1.
         14    1    4    4    0    0  0.36446801986E+02 -0.10598012835E+02 -0.34887476865E+03  0.35093345730E+03  0.00000000000E+00 0. -1.
         -5    1    5    5    0  502  0.11136540407E+02  0.41251887984E+02  0.15116667673E+02  0.45566922609E+02  0.47000000000E+01 0.  1.
         11    1    6    6    0    0 -0.32746333869E+02 -0.21188986738E+02 -0.71663010439E+02  0.81589721203E+02  0.00000000000E+00 0. -1.
        -12    1    6    6    0    0  0.32723199170E+02  0.31162414570E+02 -0.10519106010E+03  0.11448608200E+03  0.00000000000E+00 0.  1.
</event>
<event>
12    1  0.8196217E-002  0.2260115E+03  0.7818608E-02  0.1129498E+00
         21   -1    0    0  503  502  0.00000000000E+00  0.00000000000E+00  0.19578609526E+03  0.19578609526E+03  0.00000000000E+00 0.  1.
         21   -1    0    0  501  503 -0.00000000000E+00 -0.00000000000E+00 -0.11367265499E+04  0.11367265499E+04  0.00000000000E+00 0.  1.
          6    2    1    2  501    0  0.12193909771E+03  0.80467512106E+02 -0.10553052372E+04  0.10792134471E+04  0.17230309526E+03 0.  0.
         24    2    3    3    0    0  0.48881023411E+02  0.20588867133E+02 -0.81764277028E+03  0.82342354789E+03  0.81690779952E+02 0.  0.
         -6    2    1    2    0  502 -0.12193909771E+03 -0.80467512106E+02  0.11436478252E+03  0.25329919812E+03  0.17244424093E+03 0.  0.
        -24    2    5    5    0    0 -0.25887551680E+02 -0.96654351224E+02  0.61839121660E+02  0.14253391338E+03  0.80496028174E+02 0.  0.
          5    1    3    3  501    0  0.73058074295E+02  0.59878644973E+02 -0.23766246693E+03  0.25578989920E+03  0.47000000000E+01 0. -1.
        -13    1    4    4    0    0  0.41069974188E+02 -0.25015688545E+02 -0.31414839377E+03  0.31780771036E+03  0.00000000000E+00 0.  1.
         14    1    4    4    0    0  0.78110492228E+01  0.45604555678E+02 -0.50349437651E+03  0.50561583753E+03  0.00000000000E+00 0. -1.
         -5    1    5    5    0  502 -0.96051546027E+02  0.16186839118E+02  0.52525660860E+02  0.11076528474E+03  0.47000000000E+01 0.  1.
         11    1    6    6    0    0  0.27618299209E+02 -0.17523934291E+02  0.19195076746E+02  0.37925053665E+02  0.00000000000E+00 0. -1.
        -12    1    6    6    0    0 -0.53505850888E+02 -0.79130416932E+02  0.42644044914E+02  0.10460885971E+03  0.00000000000E+00 0.  1.
</event>
<event>
12    1  0.8196217E-002  0.2531328E+03  0.7818608E-02  0.1111464E+00
         21   -1    0    0  501  502  0.00000000000E+00  0.00000000000E+00  0.38250464284E+02  0.38250464284E+02  0.00000000000E+00 0. -1.
         21   -1    0    0  502  503 -0.00000000000E+00 -0.00000000000E+00 -0.17029792507E+04  0.17029792507E+04  0.00000000000E+00 0.  1.
         -6    2    1    2    0  503 -0.18518923512E+03 -0.13041745325E+02 -0.95235346077E+03  0.98521726387E+03  0.17091168147E+03 0.  0.
        -24    2    3    3    0    0 -0.99813544290E+02 -0.59679651740E+02 -0.71336545455E+03  0.72714467715E+03  0.79528015879E+02 0.  0.
          6    2    1    2  501    0  0.18518923512E+03  0.13041745325E+02 -0.71237532567E+03  0.75601245113E+03  0.17207870794E+03 0.  0.
         24    2    5    5    0    0  0.36213530829E+02  0.55193130964E+02 -0.21148145579E+03  0.23171553272E+03  0.67896836737E+02 0.  0.
          5    1    5    5  501    0  0.14897570429E+03 -0.42151385640E+02 -0.50089386988E+03  0.52429691842E+03  0.47000000000E+01 0. -1.
        -11    1    6    6    0    0  0.18289741671E+01  0.36928164267E+01  0.50416482968E+01  0.65115479891E+01  0.00000000000E+00 0.  1.
         12    1    6    6    0    0  0.34384556662E+02  0.51500314538E+02 -0.21652310409E+03  0.22520398473E+03  0.00000000000E+00 0. -1.
         -5    1    3    3    0  503 -0.85375690827E+02  0.46637906416E+02 -0.23898800623E+03  0.25807258672E+03  0.47000000000E+01 0.  1.
         11    1    4    4    0    0  0.47494475639E+01 -0.30192229168E+02 -0.20799889480E+03  0.21023241470E+03  0.00000000000E+00 0. -1.
        -12    1    4    4    0    0 -0.10456299185E+03 -0.29487422572E+02 -0.50536655975E+03  0.51691226244E+03  0.00000000000E+00 0.  1.
</event>
<event>
12    1  0.8196217E-002  0.1750774E+03  0.7818608E-02  0.1173241E+00
         21   -1    0    0  501  502  0.00000000000E+00  0.00000000000E+00  0.21229909546E+03  0.21229909546E+03  0.00000000000E+00 0.  1.
         21   -1    0    0  502  503 -0.00000000000E+00 -0.00000000000E+00 -0.18017267132E+03  0.18017267132E+03  0.00000000000E+00 0.  1.
         -6    2    1    2    0  503  0.22780211569E+02  0.10299940090E+02 -0.73786892484E+02  0.18785081271E+03  0.17093389227E+03 0.  0.
        -24    2    3    3    0    0 -0.23243006018E+02 -0.20131820844E+02 -0.30357252751E+01  0.98006245306E+02  0.93007961766E+02 0.  0.
          6    2    1    2  501    0 -0.22780211569E+02 -0.10299940090E+02  0.10591331662E+03  0.20462095407E+03  0.17328322886E+03 0.  0.
         24    2    5    5    0    0 -0.58609380088E+02 -0.28139985082E+02  0.12458297985E+02  0.10284705256E+03  0.78710792376E+02 0.  0.
          5    1    5    5  501    0  0.35829168519E+02  0.17840044991E+02  0.93455018631E+02  0.10177390151E+03  0.47000000000E+01 0. -1.
        -13    1    6    6    0    0 -0.27171396586E+02  0.15355280323E+01  0.42312473793E+02  0.50308926417E+02  0.00000000000E+00 0.  1.
         14    1    6    6    0    0 -0.31437983502E+02 -0.29675513114E+02 -0.29854175807E+02  0.52538126140E+02  0.00000000000E+00 0. -1.
         -5    1    3    3    0  503  0.46023217587E+02  0.30431760934E+02 -0.70751167209E+02  0.89844567404E+02  0.47000000000E+01 0.  1.
         11    1    4    4    0    0 -0.89555972019E+00  0.35419902800E+02  0.98129295784E+01  0.36764998688E+02  0.00000000000E+00 0. -1.
        -12    1    4    4    0    0 -0.22347446297E+02 -0.55551723644E+02 -0.12848654854E+02  0.61241246618E+02  0.00000000000E+00 0.  1.
</event>
<event>
12    1  0.8196217E-002  0.3069527E+03  0.7818608E-02  0.1082088E+00
         21   -1    0    0  503  502  0.00000000000E+00  0.00000000000E+00  0.56844346194E+03  0.56844346194E+03  0.00000000000E+00 0.  1.
         21   -1    0    0  501  503 -0.00000000000E+00 -0.00000000000E+00 -0.17532984044E+03  0.17532984044E+03  0.00000000000E+00 0. -1.
          6    2    1    2  501    0 -0.21823001131E+03 -0.12575253317E+03  0.10364999879E+03  0.32186200194E+03  0.17150448568E+03 0.  0.
         24    2    3    3    0    0 -0.68427521557E+02 -0.16823848773E+02  0.83315144961E+02  0.13547036989E+03  0.80283498574E+02 0.  0.
         -6    2    1    2    0  502  0.21823001131E+03  0.12575253317E+03  0.28946362271E+03  0.42191130044E+03  0.17544776755E+03 0.  0.
        -24    2    5    5    0    0  0.12181480200E+03  0.14601864371E+03  0.18065487770E+03  0.27505068349E+03  0.82803401833E+02 0.  0.
          5    1    3    3  501    0 -0.14980248975E+03 -0.10892868439E+03  0.20334853829E+02  0.18639163205E+03  0.47000000000E+01 0. -1.
        -11    1    4    4    0    0 -0.16549246771E+01  0.20039979752E+02 -0.29481525511E+01  0.20323168247E+02  0.00000000000E+00 0.  1.
         12    1    4    4    0    0 -0.66772596880E+02 -0.36863828525E+02  0.86263297512E+02  0.11514720164E+03  0.00000000000E+00 0. -1.
         -5    1    5    5    0  502  0.96415209308E+02 -0.20266110540E+02  0.10880874501E+03  0.14686061696E+03  0.47000000000E+01 0.  1.
         13    1    6    6    0    0  0.12177354596E+03  0.97623006890E+02  0.11685475066E+03  0.19497199984E+03  0.00000000000E+00 0. -1.
        -14    1    6    6    0    0  0.41256039896E-01  0.48395636816E+02  0.63800127034E+02  0.80078683646E+02  0.00000000000E+00 0.  1.
</event>
<event>
12    1  0.8196217E-002  0.2108788E+03  0.7818608E-02  0.1141004E+00
         21   -1    0    0  503  502  0.00000000000E+00  0.00000000000E+00  0.51987612166E+02  0.51987612166E+02  0.00000000000E+00 0. -1.
         21   -1    0    0  501  503 -0.00000000000E+00 -0.00000000000E+00 -0.98544470765E+03  0.98544470765E+03  0.00000000000E+00 0. -1.
          6    2    1    2  501    0  0.11815142753E+03  0.25464891485E+02 -0.65647742283E+03  0.68931220744E+03  0.17198980235E+03 0.  0.
         24    2    3    3    0    0  0.51201779974E+02  0.57429623284E+02 -0.21566627191E+03  0.24227690664E+03  0.79160436754E+02 0.  0.
         -6    2    1    2    0  502 -0.11815142753E+03 -0.25464891485E+02 -0.27697967266E+03  0.34812011238E+03  0.17280524603E+03 0.  0.
        -24    2    5    5    0    0 -0.71375900618E+02  0.47558844050E+02 -0.19579449421E+03  0.22923555044E+03  0.82807552712E+02 0.  0.
          5    1    3    3  501    0  0.66949647551E+02 -0.31964731799E+02 -0.44081115092E+03  0.44703530080E+03  0.47000000000E+01 0. -1.
        -13    1    4    4    0    0  0.57167613251E+02  0.87228251840E+01 -0.85990462804E+02  0.10362713630E+03  0.00000000000E+00 0.  1.
         14    1    4    4    0    0 -0.59658332769E+01  0.48706798100E+02 -0.12967580911E+03  0.13864977034E+03  0.00000000000E+00 0. -1.
         -5    1    5    5    0  502 -0.46775526907E+02 -0.73023735535E+02 -0.81185178453E+02  0.11888456195E+03  0.47000000000E+01 0.  1.
         11    1    6    6    0    0 -0.89372811516E+02  0.30609015532E+02 -0.15310839905E+03  0.17990717921E+03  0.00000000000E+00 0. -1.
        -12    1    6    6    0    0  0.17996910897E+02  0.16949828518E+02 -0.42686095155E+02  0.49328371230E+02  0.00000000000E+00 0.  1.
</event>
<event>
12    1  0.8196217E-002  0.2034923E+03  0.7818608E-02  0.1147151E+00
         21   -1    0    0  503  502  0.00000000000E+00  0.00000000000E+00  0.46877129462E+03  0.46877129462E+03  0.00000000000E+00 0. -1.
         21   -1    0    0  501  503 -0.00000000000E+00 -0.00000000000E+00 -0.98378373720E+02  0.98378373720E+02  0.00000000000E+00 0. -1.
          6    2    1    2  501    0 -0.70293973374E+02  0.78431660926E+02  0.27946465334E+03  0.34570164169E+03  0.17411595124E+03 0.  0.
         24    2    3    3    0    0  0.22491801923E+02  0.68561485374E+02  0.16881342404E+03  0.20088311730E+03  0.81544443402E+02 0.  0.
         -6    2    1    2    0  502  0.70293973374E+02 -0.78431660926E+02  0.90928267567E+02  0.22144802665E+03  0.17227452086E+03 0.  0.
        -24    2    5    5    0    0 -0.20914449177E+02 -0.62406126704E+02  0.18431032248E+02  0.10374614383E+03  0.78048834551E+02 0.  0.
          5    1    3    3  501    0 -0.92785775296E+02  0.98701755520E+01  0.11065122929E+03  0.14481852439E+03  0.47000000000E+01 0. -1.
        -11    1    4    4    0    0  0.80553151821E+01 -0.18126203802E+02  0.43680815838E+02  0.47973545202E+02  0.00000000000E+00 0.  1.
         12    1    4    4    0    0  0.14436486740E+02  0.86687689175E+02  0.12513260820E+03  0.15290957210E+03  0.00000000000E+00 0. -1.
         -5    1    5    5    0  502  0.91208422550E+02 -0.16025534221E+02  0.72497235319E+02  0.11770188282E+03  0.47000000000E+01 0.  1.
         13    1    6    6    0    0 -0.49890028065E+01 -0.52659261402E+02  0.46235713077E+02  0.70254032796E+02  0.00000000000E+00 0. -1.
        -14    1    6    6    0    0 -0.15925446370E+02 -0.97468653020E+01 -0.27804680829E+02  0.33492111031E+02  0.00000000000E+00 0.  1.
</event>
<event>
12    1  0.8196217E-002  0.2078919E+03  0.7818608E-02  0.1144140E+00
         21   -1    0    0  503  502  0.00000000000E+00  0.00000000000E+00  0.17802693628E+03  0.17802693628E+03  0.00000000000E+00 0.  1.
         21   -1    0    0  501  503 -0.00000000000E+00 -0.00000000000E+00 -0.24653370350E+03  0.24653370350E+03  0.00000000000E+00 0. -1.
          6    2    1    2  501    0 -0.10751441833E+03  0.14127536299E+02  0.63984420633E+01  0.20358587436E+03  0.17218400258E+03 0.  0.
         24    2    3    3    0    0  0.74976048227E+01  0.24442725429E+02  0.49445450145E+02  0.80259869385E+02  0.57819833875E+02 0.  0.
         -6    2    1    2    0  502  0.10751441833E+03 -0.14127536299E+02 -0.74905209280E+02  0.22097476542E+03  0.17737000633E+03 0.  0.
        -24    2    5    5    0    0  0.11553588600E+03 -0.80077870123E+01 -0.11383024533E+03  0.18048966068E+03  0.78781515939E+02 0.  0.
          5    1    3    3  501    0 -0.11501202316E+03 -0.10315189130E+02 -0.43047008081E+02  0.12332600497E+03  0.47000000000E+01 0. -1.
        -11    1    4    4    0    0 -0.25275835608E+02  0.12674713239E+02  0.24649165010E+02  0.37511299058E+02  0.00000000000E+00 0.  1.
         12    1    4    4    0    0  0.32773440430E+02  0.11768012190E+02  0.24796285135E+02  0.42748570328E+02  0.00000000000E+00 0. -1.
         -5    1    5    5    0  502 -0.80214676688E+01 -0.61197492867E+01  0.38925036048E+02  0.40485104745E+02  0.47000000000E+01 0.  1.
         13    1    6    6    0    0  0.21331934754E+02 -0.44918715299E+01 -0.75741343707E+02  0.78816111911E+02  0.00000000000E+00 0. -1.
        -14    1    6    6    0    0  0.94203951248E+02 -0.35159154824E+01 -0.38088901621E+02  0.10167354877E+03  0.00000000000E+00 0.  1.
</event>
<event>
12    1  0.8196217E-002  0.2463053E+03  0.7818608E-02  0.1115827E+00
         21   -1    0    0  503  502  0.00000000000E+00  0.00000000000E+00  0.11403816098E+04  0.11403816098E+04  0.00000000000E+00 0.  1.
         21   -1    0    0  501  503 -0.00000000000E+00 -0.00000000000E+00 -0.64531817612E+02  0.64531817612E+02  0.00000000000E+00 0. -1.
          6    2    1    2  501    0  0.17647378405E+03  0.14774987205E+02  0.28208597125E+03  0.37381337800E+03  0.16971343404E+03 0.  0.
         24    2    3    3    0    0  0.18516105325E+02 -0.18123023817E+02  0.77766690803E+02  0.11342642411E+03  0.78400289148E+02 0.  0.
         -6    2    1    2    0  502 -0.17647378405E+03 -0.14774987205E+02  0.79376382091E+03  0.83110004938E+03  0.17118700883E+03 0.  0.
        -24    2    5    5    0    0 -0.12917381174E+03 -0.10310336566E+02  0.75300430432E+03  0.76832546314E+03  0.80723963581E+02 0.  0.
          5    1    3    3  501    0  0.15795767872E+03  0.32898011023E+02  0.20431928045E+03  0.26038695390E+03  0.47000000000E+01 0. -1.
        -11    1    4    4    0    0 -0.94772482755E+01  0.19729617752E+02  0.58673062403E+02  0.62622713957E+02  0.00000000000E+00 0.  1.
         12    1    4    4    0    0  0.27993353600E+02 -0.37852641569E+02  0.19093628400E+02  0.50803710150E+02  0.00000000000E+00 0. -1.
         -5    1    5    5    0  502 -0.47299972307E+02 -0.44646506398E+01  0.40759516583E+02  0.62774586240E+02  0.47000000000E+01 0.  1.
         13    1    6    6    0    0 -0.12754785617E+03 -0.91303550589E+01  0.52628926504E+03  0.54160152280E+03  0.00000000000E+00 0. -1.
        -14    1    6    6    0    0 -0.16259555757E+01 -0.11799815068E+01  0.22671503928E+03  0.22672394034E+03  0.00000000000E+00 0.  1.
</event>
<event>
12    1  0.8196217E-002  0.2221125E+03  0.7818608E-02  0.1132449E+00
         21   -1    0    0  503  502  0.00000000000E+00  0.00000000000E+00  0.27999305935E+03  0.27999305935E+03  0.00000000000E+00 0.  1.
         21   -1    0    0  501  503 -0.00000000000E+00 -0.00000000000E+00 -0.27531800615E+03  0.27531800615E+03  0.00000000000E+00 0. -1.
          6    2    1    2  501    0  0.57939754441E+02  0.12659771494E+03 -0.16473790772E+03  0.27596415506E+03  0.17214424203E+03 0.  0.
         24    2    3    3    0    0  0.95671858532E+02  0.65969104886E+02 -0.14233228732E+03  0.20097320986E+03  0.81404691226E+02 0.  0.
         -6    2    1    2    0  502 -0.57939754441E+02 -0.12659771494E+03  0.16941296092E+03  0.27934691045E+03  0.17306053414E+03 0.  0.
        -24    2    5    5    0    0  0.82118077603E+00 -0.22745012133E+01  0.93490847662E+02  0.12219931658E+03  0.78652950875E+02 0.  0.
          5    1    3    3  501    0 -0.37732104091E+02  0.60628610050E+02 -0.22405620404E+02  0.74990945196E+02  0.47000000000E+01 0. -1.
        -13    1    4    4    0    0  0.82852507389E+02  0.61399851538E+02 -0.63785669663E+02  0.12125630459E+03  0.00000000000E+00 0.  1.
         14    1    4    4    0    0  0.12819351143E+02  0.45692533479E+01 -0.78546617657E+02  0.79716905266E+02  0.00000000000E+00 0. -1.
         -5    1    5    5    0  502 -0.58760935217E+02 -0.12432321372E+03  0.75922113261E+02  0.15714759387E+03  0.47000000000E+01 0.  1.
         13    1    6    6    0    0 -0.12094951788E+02 -0.24619455285E+01 -0.11228559332E+02  0.16686209253E+02  0.00000000000E+00 0. -1.
        -14    1    6    6    0    0  0.12916132564E+02  0.18744431523E+00  0.10471940699E+03  0.10551310732E+03  0.00000000000E+00 0.  1.
</event>
<event>
12    1  0.8196217E-002  0.2103653E+03  0.7818608E-02  0.1141504E+00
         21   -1    0    0  503  502  0.00000000000E+00  0.00000000000E+00  0.36848757584E+03  0.36848757584E+03  0.00000000000E+00 0. -1.
         21   -1    0    0  501  503 -0.00000000000E+00 -0.00000000000E+00 -0.16114569768E+03  0.16114569768E+03  0.00000000000E+00 0. -1.
          6    2    1    2  501    0 -0.10652181964E+03 -0.47164656857E+02  0.23859707332E+03  0.31809138194E+03  0.17516324086E+03 0.  0.
         24    2    3    3    0    0  0.12946841891E+02 -0.28323837586E+02  0.13189017472E+03  0.15673404629E+03  0.78744413050E+02 0.  0.
         -6    2    1    2    0  502  0.10652181964E+03  0.47164656857E+02 -0.31255195156E+02  0.21154189158E+03  0.17378631060E+03 0.  0.
        -24    2    5    5    0    0  0.20294189513E+02  0.36511023332E+02 -0.71578127344E+02  0.11564229322E+03  0.80652357160E+02 0.  0.
          5    1    3    3  501    0 -0.11946866153E+03 -0.18840819271E+02  0.10670689860E+03  0.16135733565E+03  0.47000000000E+01 0. -1.
        -13    1    4    4    0    0  0.12512926859E+02 -0.50308201665E+02  0.50299952023E+02  0.72232774188E+02  0.00000000000E+00 0.  1.
         14    1    4    4    0    0  0.43391503216E+00  0.21984364079E+02  0.81590222698E+02  0.84501272098E+02  0.00000000000E+00 0. -1.
         -5    1    5    5    0  502  0.86227630129E+02  0.10653633525E+02  0.40322932188E+02  0.95899598357E+02  0.47000000000E+01 0.  1.
         11    1    6    6    0    0 -0.98931283460E+01  0.43504184238E+02 -0.85751318067E+01  0.45431497006E+02  0.00000000000E+00 0. -1.
        -12    1    6    6    0    0  0.30187317859E+02 -0.69931609062E+01 -0.63002995537E+02  0.70210796218E+02  0.00000000000E+00 0.  1.
</event>
<event>
12    1  0.8196217E-002  0.1816063E+03  0.7818608E-02  0.1166343E+00
         21   -1    0    0  501  502  0.00000000000E+00  0.00000000000E+00  0.10270618752E+03  0.10270618752E+03  0.00000000000E+00 0. -1.
         21   -1    0    0  502  503 -0.00000000000E+00 -0.00000000000E+00 -0.41297871961E+03  0.41297871961E+03  0.00000000000E+00 0.  1.
         -6    2    1    2    0  503  0.57584291893E+02 -0.15037259470E+02 -0.27704009270E+03  0.33106305092E+03  0.17120006097E+03 0.  0.
        -24    2    3    3    0    0 -0.23155679075E+02 -0.99985408494E+01 -0.68658818574E+02  0.10748045543E+03  0.78751880229E+02 0.  0.
          6    2    1    2  501    0 -0.57584291893E+02  0.15037259470E+02 -0.33232439384E+02  0.18462185622E+03  0.17157728556E+03 0.  0.
         24    2    5    5    0    0 -0.48506390964E+02  0.26456560973E+02 -0.85889527214E+02  0.12977964956E+03  0.80080752818E+02 0.  0.
          5    1    5    5  501    0 -0.90779009296E+01 -0.11419301504E+02  0.52657087830E+02  0.54842206655E+02  0.47000000000E+01 0. -1.
        -11    1    6    6    0    0 -0.68561620077E+02  0.29224211170E+02 -0.54117755646E+02  0.92105818178E+02  0.00000000000E+00 0.  1.
         12    1    6    6    0    0  0.20055229113E+02 -0.27676501969E+01 -0.31771771568E+02  0.37673831382E+02  0.00000000000E+00 0. -1.
         -5    1    3    3    0  503  0.80739970968E+02 -0.50387186202E+01 -0.20838127413E+03  0.22358259549E+03  0.47000000000E+01 0.  1.
         13    1    4    4    0    0  0.12773328215E+01  0.33107948221E+02 -0.26682493042E+02  0.42540842134E+02  0.00000000000E+00 0. -1.
        -14    1    4    4    0    0 -0.24433011897E+02 -0.43106489070E+02 -0.41976325531E+02  0.64939613299E+02  0.00000000000E+00 0.  1.
</event>
<event>
12    1  0.8196217E-002  0.2077416E+03  0.7818608E-02  0.1143761E+00
         21   -1    0    0  503  502  0.00000000000E+00  0.00000000000E+00  0.43534365149E+02  0.43534365149E+02  0.00000000000E+00 0. -1.
         21   -1    0    0  501  503 -0.00000000000E+00 -0.00000000000E+00 -0.10373936005E+04  0.10373936005E+04  0.00000000000E+00 0. -1.
          6    2    1    2  501    0 -0.94615820745E+01 -0.11486917597E+03 -0.61955958062E+03  0.65284292598E+03  0.17048566784E+03 0.  0.
         24    2    3    3    0    0 -0.66310499522E+02 -0.10434207681E+03 -0.39693659824E+03  0.42278705991E+03  0.76849747292E+02 0.  0.
         -6    2    1    2    0  502  0.94615820745E+01  0.11486917597E+03 -0.37429965473E+03  0.42808503967E+03  0.17283553030E+03 0.  0.
        -24    2    5    5    0    0  0.68366717904E+02  0.10151588388E+03 -0.28230272665E+03  0.31793219035E+03  0.80041023173E+02 0.  0.
          5    1    3    3  501    0  0.56848917447E+02 -0.10527099160E+02 -0.22262298238E+03  0.23005586607E+03  0.47000000000E+01 0. -1.
        -11    1    4    4    0    0  0.92806291369E+01 -0.23716971193E+01 -0.49933547815E+01  0.10802250524E+02  0.00000000000E+00 0.  1.
         12    1    4    4    0    0 -0.75591128658E+02 -0.10197037970E+03 -0.39194324346E+03  0.41198480938E+03  0.00000000000E+00 0. -1.
         -5    1    5    5    0  502 -0.58905135829E+02  0.13353292095E+02 -0.91996928081E+02  0.11015284932E+03  0.47000000000E+01 0.  1.
         11    1    6    6    0    0  0.44856486596E+02  0.22424947560E+02 -0.47579303395E+02  0.69128668252E+02  0.00000000000E+00 0. -1.
        -12    1    6    6    0    0  0.23510231307E+02  0.79090936319E+02 -0.23472342326E+03  0.24880352210E+03  0.00000000000E+00 0.  1.
</event>
<event>
12    1  0.8196217E-002  0.1895588E+03  0.7818608E-02  0.1159099E+00
         21   -1    0    0  501  502  0.00000000000E+00  0.00000000000E+00  0.10538708599E+03  0.10538708599E+03  0.00000000000E+00 0. -1.
         21   -1    0    0  502  503 -0.00000000000E+00 -0.00000000000E+00 -0.38758854204E+03  0.38758854204E+03  0.00000000000E+00 0. -1.
         -6    2    1    2    0  503 -0.10920183918E+02 -0.76507646994E+02 -0.22796830268E+03  0.29581131440E+03  0.17193637264E+03 0.  0.
        -24    2    3    3    0    0  0.24044804528E+02 -0.11158793598E+02 -0.33292226486E+02  0.87451318961E+02  0.76398229981E+02 0.  0.
          6    2    1    2  501    0  0.10920183918E+02  0.76507646994E+02 -0.54233153365E+02  0.19716431363E+03  0.17308917118E+03 0.  0.
         24    2    5    5    0    0  0.57373968135E+02  0.44169137228E+02  0.15844896556E+02  0.10696034275E+03  0.77115298550E+02 0.  0.
          5    1    5    5  501    0 -0.46453784217E+02  0.32338509766E+02 -0.70078049921E+02  0.90203970881E+02  0.47000000000E+01 0. -1.
        -13    1    6    6    0    0  0.44127063550E+02  0.34245602352E+02 -0.26258136243E+02  0.61720731824E+02  0.00000000000E+00 0.  1.
         14    1    6    6    0    0  0.13246904585E+02  0.99235348761E+01  0.42103032798E+02  0.45239610922E+02  0.00000000000E+00 0. -1.
         -5    1    3    3    0  503 -0.34964988446E+02 -0.65348853396E+02 -0.19467607620E+03  0.20835999544E+03  0.47000000000E+01 0.  1.
         13    1    4    4    0    0  0.48252049243E+02 -0.23308631394E+02 -0.19226858668E+02  0.56931754301E+02  0.00000000000E+00 0. -1.
        -14    1    4    4    0    0 -0.24207244715E+02  0.12149837796E+02 -0.14065367819E+02  0.30519564660E+02  0.00000000000E+00 0.  1.
</event>
<event>
12    1  0.8196217E-002  0.1937677E+03  0.7818608E-02  0.1155523E+00
         21   -1    0    0  503  502  0.00000000000E+00  0.00000000000E+00  0.26735690748E+03  0.26735690748E+03  0.00000000000E+00 0.  1.
         21   -1    0    0  501  503 -0.00000000000E+00 -0.00000000000E+00 -0.14658305720E+03  0.14658305720E+03  0.00000000000E+00 0. -1.
          6    2    1    2  501    0 -0.76390579297E+02  0.38746057756E+02  0.10752481981E+03  0.22160215561E+03  0.17380779873E+03 0.  0.
         24    2    3    3    0    0 -0.35228524480E+02 -0.42965684520E+02  0.34781152689E+02  0.10461987196E+03  0.81538273482E+02 0.  0.
         -6    2    1    2    0  502  0.76390579297E+02 -0.38746057756E+02  0.13249030472E+02  0.19233780907E+03  0.17170182990E+03 0.  0.
        -24    2    5    5    0    0  0.10077465181E+03 -0.72402524646E+02 -0.31990160804E+01  0.14739374393E+03  0.79479720837E+02 0.  0.
          5    1    3    3  501    0 -0.41162054817E+02  0.81711742276E+02  0.72743667119E+02  0.11698228365E+03  0.47000000000E+01 0. -1.
        -11    1    4    4    0    0 -0.18292135274E+02  0.71889704910E+01  0.46428041548E+02  0.50416728886E+02  0.00000000000E+00 0.  1.
         12    1    4    4    0    0 -0.16936389206E+02 -0.50154655011E+02 -0.11646888859E+02  0.54203143070E+02  0.00000000000E+00 0. -1.
         -5    1    5    5    0  502 -0.24384072509E+02  0.33656466889E+02  0.16448046552E+02  0.44944065136E+02  0.47000000000E+01 0.  1.
         13    1    6    6    0    0  0.58741564065E+02 -0.22318670536E+02 -0.37887787103E+02  0.73376963789E+02  0.00000000000E+00 0. -1.
        -14    1    6    6    0    0  0.42033087740E+02 -0.50083854110E+02  0.34688771022E+02  0.74016780142E+02  0.00000000000E+00 0.  1.
</event>
<event>
12    1  0.8196217E-002  0.2099541E+03  0.7818608E-02  0.1141788E+00
         21   -1    0    0  503  502  0.00000000000E+00  0.00000000000E+00  0.12715827463E+03  0.12715827463E+03  0.00000000000E+00 0. -1.
         21   -1    0    0  501  503 -0.00000000000E+00 -0.00000000000E+00 -0.37705877626E+03  0.37705877626E+03  0.00000000000E+00 0. -1.
          6    2    1    2  501    0 -0.87455372876E+02  0.80426928627E+02 -0.19806888108E+03  0.28795971404E+03  0.17196680542E+03 0.  0.
         24    2    3    3    0    0 -0.23349292009E+02  0.19912935934E+01 -0.24408640339E+02  0.86858476698E+02  0.79996615951E+02 0.  0.
         -6    2    1    2    0  502  0.87455372876E+02 -0.80426928627E+02 -0.51831620553E+02  0.21625733685E+03  0.17310050769E+03 0.  0.
        -24    2    5    5    0    0  0.12068836536E+03 -0.83130192466E+02 -0.66635211225E+02  0.17947451856E+03  0.79338143456E+02 0.  0.
          5    1    3    3  501    0 -0.64106080866E+02  0.78435635034E+02 -0.17366024074E+03  0.20110123734E+03  0.47000000000E+01 0. -1.
        -11    1    4    4    0    0  0.14993405408E+02  0.69027841897E+01 -0.41447923207E+02  0.44613685944E+02  0.00000000000E+00 0.  1.
         12    1    4    4    0    0 -0.38342697418E+02 -0.49114905963E+01  0.17039282869E+02  0.42244790754E+02  0.00000000000E+00 0. -1.
         -5    1    5    5    0  502 -0.33232992480E+02  0.27032638392E+01  0.14803590673E+02  0.36782818290E+02  0.47000000000E+01 0.  1.
         11    1    6    6    0    0  0.11004476426E+03 -0.45158664425E+02 -0.23905548259E+02  0.12132860484E+03  0.00000000000E+00 0. -1.
        -12    1    6    6    0    0  0.10643601095E+02 -0.37971528041E+02 -0.42729662967E+02  0.58145913728E+02  0.00000000000E+00 0.  1.
</event>
<event>
12    1  0.8196217E-002  0.1810713E+03  0.7818608E-02  0.1167199E+00
         21   -1    0    0  503  502  0.00000000000E+00  0.00000000000E+00  0.74356333334E+03  0.74356333334E+03  0.00000000000E+00 0.  1.
         21   -1    0    0  501  503 -0.00000000000E+00 -0.00000000000E+00 -0.44201571559E+02  0.44201571559E+02  0.00000000000E+00 0.  1.
          6    2    1    2  501    0  0.36627386418E+02 -0.43020243898E+02  0.39148183659E+03  0.43058588004E+03  0.17015835240E+03 0.  0.
         24    2    3    3    0    0 -0.35553207655E+02 -0.29605743954E+02  0.30090214737E+03  0.31389501892E+03  0.76468620780E+02 0.  0.
         -6    2    1    2    0  502 -0.36627386418E+02  0.43020243898E+02  0.30787992519E+03  0.35717902485E+03  0.17203052241E+03 0.  0.
        -24    2    5    5    0    0 -0.40962369193E+02 -0.42872271316E+02  0.91227400673E+02  0.12403374263E+03  0.59548159825E+02 0.  0.
          5    1    3    3  501    0  0.72180594074E+02 -0.13414499945E+02  0.90579689217E+02  0.11669086112E+03  0.47000000000E+01 0. -1.
        -11    1    4    4    0    0 -0.53793776025E+01 -0.44307398965E+02  0.91336397585E+02  0.10165835347E+03  0.00000000000E+00 0.  1.
         12    1    4    4    0    0 -0.30173830053E+02  0.14701655012E+02  0.20956574979E+03  0.21223666545E+03  0.00000000000E+00 0. -1.
         -5    1    5    5    0  502  0.43349827750E+01  0.85892515215E+02  0.21665252452E+03  0.23314528223E+03  0.47000000000E+01 0.  1.
         11    1    6    6    0    0 -0.82608878925E+01 -0.45280558587E+02  0.73595901848E+02  0.86803963179E+02  0.00000000000E+00 0. -1.
        -12    1    6    6    0    0 -0.32701481301E+02  0.24082872712E+01  0.17631498825E+02  0.37229779447E+02  0.00000000000E+00 0.  1.
</event>
<event>
12    1  0.8196217E-002  0.3098301E+03  0.7818608E-02  0.1080428E+00
         21   -1    0    0  503  502  0.00000000000E+00  0.00000000000E+00  0.27729466663E+03  0.27729466663E+03  0.00000000000E+00 0.  1.
         21   -1    0    0  501  503 -0.00000000000E+00 -0.00000000000E+00 -0.34924944554E+03  0.34924944554E+03  0.00000000000E+00 0. -1.
          6    2    1    2  501    0  0.20030873324E+03 -0.16176294597E+03 -0.65735831653E+01  0.30989980816E+03  0.17234801942E+03 0.  0.
         24    2    3    3    0    0  0.59317137595E+02 -0.79789451635E+01  0.11522767106E+02  0.10042972237E+03  0.79819600317E+02 0.  0.
         -6    2    1    2    0  502 -0.20030873324E+03  0.16176294597E+03 -0.65381195750E+02  0.31664430402E+03  0.17233129491E+03 0.  0.
        -24    2    5    5    0    0 -0.19962332236E+03  0.92219041184E+02 -0.76225853078E+02  0.24609984233E+03  0.80005808123E+02 0.  0.
          5    1    3    3  501    0  0.14099159564E+03 -0.15378400081E+03 -0.18096350271E+02  0.20947008579E+03  0.47000000000E+01 0. -1.
        -11    1    4    4    0    0  0.69027179064E+02 -0.17357319968E+02  0.30255442310E+02  0.77339639224E+02  0.00000000000E+00 0.  1.
         12    1    4    4    0    0 -0.97100414684E+01  0.93783748047E+01 -0.18732675204E+02  0.23090083144E+02  0.00000000000E+00 0. -1.
         -5    1    5    5    0  502 -0.68541088204E+00  0.69543904789E+02  0.10844657328E+02  0.70544461682E+02  0.47000000000E+01 0.  1.
         11    1    6    6    0    0 -0.49082590298E+02  0.53265857442E+02 -0.50958960613E+02  0.88561661604E+02  0.00000000000E+00 0. -1.
        -12    1    6    6    0    0 -0.15054073206E+03  0.38953183742E+02 -0.25266892465E+02  0.15753818073E+03  0.00000000000E+00 0.  1.
</event>
<event>
12    1  0.8196217E-002  0.2341441E+03  0.7818608E-02  0.1124164E+00
         21   -1    0    0  501  502  0.00000000000E+00  0.00000000000E+00  0.10876581735E+04  0.10876581735E+04  0.00000000000E+00 0. -1.
         21   -1    0    0  502  503 -0.00000000000E+00 -0.00000000000E+00 -0.12931109807E+03  0.12931109807E+03  0.00000000000E+00 0. -1.
         -6    2    1    2    0  503  0.12914501636E+03 -0.92752413976E+02  0.13997807199E+01  0.23179334512E+03  0.16865571412E+03 0.  0.
        -24    2    3    3    0    0  0.60851957918E+02 -0.19542787665E+02  0.58278197863E+02  0.11655083754E+03  0.78120855431E+02 0.  0.
          6    2    1    2  501    0 -0.12914501636E+03  0.92752413976E+02  0.95694729473E+03  0.98517592646E+03  0.17187796730E+03 0.  0.
         24    2    5    5    0    0  0.21410979366E+01  0.51997498484E+02  0.43554291589E+03  0.44593421515E+03  0.80320411558E+02 0.  0.
          5    1    5    5  501    0 -0.13128611430E+03  0.40754915493E+02  0.52140437884E+03  0.53924171131E+03  0.47000000000E+01 0. -1.
        -11    1    6    6    0    0  0.13511612120E+02 -0.77739265691E+01  0.25377920658E+03  0.25425751373E+03  0.00000000000E+00 0.  1.
         12    1    6    6    0    0 -0.11370514183E+02  0.59771425053E+02  0.18176370931E+03  0.19167670142E+03  0.00000000000E+00 0. -1.
         -5    1    3    3    0  503  0.68293058444E+02 -0.73209626311E+02 -0.56878417143E+02  0.11524250758E+03  0.47000000000E+01 0.  1.
         13    1    4    4    0    0  0.49610480226E+02 -0.10107307660E+02 -0.56644480054E+01  0.50945494281E+02  0.00000000000E+00 0. -1.
        -14    1    4    4    0    0  0.11241477692E+02 -0.94354800053E+01  0.63942645868E+02  0.65605343260E+02  0.00000000000E+00 0.  1.
</event>
<event>
12    1  0.8196217E-002  0.1725468E+03  0.7818608E-02  0.1175545E+00
         21   -1    0    0  503  502  0.00000000000E+00  0.00000000000E+00  0.31953027065E+02  0.31953027065E+02  0.00000000000E+00 0.  1.
         21   -1    0    0  501  503 -0.00000000000E+00 -0.00000000000E+00 -0.97458529345E+03  0.97458529345E+03  0.00000000000E+00 0.  1.
          6    2    1    2  501    0 -0.76629809315E+01 -0.53391700432E+01 -0.58330494374E+03  0.60793008392E+03  0.17101783977E+03 0.  0.
         24    2    3    3    0    0  0.18822487148E+01 -0.65517409903E+02 -0.44397098384E+03  0.45578352844E+03  0.79575853388E+02 0.  0.
         -6    2    1    2    0  502  0.76629809315E+01  0.53391700432E+01 -0.35932732264E+03  0.39860823660E+03  0.17229385791E+03 0.  0.
        -24    2    5    5    0    0 -0.31317073574E+02 -0.85491858965E+01 -0.86773830950E+02  0.12289130401E+03  0.80738635039E+02 0.  0.
          5    1    3    3  501    0 -0.95452296462E+01  0.60178239859E+02 -0.13933395990E+03  0.15214655548E+03  0.47000000000E+01 0. -1.
        -11    1    4    4    0    0 -0.13380026868E+02  0.15568401574E+02 -0.82575979310E+02  0.85089321336E+02  0.00000000000E+00 0.  1.
         12    1    4    4    0    0  0.15262275582E+02 -0.81085811476E+02 -0.36139500453E+03  0.37069420710E+03  0.00000000000E+00 0. -1.
         -5    1    5    5    0  502  0.38980054505E+02  0.13888355940E+02 -0.27255349169E+03  0.27571693259E+03  0.47000000000E+01 0.  1.
         11    1    6    6    0    0 -0.26273268904E+02  0.13218251246E+02 -0.94716276052E+02  0.99177516475E+02  0.00000000000E+00 0. -1.
        -12    1    6    6    0    0 -0.50438046703E+01 -0.21767437143E+02  0.79424451020E+01  0.23713787540E+02  0.00000000000E+00 0.  1.
</event>
<event>
12    1  0.8196217E-002  0.1986580E+03  0.7818608E-02  0.1150922E+00
         21   -1    0    0  501  502  0.00000000000E+00  0.00000000000E+00  0.11452358325E+03  0.11452358325E+03  0.00000000000E+00 0. -1.
         21   -1    0    0  502  503 -0.00000000000E+00 -0.00000000000E+00 -0.52877257119E+03  0.52877257119E+03  0.00000000000E+00 0.  1.
         -6    2    1    2    0  503  0.58699776221E+02  0.82031222355E+02 -0.39706905805E+03  0.44389670486E+03  0.17089664289E+03 0.  0.
        -24    2    3    3    0    0 -0.18614065156E+02  0.57703407852E+02 -0.16359250105E+03  0.19670717171E+03  0.90857241342E+02 0.  0.
          6    2    1    2  501    0 -0.58699776221E+02 -0.82031222355E+02 -0.17179929880E+02  0.19939944958E+03  0.17114381476E+03 0.  0.
         24    2    5    5    0    0  0.34188779402E+02 -0.37687603163E+02  0.12988715519E+01  0.94718045158E+02  0.79878613797E+02 0.  0.
          5    1    5    5  501    0 -0.92888555623E+02 -0.44343619192E+02 -0.18478801432E+02  0.10468140442E+03  0.47000000000E+01 0. -1.
        -11    1    6    6    0    0  0.51610715767E+02 -0.20310558359E+02  0.24741988604E+02  0.60731793674E+02  0.00000000000E+00 0.  1.
         12    1    6    6    0    0 -0.17421936365E+02 -0.17377044804E+02 -0.23443117052E+02  0.33986251484E+02  0.00000000000E+00 0. -1.
         -5    1    3    3    0  503  0.77313841377E+02  0.24327814503E+02 -0.23347655701E+03  0.24718953315E+03  0.47000000000E+01 0.  1.
         11    1    4    4    0    0 -0.30757877772E+02 -0.34266139453E+01 -0.12704806241E+02  0.33454459042E+02  0.00000000000E+00 0. -1.
        -12    1    4    4    0    0  0.12143812616E+02  0.61130021797E+02 -0.15088769481E+03  0.16325271267E+03  0.00000000000E+00 0.  1.
</event>
<event>
12    1  0.8196217E-002  0.2274714E+03  0.7818608E-02  0.1128538E+00
         21   -1    0    0  503  502  0.00000000000E+00  0.00000000000E+00  0.14483330540E+03  0.14483330540E+03  0.00000000000E+00 0.  1.
         21   -1    0    0  501  503 -0.00000000000E+00 -0.00000000000E+00 -0.74659933470E+03  0.74659933470E+03  0.00000000000E+00 0. -1.
          6    2    1    2  501    0 -0.14692333244E+03 -0.15138154482E+02 -0.62294809522E+03  0.66297715256E+03  0.17221714823E+03 0.  0.
         24    2    3    3    0    0 -0.40457713770E+02 -0.76091013288E+01 -0.40827914487E+03  0.42319295199E+03  0.10346830167E+03 0.  0.
         -6    2    1    2    0  502  0.14692333244E+03  0.15138154482E+02  0.21182065933E+02  0.22845548754E+03  0.17299595525E+03 0.  0.
        -24    2    5    5    0    0  0.11261034152E+03  0.76019966999E+02  0.22617525468E+02  0.15839746169E+03  0.78218150150E+02 0.  0.
          5    1    3    3  501    0 -0.10646561867E+03 -0.75290531527E+01 -0.21466895036E+03  0.23978420058E+03  0.47000000000E+01 0. -1.
        -11    1    4    4    0    0 -0.62822492492E+02  0.10369134826E+01 -0.13546193507E+03  0.14932406573E+03  0.00000000000E+00 0.  1.
         12    1    4    4    0    0  0.22364778722E+02 -0.86460148114E+01 -0.27281720979E+03  0.27386888625E+03  0.00000000000E+00 0. -1.
         -5    1    5    5    0  502  0.34312990914E+02 -0.60881812518E+02 -0.14354595358E+01  0.70058025843E+02  0.47000000000E+01 0.  1.
         11    1    6    6    0    0  0.45486446362E+02  0.41697841677E+02 -0.27823524198E+02  0.67689550906E+02  0.00000000000E+00 0. -1.
        -12    1    6    6    0    0  0.67123895160E+02  0.34322125323E+02  0.50441049667E+02  0.90707910788E+02  0.00000000000E+00 0.  1.
</event>
<event>
12    1  0.8196217E-002  0.2778498E+03  0.7818608E-02  0.1096876E+00
         21   -1    0    0  501  502  0.00000000000E+00  0.00000000000E+00  0.18676524765E+03  0.18676524765E+03  0.00000000000E+00 0.  1.
         21   -1    0    0  502  503 -0.00000000000E+00 -0.00000000000E+00 -0.47426930076E+03  0.47426930076E+03  0.00000000000E+00 0.  1.
         -6    2    1    2    0  503 -0.16448759202E+03 -0.14322193704E+03 -0.26228601607E+03  0.38209224340E+03  0.17213900504E+03 0.  0.
        -24    2    3    3    0    0 -0.72245187159E+02 -0.46583770853E+02 -0.43555950447E+02  0.12574769396E+03  0.80783333314E+02 0.  0.
          6    2    1    2  501    0  0.16448759202E+03  0.14322193704E+03 -0.25218037039E+02  0.27894230502E+03  0.17205862071E+03 0.  0.
         24    2    5    5    0    0  0.12951834074E+03  0.11589207693E+03  0.44314303729E+02  0.19631902621E+03  0.79821228089E+02 0.  0.
          5    1    5    5  501    0  0.34969251280E+02  0.27329860117E+02 -0.69532340768E+02  0.82623278813E+02  0.47000000000E+01 0. -1.
        -13    1    6    6    0    0  0.52693334249E+02  0.82004598741E+02 -0.73153261102E+01  0.97748942117E+02  0.00000000000E+00 0.  1.
         14    1    6    6    0    0  0.76825006494E+02  0.33887478185E+02  0.51629629840E+02  0.98570084092E+02  0.00000000000E+00 0. -1.
         -5    1    3    3    0  503 -0.92242404865E+02 -0.96638166190E+02 -0.21873006562E+03  0.25634454944E+03  0.47000000000E+01 0.  1.
         11    1    4    4    0    0 -0.50191087445E+02  0.13166066819E+02 -0.71297317404E+01  0.52376747218E+02  0.00000000000E+00 0. -1.
        -12    1    4    4    0    0 -0.22054099714E+02 -0.59749837672E+02 -0.36426218707E+02  0.73370946738E+02  0.00000000000E+00 0.  1.
</event>
<event>
12    1  0.8196217E-002  0.1838961E+03  0.7818608E-02  0.1164611E+00
         21   -1    0    0  501  502  0.00000000000E+00  0.00000000000E+00  0.13675218685E+03  0.13675218685E+03  0.00000000000E+00 0.  1.
         21   -1    0    0  502  503 -0.00000000000E+00 -0.00000000000E+00 -0.31276085080E+03  0.31276085080E+03  0.00000000000E+00 0.  1.
         -6    2    1    2    0  503 -0.29937466239E+02  0.58753033544E+02 -0.19356331255E+03  0.26699163441E+03  0.17166713735E+03 0.  0.
        -24    2    3    3    0    0 -0.82009457273E+02  0.56931436086E+02 -0.15227235118E+03  0.20034447425E+03  0.83572124122E+02 0.  0.
          6    2    1    2  501    0  0.29937466239E+02 -0.58753033544E+02  0.17554648593E+02  0.18252140323E+03  0.16928593006E+03 0.  0.
         24    2    5    5    0    0 -0.37153441844E+02  0.68137900293E+01  0.11404447722E+02  0.88393228538E+02  0.79098011657E+02 0.  0.
          5    1    5    5  501    0  0.67090908082E+02 -0.65566823574E+02  0.61502008711E+01  0.94128174696E+02  0.47000000000E+01 0. -1.
        -11    1    6    6    0    0 -0.13727287095E+02 -0.15905368758E+02 -0.29405492947E+02  0.36140035719E+02  0.00000000000E+00 0.  1.
         12    1    6    6    0    0 -0.23426154748E+02  0.22719158787E+02  0.40809940670E+02  0.52253192819E+02  0.00000000000E+00 0. -1.
         -5    1    3    3    0  503  0.52071991035E+02  0.18215974583E+01 -0.41290961367E+02  0.66647160166E+02  0.47000000000E+01 0.  1.
         11    1    4    4    0    0 -0.25748663542E+02  0.26726824000E+01 -0.10685329136E+03  0.10994436220E+03  0.00000000000E+00 0. -1.
        -12    1    4    4    0    0 -0.56260793731E+02  0.54258753686E+02 -0.45419059819E+02  0.90400112044E+02  0.00000000000E+00 0.  1.
</event>
<event>
12    1  0.8196217E-002  0.5354117E+03  0.7818608E-02  0.1005170E+00
         21   -1    0    0  503  502  0.00000000000E+00  0.00000000000E+00  0.23368295434E+04  0.23368295434E+04  0.00000000000E+00 0.  1.
         21   -1    0    0  501  503 -0.00000000000E+00 -0.00000000000E+00 -0.56314001987E+03  0.56314001987E+03  0.00000000000E+00 0. -1.
          6    2    1    2  501    0 -0.35981400092E+03 -0.35114610990E+03 -0.39613412212E+03  0.66602396764E+03  0.18410860112E+03 0.  0.
         24    2    3    3    0    0 -0.27524532658E+03 -0.32848079320E+03 -0.27013772225E+03  0.51252230628E+03  0.77750267833E+02 0.  0.
         -6    2    1    2    0  502  0.35981400092E+03  0.35114610990E+03  0.21698236456E+04  0.22339455956E+04  0.17207139598E+03 0.  0.
        -24    2    5    5    0    0  0.19984443228E+03  0.12159149242E+03  0.87706046091E+03  0.91124217949E+03  0.80031052966E+02 0.  0.
          5    1    3    3  501    0 -0.84568674334E+02 -0.22665316704E+02 -0.12599639986E+03  0.15350166136E+03  0.47000000000E+01 0. -1.
        -13    1    4    4    0    0 -0.27199574614E+02 -0.52592422335E+01 -0.22923424244E+02  0.35957751141E+02  0.00000000000E+00 0.  1.
         14    1    4    4    0    0 -0.24804575197E+03 -0.32322155097E+03 -0.24721429801E+03  0.47656455514E+03  0.00000000000E+00 0. -1.
         -5    1    5    5    0  502  0.15996956864E+03  0.22955461748E+03  0.12927631847E+04  0.13227034161E+04  0.47000000000E+01 0.  1.
         11    1    6    6    0    0  0.16607371508E+02  0.20556016029E+02  0.36710410815E+02  0.45232829290E+02  0.00000000000E+00 0. -1.
        -12    1    6    6    0    0  0.18323706077E+03  0.10103547639E+03  0.84035005010E+03  0.86600935020E+03  0.00000000000E+00 0.  1.
</event>
<event>
12    1  0.8196217E-002  0.1894908E+03  0.7818608E-02  0.1162141E+00
         21   -1    0    0  501  502  0.00000000000E+00  0.00000000000E+00  0.12942093626E+03  0.12942093626E+03  0.00000000000E+00 0.  1.
         21   -1    0    0  502  503 -0.00000000000E+00 -0.00000000000E+00 -0.26019210659E+03  0.26019210659E+03  0.00000000000E+00 0.  1.
         -6    2    1    2    0  503 -0.29632225918E+02 -0.22406935988E+02 -0.86534999124E+02  0.20831485349E+03  0.18581343471E+03 0.  0.
        -24    2    3    3    0    0  0.17622245886E+02 -0.35898683490E+02  0.20557266634E+02  0.90391761005E+02  0.78414349578E+02 0.  0.
          6    2    1    2  501    0  0.29632225918E+02  0.22406935988E+02 -0.44236171206E+02  0.18129818935E+03  0.17184893082E+03 0.  0.
         24    2    5    5    0    0  0.75415154499E+02  0.16845991077E+02  0.87480946152E+01  0.11089632089E+03  0.79058408057E+02 0.  0.
          5    1    5    5  501    0 -0.45782928581E+02  0.55609449110E+01 -0.52984265821E+02  0.70401868458E+02  0.47000000000E+01 0. -1.
        -13    1    6    6    0    0  0.66427441612E+02 -0.22492369832E+02  0.74050228122E+01  0.70521954472E+02  0.00000000000E+00 0.  1.
         14    1    6    6    0    0  0.89877128876E+01  0.39338360909E+02  0.13430718029E+01  0.40374366420E+02  0.00000000000E+00 0. -1.
         -5    1    3    3    0  503 -0.47254471805E+02  0.13491747501E+02 -0.10709226576E+03  0.11792309249E+03  0.47000000000E+01 0.  1.
         11    1    4    4    0    0  0.63210670204E+01  0.25008169659E+02  0.93666668509E+01  0.27442647209E+02  0.00000000000E+00 0. -1.
        -12    1    4    4    0    0  0.11301178866E+02 -0.60906853149E+02  0.11190599783E+02  0.62949113796E+02  0.00000000000E+00 0.  1.
</event>
<event>
12    1  0.8196217E-002  0.2307498E+03  0.7818608E-02  0.1126293E+00
         21   -1    0    0  503  502  0.00000000000E+00  0.00000000000E+00  0.71182734429E+03  0.71182734429E+03  0.00000000000E+00 0.  1.
         21   -1    0    0  501  503 -0.00000000000E+00 -0.00000000000E+00 -0.19205205667E+03  0.19205205667E+03  0.00000000000E+00 0.  1.
          6    2    1    2  501    0  0.51547539291E+02 -0.14462952230E+03 -0.93512537935E+02  0.24897805342E+03  0.17225164384E+03 0.  0.
         24    2    3    3    0    0  0.18731564659E+02 -0.15397327199E+03 -0.11447658676E+03  0.20865715074E+03  0.79839073369E+02 0.  0.
         -6    2    1    2    0  502 -0.51547539291E+02  0.14462952230E+03  0.61328782555E+03  0.65490134755E+03  0.17087706261E+03 0.  0.
        -24    2    5    5    0    0 -0.52145181428E+02  0.25515788045E+02  0.38398570195E+03  0.39646374821E+03  0.79801685180E+02 0.  0.
          5    1    3    3  501    0  0.32815974632E+02  0.93437496978E+01  0.20964048823E+02  0.40320902675E+02  0.47000000000E+01 0. -1.
        -13    1    4    4    0    0  0.19473659547E+02 -0.49004561486E+02 -0.84300363043E+02  0.99434509461E+02  0.00000000000E+00 0.  1.
         14    1    4    4    0    0 -0.74209488789E+00 -0.10496871051E+03 -0.30176223716E+02  0.10922264128E+03  0.00000000000E+00 0. -1.
         -5    1    5    5    0  502  0.59764213713E+00  0.11911373425E+03  0.22930212361E+03  0.25843759934E+03  0.47000000000E+01 0.  1.
         11    1    6    6    0    0 -0.77548147229E+01  0.47977043846E+02  0.17345612664E+03  0.18013595354E+03  0.00000000000E+00 0. -1.
        -12    1    6    6    0    0 -0.44390366705E+02 -0.22461255801E+02  0.21052957531E+03  0.21632779467E+03  0.00000000000E+00 0.  1.
</event>
<event>
12    1  0.8196217E-002  0.1811163E+03  0.7818608E-02  0.1167508E+00
         21   -1    0    0  503  502  0.00000000000E+00  0.00000000000E+00  0.37845210448E+02  0.37845210448E+02  0.00000000000E+00 0. -1.
         21   -1    0    0  501  503 -0.00000000000E+00 -0.00000000000E+00 -0.99592822575E+03  0.99592822575E+03  0.00000000000E+00 0. -1.
          6    2    1    2  501    0 -0.28973688600E+02  0.44886799341E+02 -0.67960518820E+03  0.70332520339E+03  0.17305730413E+03 0.  0.
         24    2    3    3    0    0 -0.73307587542E+02 -0.13002231853E+02 -0.41093953247E+03  0.42490113996E+03  0.78272721749E+02 0.  0.
         -6    2    1    2    0  502  0.28973688600E+02 -0.44886799341E+02 -0.27847782711E+03  0.33044823281E+03  0.16968156939E+03 0.  0.
        -24    2    5    5    0    0  0.89621129489E+00 -0.84984407852E+02 -0.13325055509E+03  0.17712108754E+03  0.79956340875E+02 0.  0.
          5    1    3    3  501    0  0.44333898942E+02  0.57889031193E+02 -0.26866565573E+03  0.27842406343E+03  0.47000000000E+01 0. -1.
        -13    1    4    4    0    0 -0.80525080265E+02 -0.29143033306E+02 -0.37731716461E+03  0.38691323013E+03  0.00000000000E+00 0.  1.
         14    1    4    4    0    0  0.72174927231E+01  0.16140801453E+02 -0.33622367864E+02  0.37987909834E+02  0.00000000000E+00 0. -1.
         -5    1    5    5    0  502  0.28077477305E+02  0.40097608511E+02 -0.14522727202E+03  0.15332714528E+03  0.47000000000E+01 0.  1.
         11    1    6    6    0    0  0.86980455654E+01 -0.84285384448E+02 -0.14201142493E+03  0.16536906252E+03  0.00000000000E+00 0. -1.
        -12    1    6    6    0    0 -0.78018342705E+01 -0.69902340373E+00  0.87608698390E+01  0.11752025019E+02  0.00000000000E+00 0.  1.
</event>
<event>
12    1  0.8196217E-002  0.1838587E+03  0.7818608E-02  0.1164269E+00
         21   -1    0    0  503  502  0.00000000000E+00  0.00000000000E+00  0.26529633032E+03  0.26529633032E+03  0.00000000000E+00 0.  1.
         21   -1    0    0  501  503 -0.00000000000E+00 -0.00000000000E+00 -0.12712087943E+03  0.12712087943E+03  0.00000000000E+00 0.  1.
          6    2    1    2  501    0  0.56152140825E+02 -0.32906410889E+02  0.62518800182E+02  0.19360085083E+03  0.17127987117E+03 0.  0.
         24    2    3    3    0    0  0.89204037822E+02 -0.53711437811E+02  0.15948464689E+02  0.13264050972E+03  0.80603178454E+02 0.  0.
         -6    2    1    2    0  502 -0.56152140825E+02  0.32906410889E+02  0.75656650711E+02  0.19881635893E+03  0.17195383387E+03 0.  0.
        -24    2    5    5    0    0 -0.57161241848E+02 -0.36304746451E+02  0.49483779986E+02  0.12466575713E+03  0.92235916725E+02 0.  0.
          5    1    3    3  501    0 -0.33051896998E+02  0.20805026921E+02  0.46570335494E+02  0.60960341111E+02  0.47000000000E+01 0. -1.
        -11    1    4    4    0    0  0.36887153882E+02 -0.42304745690E+02 -0.28592284172E+02  0.62991049710E+02  0.00000000000E+00 0.  1.
         12    1    4    4    0    0  0.52316883941E+02 -0.11406692120E+02  0.44540748860E+02  0.69649460008E+02  0.00000000000E+00 0. -1.
         -5    1    5    5    0  502  0.10091010230E+01  0.69211157340E+02  0.26172870725E+02  0.74150601799E+02  0.47000000000E+01 0.  1.
         13    1    6    6    0    0  0.28090827044E+01 -0.43157931687E+02 -0.47631447437E+01  0.43510752246E+02  0.00000000000E+00 0. -1.
        -14    1    6    6    0    0 -0.59970324552E+02  0.68531852367E+01  0.54246924729E+02  0.81155004882E+02  0.00000000000E+00 0.  1.
</event>
<event>
12    1  0.8196217E-002  0.1807616E+03  0.7818608E-02  0.1167378E+00
         21   -1    0    0  503  502  0.00000000000E+00  0.00000000000E+00  0.17004099557E+04  0.17004099557E+04  0.00000000000E+00 0.  1.
         21   -1    0    0  501  503 -0.00000000000E+00 -0.00000000000E+00 -0.55329945301E+02  0.55329945301E+02  0.00000000000E+00 0. -1.
          6    2    1    2  501    0 -0.54278210845E+02  0.15204919917E+02  0.11096399449E+03  0.21101121192E+03  0.17039779846E+03 0.  0.
         24    2    3    3    0    0 -0.10178768846E+03  0.30548831473E+01  0.72654506845E+02  0.14860543734E+03  0.80217409642E+02 0.  0.
         -6    2    1    2    0  502  0.54278210845E+02 -0.15204919917E+02  0.15341160159E+04  0.15447286891E+04  0.17174824261E+03 0.  0.
        -24    2    5    5    0    0  0.79164313538E+02 -0.53403398229E+02  0.87122544262E+03  0.88025563168E+03  0.81836995065E+02 0.  0.
          5    1    3    3  501    0  0.47509477617E+02  0.12150036769E+02  0.38309487646E+02  0.62405774578E+02  0.47000000000E+01 0. -1.
        -13    1    4    4    0    0 -0.78914113116E+02 -0.33990181293E+02  0.51814454040E+02  0.10033696886E+03  0.00000000000E+00 0.  1.
         14    1    4    4    0    0 -0.22873575346E+02  0.37045064440E+02  0.20840052806E+02  0.48268468480E+02  0.00000000000E+00 0. -1.
         -5    1    5    5    0  502 -0.24886102693E+02  0.38198478312E+02  0.66289057333E+03  0.66447305744E+03  0.47000000000E+01 0.  1.
         13    1    6    6    0    0  0.41022627189E+02 -0.55939599659E+01  0.12825159631E+03  0.13476876598E+03  0.00000000000E+00 0. -1.
        -14    1    6    6    0    0  0.38141686349E+02 -0.47809438263E+02  0.74297384631E+03  0.74548686570E+03  0.00000000000E+00 0.  1.
</event>
<event>
12    1  0.8196217E-002  0.2768620E+03  0.7818608E-02  0.1097429E+00
         21   -1    0    0  501  502  0.00000000000E+00  0.00000000000E+00  0.72844993296E+03  0.72844993296E+03  0.00000000000E+00 0. -1.
         21   -1    0    0  502  503 -0.00000000000E+00 -0.00000000000E+00 -0.17354269081E+03  0.17354269081E+03  0.00000000000E+00 0. -1.
         -6    2    1    2    0  503  0.19145255792E+03  0.10141516750E+03 -0.56171752496E+01  0.27682050912E+03  0.17221766309E+03 0.  0.
        -24    2    3    3    0    0  0.21562880022E+03  0.80290901252E+02 -0.91034062057E+01  0.24418664446E+03  0.81251689332E+02 0.  0.
          6    2    1    2  501    0 -0.19145255792E+03 -0.10141516750E+03  0.56052441739E+03  0.62517211464E+03  0.17237584603E+03 0.  0.
         24    2    5    5    0    0 -0.62503617642E+02 -0.94942098082E+00  0.12357942982E+03  0.15862714619E+03  0.77350451933E+02 0.  0.
          5    1    5    5  501    0 -0.12894894028E+03 -0.10046574652E+03  0.43694498758E+03  0.46654496846E+03  0.47000000000E+01 0. -1.
        -13    1    6    6    0    0 -0.70606590440E+02  0.13565606304E+02  0.12240918085E+03  0.14196240293E+03  0.00000000000E+00 0.  1.
         14    1    6    6    0    0  0.81029727976E+01 -0.14515027284E+02  0.11702489656E+01  0.16664743258E+02  0.00000000000E+00 0. -1.
         -5    1    3    3    0  503 -0.24176242303E+02  0.21124266252E+02  0.34862309561E+01  0.32633864663E+02  0.47000000000E+01 0.  1.
         11    1    4    4    0    0  0.14675862119E+03  0.87088933029E+02  0.14001282747E+02  0.17122678257E+03  0.00000000000E+00 0. -1.
        -12    1    4    4    0    0  0.68870179029E+02 -0.67980317767E+01 -0.23104688953E+02  0.72959861890E+02  0.00000000000E+00 0.  1.
</event>
<event>
12    1  0.8196217E-002  0.1904688E+03  0.7818608E-02  0.1159893E+00
         21   -1    0    0  501  502  0.00000000000E+00  0.00000000000E+00  0.32241110367E+03  0.32241110367E+03  0.00000000000E+00 0. -1.
         21   -1    0    0  502  503 -0.00000000000E+00 -0.00000000000E+00 -0.19573846242E+03  0.19573846242E+03  0.00000000000E+00 0. -1.
         -6    2    1    2    0  503  0.16555985873E+01 -0.83583948113E+02 -0.11103600421E+03  0.21354527963E+03  0.16212209854E+03 0.  0.
        -24    2    3    3    0    0 -0.35485896409E+02 -0.40214303435E+02 -0.95580049112E+02  0.15420395105E+03  0.10847522153E+03 0.  0.
          6    2    1    2  501    0 -0.16555985873E+01  0.83583948113E+02  0.23770864545E+03  0.30460428645E+03  0.17114132702E+03 0.  0.
         24    2    5    5    0    0 -0.28281408789E+01  0.47226486120E+02  0.24926811193E+03  0.26614715235E+03  0.80382682879E+02 0.  0.
          5    1    5    5  501    0  0.11725422916E+01  0.36357461993E+02 -0.11559466482E+02  0.38457134102E+02  0.47000000000E+01 0. -1.
        -13    1    6    6    0    0 -0.38127257859E+02  0.56276003471E+01  0.11129080564E+03  0.11777521427E+03  0.00000000000E+00 0.  1.
         14    1    6    6    0    0  0.35299116980E+02  0.41598885773E+02  0.13797730629E+03  0.14837193808E+03  0.00000000000E+00 0. -1.
         -5    1    3    3    0  503  0.37141494996E+02 -0.43369644678E+02 -0.15455955095E+02  0.59341328583E+02  0.47000000000E+01 0.  1.
         11    1    4    4    0    0 -0.60606169011E+02 -0.43995260672E+02 -0.24620598341E+02  0.78834412197E+02  0.00000000000E+00 0. -1.
        -12    1    4    4    0    0  0.25120272602E+02  0.37809572370E+01 -0.70959450771E+02  0.75369538854E+02  0.00000000000E+00 0.  1.
</event>
<event>
12    1  0.8196217E-002  0.2301845E+03  0.7818608E-02  0.1126810E+00
         21   -1    0    0  501  502  0.00000000000E+00  0.00000000000E+00  0.92250583072E+03  0.92250583072E+03  0.00000000000E+00 0. -1.
         21   -1    0    0  502  503 -0.00000000000E+00 -0.00000000000E+00 -0.64651242989E+02  0.64651242989E+02  0.00000000000E+00 0.  1.
         -6    2    1    2    0  503  0.10802102877E+03 -0.10133453594E+03  0.25787037188E+03  0.34453278164E+03  0.17397838402E+03 0.  0.
        -24    2    3    3    0    0  0.55092395160E+02 -0.35185193382E+02  0.41385359120E+02  0.11201390816E+03  0.81001221192E+02 0.  0.
          6    2    1    2  501    0 -0.10802102877E+03  0.10133453594E+03  0.59998421586E+03  0.64262429207E+03  0.17620354891E+03 0.  0.
         24    2    5    5    0    0 -0.59562199701E+02  0.82838129172E+02  0.19477749883E+03  0.23408427114E+03  0.80295458562E+02 0.  0.
          5    1    5    5  501    0 -0.48458829067E+02  0.18496406767E+02  0.40520671703E+03  0.40854002093E+03  0.47000000000E+01 0. -1.
        -13    1    6    6    0    0 -0.48115229930E+02  0.98929871101E+02  0.16214990197E+03  0.19594587379E+03  0.00000000000E+00 0.  1.
         14    1    6    6    0    0 -0.11446969771E+02 -0.16091741929E+02  0.32627596856E+02  0.38138397342E+02  0.00000000000E+00 0. -1.
         -5    1    3    3    0  503  0.52928633608E+02 -0.66149342557E+02  0.21648501276E+03  0.23251887348E+03  0.47000000000E+01 0.  1.
         13    1    4    4    0    0  0.25840113454E+01 -0.54375356808E+00  0.48621476668E+02  0.48693128632E+02  0.00000000000E+00 0. -1.
        -14    1    4    4    0    0  0.52508383815E+02 -0.34641439814E+02 -0.72361175476E+01  0.63320779531E+02  0.00000000000E+00 0.  1.
</event>
<event>
12    1  0.8196217E-002  0.1893838E+03  0.7818608E-02  0.1159321E+00
         21   -1    0    0  501  502  0.00000000000E+00  0.00000000000E+00  0.18454849661E+03  0.18454849661E+03  0.00000000000E+00 0.  1.
         21   -1    0    0  502  503 -0.00000000000E+00 -0.00000000000E+00 -0.63264256458E+03  0.63264256458E+03  0.00000000000E+00 0.  1.
         -6    2    1    2    0  503 -0.39468712153E+01  0.76317845537E+02 -0.56490973784E+03  0.59580974525E+03  0.17328083935E+03 0.  0.
        -24    2    3    3    0    0 -0.34873233978E+02  0.96704061858E+02 -0.52620319712E+03  0.54202941405E+03  0.79613208733E+02 0.  0.
          6    2    1    2  501    0  0.39468712153E+01 -0.76317845537E+02  0.11681566988E+03  0.22138131594E+03  0.17182489627E+03 0.  0.
         24    2    5    5    0    0  0.12411153641E+02 -0.51844761198E+02  0.15110827747E+03  0.17815344450E+03  0.77865411257E+02 0.  0.
          5    1    5    5  501    0 -0.84642824258E+01 -0.24473084339E+02 -0.34292607585E+02  0.43227871437E+02  0.47000000000E+01 0. -1.
        -13    1    6    6    0    0 -0.28141835959E+02  0.48025696900E+00  0.46768644486E+02  0.54584793532E+02  0.00000000000E+00 0.  1.
         14    1    6    6    0    0  0.40552989600E+02 -0.52325018167E+02  0.10433963298E+03  0.12356865097E+03  0.00000000000E+00 0. -1.
         -5    1    3    3    0  503  0.30926362762E+02 -0.20386216321E+02 -0.38706540726E+02  0.53780331206E+02  0.47000000000E+01 0.  1.
         11    1    4    4    0    0  0.89656394034E+01  0.66436279054E+02 -0.18667814555E+03  0.19835042700E+03  0.00000000000E+00 0. -1.
        -12    1    4    4    0    0 -0.43838873381E+02  0.30267782804E+02 -0.33952505157E+03  0.34367898704E+03  0.00000000000E+00 0.  1.
</event>
<event>
12    1  0.8196217E-002  0.1719280E+03  0.7818608E-02  0.1175936E+00
         21   -1    0    0  501  502  0.00000000000E+00  0.00000000000E+00  0.50632979624E+02  0.50632979624E+02  0.00000000000E+00 0.  1.
         21   -1    0    0  502  503 -0.00000000000E+00 -0.00000000000E+00 -0.15462348282E+04  0.15462348282E+04  0.00000000000E+00 0.  1.
         -6    2    1    2    0  503  0.20907073780E+01 -0.69920870495E+01 -0.11778216694E+03  0.20840312839E+03  0.17177300352E+03 0.  0.
        -24    2    3    3    0    0 -0.32182677490E+02 -0.29874863854E+02 -0.13556779515E+03  0.16327326073E+03  0.79695033500E+02 0.  0.
          6    2    1    2  501    0 -0.20907073780E+01  0.69920870495E+01 -0.13778196817E+04  0.13884646795E+04  0.17144629064E+03 0.  0.
         24    2    5    5    0    0  0.64591355970E+02 -0.22457513889E+01 -0.90930287720E+03  0.91511288502E+03  0.80142268353E+02 0.  0.
          5    1    5    5  501    0 -0.66682063348E+02  0.92378384384E+01 -0.46851680447E+03  0.47335179444E+03  0.47000000000E+01 0. -1.
        -13    1    6    6    0    0 -0.15950632252E+02  0.16736688323E+01 -0.30931338436E+03  0.30972890337E+03  0.00000000000E+00 0.  1.
         14    1    6    6    0    0  0.80541988222E+02 -0.39194202211E+01 -0.59998949284E+03  0.60538398165E+03  0.00000000000E+00 0. -1.
         -5    1    3    3    0  503  0.34273384868E+02  0.22882776805E+02  0.17785628217E+02  0.45129867667E+02  0.47000000000E+01 0.  1.
         13    1    4    4    0    0 -0.51249240816E+02 -0.42055203915E+02 -0.11476928576E+03  0.13254098918E+03  0.00000000000E+00 0. -1.
        -14    1    4    4    0    0  0.19066563326E+02  0.12180340060E+02 -0.20798509395E+02  0.30732271542E+02  0.00000000000E+00 0.  1.
</event>
<event>
12    1  0.8196217E-002  0.2237774E+03  0.7818608E-02  0.1131496E+00
         21   -1    0    0  501  502  0.00000000000E+00  0.00000000000E+00  0.85920584971E+03  0.85920584971E+03  0.00000000000E+00 0.  1.
         21   -1    0    0  502  503 -0.00000000000E+00 -0.00000000000E+00 -0.57823135676E+02  0.57823135676E+02  0.00000000000E+00 0.  1.
         -6    2    1    2    0  503  0.13913625614E+03  0.30799179284E+02  0.38305727276E+03  0.44363184731E+03  0.17253653096E+03 0.  0.
        -24    2    3    3    0    0  0.49280343444E+02 -0.45277666943E+02  0.14787843519E+03  0.18058632421E+03  0.79150297067E+02 0.  0.
          6    2    1    2  501    0 -0.13913625614E+03 -0.30799179284E+02  0.41832544128E+03  0.47339713808E+03  0.16970912852E+03 0.  0.
         24    2    5    5    0    0 -0.57381665874E+02 -0.69603126740E+02  0.30847301804E+03  0.33099206703E+03  0.79138453043E+02 0.  0.
          5    1    5    5  501    0 -0.81754590270E+02  0.38803947456E+02  0.10985242324E+03  0.14240507105E+03  0.47000000000E+01 0. -1.
        -11    1    6    6    0    0 -0.60732900974E+02 -0.14248717403E+02  0.13175093631E+03  0.14577318144E+03  0.00000000000E+00 0.  1.
         12    1    6    6    0    0  0.33512351001E+01 -0.55354409337E+02  0.17672208173E+03  0.18521888560E+03  0.00000000000E+00 0. -1.
         -5    1    3    3    0  503  0.89855912700E+02  0.76076846228E+02  0.23517883757E+03  0.26304552309E+03  0.47000000000E+01 0.  1.
         13    1    4    4    0    0 -0.20858507467E+02 -0.46727156366E+01  0.20537759218E+02  0.29643062575E+02  0.00000000000E+00 0. -1.
        -14    1    4    4    0    0  0.70138850911E+02 -0.40604951307E+02  0.12734067597E+03  0.15094326164E+03  0.00000000000E+00 0.  1.
</event>
<event>
12    1  0.8196217E-002  0.1857182E+03  0.7818608E-02  0.1165417E+00
         21   -1    0    0  503  502  0.00000000000E+00  0.00000000000E+00  0.25056608260E+02  0.25056608260E+02  0.00000000000E+00 0.  1.
         21   -1    0    0  501  503 -0.00000000000E+00 -0.00000000000E+00 -0.13316953020E+04  0.13316953020E+04  0.00000000000E+00 0. -1.
          6    2    1    2  501    0  0.10908239383E+02 -0.18921692039E+02 -0.50400651563E+03  0.53291353333E+03  0.17174762326E+03 0.  0.
         24    2    3    3    0    0  0.27790043286E+02  0.51907233978E+01 -0.49367048057E+03  0.50136472191E+03  0.82805862580E+02 0.  0.
         -6    2    1    2    0  502 -0.10908239383E+02  0.18921692039E+02 -0.80263217811E+03  0.82383837693E+03  0.18442949288E+03 0.  0.
        -24    2    5    5    0    0 -0.16970473504E+02  0.95469076244E+01 -0.14958572039E+03  0.17067958827E+03  0.79852950416E+02 0.  0.
          5    1    3    3  501    0 -0.16881803903E+02 -0.24112415437E+02 -0.10336035062E+02  0.31548811421E+02  0.47000000000E+01 0. -1.
        -13    1    4    4    0    0  0.46818652799E+02 -0.16883399898E+02 -0.19407355315E+03  0.20035363604E+03  0.00000000000E+00 0.  1.
         14    1    4    4    0    0 -0.19028609513E+02  0.22074123296E+02 -0.29959692742E+03  0.30101108588E+03  0.00000000000E+00 0. -1.
         -5    1    5    5    0  502  0.60622341206E+01  0.93747844150E+01 -0.65304645772E+03  0.65315878866E+03  0.47000000000E+01 0.  1.
         13    1    6    6    0    0 -0.23296509426E+02 -0.32152057369E+02 -0.79973787672E+02  0.89287674733E+02  0.00000000000E+00 0. -1.
        -14    1    6    6    0    0  0.63260359222E+01  0.41698964993E+02 -0.69611932718E+02  0.81391913535E+02  0.00000000000E+00 0.  1.
</event>
<event>
12    1  0.8196217E-002  0.1854125E+03  0.7818608E-02  0.1163325E+00
         21   -1    0    0  503  502  0.00000000000E+00  0.00000000000E+00  0.74807048862E+03  0.74807048862E+03  0.00000000000E+00 0. -1.
         21   -1    0    0  501  503 -0.00000000000E+00 -0.00000000000E+00 -0.58439354893E+02  0.58439354893E+02  0.00000000000E+00 0. -1.
          6    2    1    2  501    0 -0.62872590301E+02  0.64307445163E+01  0.15536753325E+03  0.24190261945E+03  0.17430860513E+03 0.  0.
         24    2    3    3    0    0 -0.90243386884E+02  0.22274260437E+02  0.50617753005E+02  0.13238191838E+03  0.79516060265E+02 0.  0.
         -6    2    1    2    0  502  0.62872590301E+02 -0.64307445163E+01  0.53426360048E+03  0.56460722406E+03  0.17131668214E+03 0.  0.
        -24    2    5    5    0    0  0.32982959738E+01  0.32143967115E+02  0.43015839401E+03  0.43852356558E+03  0.78883206414E+02 0.  0.
          5    1    3    3  501    0  0.27370796583E+02 -0.15843515921E+02  0.10474978024E+03  0.10952070107E+03  0.47000000000E+01 0. -1.
        -11    1    4    4    0    0  0.57602322795E+01 -0.36963953628E+01 -0.12739156855E+02  0.14461318473E+02  0.00000000000E+00 0.  1.
         12    1    4    4    0    0 -0.96003619163E+02  0.25970655800E+02  0.63356909861E+02  0.11792059991E+03  0.00000000000E+00 0. -1.
         -5    1    5    5    0  502  0.59574294327E+02 -0.38574711631E+02  0.10410520647E+03  0.12608365848E+03  0.47000000000E+01 0.  1.
         11    1    6    6    0    0 -0.44164663020E+00  0.50277443453E+02  0.15960328526E+03  0.16733566577E+03  0.00000000000E+00 0. -1.
        -12    1    6    6    0    0  0.37399426040E+01 -0.18133476338E+02  0.27055510875E+03  0.27118789981E+03  0.00000000000E+00 0.  1.
</event>
<event>
12    1  0.8196217E-002  0.1760886E+03  0.7818608E-02  0.1171723E+00
         21   -1    0    0  501  502  0.00000000000E+00  0.00000000000E+00  0.26705332899E+03  0.26705332899E+03  0.00000000000E+00 0. -1.
         21   -1    0    0  502  503 -0.00000000000E+00 -0.00000000000E+00 -0.18471465360E+03  0.18471465360E+03  0.00000000000E+00 0. -1.
         -6    2    1    2    0  503 -0.23870382722E+02 -0.32079547270E+02 -0.96681456175E+02  0.20088428969E+03  0.17148848752E+03 0.  0.
        -24    2    3    3    0    0  0.43416720920E+02  0.15521326991E+02 -0.61414717780E+02  0.11111107328E+03  0.80299313813E+02 0.  0.
          6    2    1    2  501    0  0.23870382722E+02  0.32079547270E+02  0.17902013157E+03  0.25088369291E+03  0.17115936240E+03 0.  0.
         24    2    5    5    0    0  0.36382410783E+02  0.80980666852E+02  0.15125404965E+03  0.19308303852E+03  0.80757191702E+02 0.  0.
          5    1    5    5  501    0 -0.12512028061E+02 -0.48901119582E+02  0.27766081917E+02  0.57800654387E+02  0.47000000000E+01 0. -1.
        -13    1    6    6    0    0 -0.60250338470E+01 -0.14370546313E+02  0.17427102311E+02  0.23377714369E+02  0.00000000000E+00 0.  1.
         14    1    6    6    0    0  0.42407444630E+02  0.95351213164E+02  0.13382694734E+03  0.16970532415E+03  0.00000000000E+00 0. -1.
         -5    1    3    3    0  503 -0.67287103642E+02 -0.47600874261E+02 -0.35266738395E+02  0.89773216406E+02  0.47000000000E+01 0.  1.
         11    1    4    4    0    0 -0.34467233230E+01 -0.22687079689E+02 -0.41550986793E+02  0.47466493340E+02  0.00000000000E+00 0. -1.
        -12    1    4    4    0    0  0.46863444243E+02  0.38208406680E+02 -0.19863730987E+02  0.63644579942E+02  0.00000000000E+00 0.  1.
</event>
<event>
12    1  0.8196217E-002  0.1843617E+03  0.7818608E-02  0.1163881E+00
         21   -1    0    0  503  502  0.00000000000E+00  0.00000000000E+00  0.74286299292E+03  0.74286299292E+03  0.00000000000E+00 0. -1.
         21   -1    0    0  501  503 -0.00000000000E+00 -0.00000000000E+00 -0.71095638121E+02  0.71095638121E+02  0.00000000000E+00 0. -1.
          6    2    1    2  501    0  0.51794037311E+02 -0.40435503466E+02  0.91147247848E+02  0.20477152368E+03  0.17118967223E+03 0.  0.
         24    2    3    3    0    0  0.62476430295E+02 -0.45197983566E+02  0.12453038394E+03  0.16908793485E+03  0.84479294078E+02 0.  0.
         -6    2    1    2    0  502 -0.51794037311E+02  0.40435503466E+02  0.58062010695E+03  0.60918710735E+03  0.17225437856E+03 0.  0.
        -24    2    5    5    0    0 -0.21833331218E+02  0.51863790212E+02  0.56431696490E+03  0.57290857254E+03  0.81265297217E+02 0.  0.
          5    1    3    3  501    0 -0.10682392984E+02  0.47624801000E+01 -0.33383136091E+02  0.35683588831E+02  0.47000000000E+01 0. -1.
        -13    1    4    4    0    0  0.82208061129E+01  0.91392022363E+01  0.78720697172E+02  0.79674681260E+02  0.00000000000E+00 0.  1.
         14    1    4    4    0    0  0.54255624183E+02 -0.54337185802E+02  0.45809686767E+02  0.89413253593E+02  0.00000000000E+00 0. -1.
         -5    1    5    5    0  502 -0.29960706093E+02 -0.11428286746E+02  0.16303142049E+02  0.36278534813E+02  0.47000000000E+01 0.  1.
         13    1    6    6    0    0 -0.70884606002E+00  0.56553920749E+02  0.19709124061E+03  0.20504586204E+03  0.00000000000E+00 0. -1.
        -14    1    6    6    0    0 -0.21124485158E+02 -0.46901305368E+01  0.36722572429E+03  0.36786271050E+03  0.00000000000E+00 0.  1.
</event>
<event>
12    1  0.8196217E-002  0.2304147E+03  0.7818608E-02  0.1127458E+00
         21   -1    0    0  501  502  0.00000000000E+00  0.00000000000E+00  0.24691631787E+04  0.24691631787E+04  0.00000000000E+00 0.  1.
         21   -1    0    0  502  503 -0.00000000000E+00 -0.00000000000E+00 -0.25278210160E+02  0.25278210160E+02  0.00000000000E+00 0.  1.
         -6    2    1    2    0  503 -0.10655924308E+03 -0.11251186445E+03  0.71821096096E+03  0.75426647239E+03  0.17052018943E+03 0.  0.
        -24    2    3    3    0    0 -0.18714406661E+02 -0.11529011340E+03  0.46506616670E+03  0.48625749714E+03  0.80732737197E+02 0.  0.
          6    2    1    2  501    0  0.10655924308E+03  0.11251186445E+03  0.17256740076E+04  0.17401749164E+04  0.16200051710E+03 0.  0.
         24    2    5    5    0    0  0.10998348228E+03  0.10988341827E+03  0.10504050356E+04  0.10648757912E+04  0.80243253725E+02 0.  0.
          5    1    5    5  501    0 -0.34242392010E+01  0.26284461777E+01  0.67526897194E+03  0.67529912528E+03  0.47000000000E+01 0. -1.
        -11    1    6    6    0    0  0.73507291464E+02  0.11412084690E+03  0.89201428880E+03  0.90228398025E+03  0.00000000000E+00 0.  1.
         12    1    6    6    0    0  0.36476190817E+02 -0.42374286288E+01  0.15839074681E+03  0.16259181090E+03  0.00000000000E+00 0. -1.
         -5    1    3    3    0  503 -0.87844836419E+02  0.27782489455E+01  0.25314479426E+03  0.26800897525E+03  0.47000000000E+01 0.  1.
         13    1    4    4    0    0  0.18726799029E+02  0.90901202167E+00  0.85893685149E+02  0.87916121691E+02  0.00000000000E+00 0. -1.
        -14    1    4    4    0    0 -0.37441205690E+02 -0.11619912542E+03  0.37917248155E+03  0.39834137545E+03  0.00000000000E+00 0.  1.
</event>
<event>
12    1  0.8196217E-002  0.2697774E+03  0.7818608E-02  0.1101907E+00
         21   -1    0    0  501  502  0.00000000000E+00  0.00000000000E+00  0.35319308900E+03  0.35319308900E+03  0.00000000000E+00 0.  1.
         21   -1    0    0  502  503 -0.00000000000E+00 -0.00000000000E+00 -0.24482702163E+03  0.24482702163E+03  0.00000000000E+00 0. -1.
         -6    2    1    2    0  503  0.17613007440E+03  0.10118683420E+03 -0.68486956376E+02  0.27833485106E+03  0.17753660918E+03 0.  0.
        -24    2    3    3    0    0  0.73399460138E+02  0.45275424726E+00 -0.76080948508E+02  0.13417975165E+03  0.82632979445E+02 0.  0.
          6    2    1    2  501    0 -0.17613007440E+03 -0.10118683420E+03  0.17685302374E+03  0.31968525957E+03  0.17222396655E+03 0.  0.
         24    2    5    5    0    0 -0.19256880395E+03 -0.53495854249E+02  0.15255839509E+03  0.26349824701E+03  0.78820756082E+02 0.  0.
          5    1    5    5  501    0  0.16438729556E+02 -0.47690979955E+02  0.24294628655E+02  0.56187012556E+02  0.47000000000E+01 0. -1.
        -11    1    6    6    0    0 -0.21694362514E+02 -0.30009341030E+02  0.52022514889E+02  0.63855680791E+02  0.00000000000E+00 0.  1.
         12    1    6    6    0    0 -0.17087444144E+03 -0.23486513219E+02  0.10053588020E+03  0.19964256622E+03  0.00000000000E+00 0. -1.
         -5    1    3    3    0  503  0.10273061426E+03  0.10073407996E+03  0.75939921318E+01  0.14415509941E+03  0.47000000000E+01 0.  1.
         13    1    4    4    0    0  0.80948048694E+02  0.66824662174E+01 -0.29238470387E+02  0.86325720922E+02  0.00000000000E+00 0. -1.
        -14    1    4    4    0    0 -0.75485885558E+01 -0.62297119701E+01 -0.46842478120E+02  0.47854030727E+02  0.00000000000E+00 0.  1.
</event>
<event>
12    1  0.8196217E-002  0.1938885E+03  0.7818608E-02  0.1155299E+00
         21   -1    0    0  501  502  0.00000000000E+00  0.00000000000E+00  0.60581802853E+02  0.60581802853E+02  0.00000000000E+00 0. -1.
         21   -1    0    0  502  503 -0.00000000000E+00 -0.00000000000E+00 -0.10802919993E+04  0.10802919993E+04  0.00000000000E+00 0. -1.
         -6    2    1    2    0  503  0.30441728475E+02 -0.82334360082E+02 -0.88272087247E+03  0.90347366851E+03  0.17135601922E+03 0.  0.
        -24    2    3    3    0    0  0.17404941568E+02 -0.65163288572E+02 -0.25498795247E+03  0.27535304923E+03  0.79064907836E+02 0.  0.
          6    2    1    2  501    0 -0.30441728475E+02  0.82334360082E+02 -0.13698932402E+03  0.23740013368E+03  0.17287886769E+03 0.  0.
         24    2    5    5    0    0 -0.28386766454E+02  0.10342629873E+03 -0.15848885756E+03  0.20684833035E+03  0.78515641859E+02 0.  0.
          5    1    5    5  501    0 -0.20549620214E+01 -0.21091938649E+02  0.21499533538E+02  0.30551803339E+02  0.47000000000E+01 0. -1.
        -11    1    6    6    0    0  0.18522964357E+02  0.48440052899E+02 -0.10440567296E+03  0.11657651341E+03  0.00000000000E+00 0.  1.
         12    1    6    6    0    0 -0.46909730811E+02  0.54986245832E+02 -0.54083184601E+02  0.90271816931E+02  0.00000000000E+00 0. -1.
         -5    1    3    3    0  503  0.13036786908E+02 -0.17171071510E+02 -0.62773292000E+03  0.62812061928E+03  0.47000000000E+01 0.  1.
         11    1    4    4    0    0  0.63651168428E+01  0.15989261564E+01 -0.15188730980E+03  0.15202903064E+03  0.00000000000E+00 0. -1.
        -12    1    4    4    0    0  0.11039824725E+02 -0.66762214729E+02 -0.10310064266E+03  0.12332401860E+03  0.00000000000E+00 0.  1.
</event>
<event>
12    1  0.8196217E-002  0.2200768E+03  0.7818608E-02  0.1134207E+00
         21   -1    0    0  503  502  0.00000000000E+00  0.00000000000E+00  0.37622644935E+03  0.37622644935E+03  0.00000000000E+00 0. -1.
         21   -1    0    0  501  503 -0.00000000000E+00 -0.00000000000E+00 -0.19312363231E+03  0.19312363231E+03  0.00000000000E+00 0. -1.
          6    2    1    2  501    0 -0.10700464467E+03 -0.82347931560E+02 -0.74610445293E+02  0.23045490056E+03  0.17120621142E+03 0.  0.
         24    2    3    3    0    0 -0.64513611763E+02 -0.70865872581E+02  0.18124840316E+02  0.12769669527E+03  0.82425470262E+02 0.  0.
         -6    2    1    2    0  502  0.10700464467E+03  0.82347931560E+02  0.25771326234E+03  0.33889518110E+03  0.17378907438E+03 0.  0.
        -24    2    5    5    0    0 -0.13706550784E+02  0.48854706333E+02  0.14281972335E+03  0.16884929275E+03  0.74417460444E+02 0.  0.
          5    1    3    3  501    0 -0.42491032907E+02 -0.11482058979E+02 -0.92735285609E+02  0.10275820528E+03  0.47000000000E+01 0. -1.
        -11    1    4    4    0    0  0.22358013453E+01 -0.53522378816E+02 -0.75669306142E+01  0.54100852865E+02  0.00000000000E+00 0.  1.
         12    1    4    4    0    0 -0.66749413108E+02 -0.17343493765E+02  0.25691770930E+02  0.73595842408E+02  0.00000000000E+00 0. -1.
         -5    1    5    5    0  502  0.12071119545E+03  0.33493225226E+02  0.11489353899E+03  0.17004588835E+03  0.47000000000E+01 0.  1.
         13    1    6    6    0    0  0.68140978993E+00 -0.17098459978E+02  0.57855909527E+02  0.60333472634E+02  0.00000000000E+00 0. -1.
        -14    1    6    6    0    0 -0.14387960574E+02  0.65953166311E+02  0.84963813827E+02  0.10851582012E+03  0.00000000000E+00 0.  1.
</event>
<event>
12    1  0.8196217E-002  0.2664551E+03  0.7818608E-02  0.1103375E+00
         21   -1    0    0  503  502  0.00000000000E+00  0.00000000000E+00  0.74905831553E+02  0.74905831553E+02  0.00000000000E+00 0. -1.
         21   -1    0    0  501  503 -0.00000000000E+00 -0.00000000000E+00 -0.12419763455E+04  0.12419763455E+04  0.00000000000E+00 0.  1.
          6    2    1    2  501    0  0.12394007401E+02  0.20239186317E+03 -0.90489810139E+03  0.94331272330E+03  0.17286480944E+03 0.  0.
         24    2    3    3    0    0  0.41086386981E+02  0.64496584773E+02 -0.56370536211E+03  0.57416107995E+03  0.77777309132E+02 0.  0.
         -6    2    1    2    0  502 -0.12394007401E+02 -0.20239186317E+03 -0.26217241255E+03  0.37356945374E+03  0.17234757083E+03 0.  0.
        -24    2    5    5    0    0 -0.11554650952E+02 -0.19228889315E+03 -0.28213399335E+03  0.35069306349E+03  0.79230714912E+02 0.  0.
          5    1    3    3  501    0 -0.28692379580E+02  0.13789527840E+03 -0.34119273928E+03  0.36915164335E+03  0.47000000000E+01 0. -1.
        -13    1    4    4    0    0  0.57256047865E+02  0.30018994043E+02 -0.25292924441E+03  0.26106052497E+03  0.00000000000E+00 0.  1.
         14    1    4    4    0    0 -0.16169660883E+02  0.34477590729E+02 -0.31077611770E+03  0.31310055498E+03  0.00000000000E+00 0. -1.
         -5    1    5    5    0  502 -0.83935644889E+00 -0.10102970025E+02  0.19961580809E+02  0.22876390253E+02  0.47000000000E+01 0.  1.
         13    1    6    6    0    0 -0.35927880473E+02 -0.16331870283E+03 -0.20329505643E+03  0.26323504945E+03  0.00000000000E+00 0. -1.
        -14    1    6    6    0    0  0.24373229521E+02 -0.28970190318E+02 -0.78838936922E+02  0.87458014037E+02  0.00000000000E+00 0.  1.
</event>
<event>
12    1  0.8196217E-002  0.1752331E+03  0.7818608E-02  0.1172987E+00
         21   -1    0    0  503  502  0.00000000000E+00  0.00000000000E+00  0.86719929732E+03  0.86719929732E+03  0.00000000000E+00 0.  1.
         21   -1    0    0  501  503 -0.00000000000E+00 -0.00000000000E+00 -0.58946283852E+02  0.58946283852E+02  0.00000000000E+00 0.  1.
          6    2    1    2  501    0 -0.24820141762E+02  0.10193474749E+02  0.10775609825E+03  0.20406348688E+03  0.17120333993E+03 0.  0.
         24    2    3    3    0    0 -0.83009899902E+02  0.21655034313E+01  0.72733835852E+02  0.13551317587E+03  0.78602016961E+02 0.  0.
         -6    2    1    2    0  502  0.24820141762E+02 -0.10193474749E+02  0.70049691521E+03  0.72208209429E+03  0.17316661430E+03 0.  0.
        -24    2    5    5    0    0  0.18798806579E+02  0.33776549726E+02  0.24180222202E+03  0.26122145256E+03  0.90961982527E+02 0.  0.
          5    1    3    3  501    0  0.58189758140E+02  0.80279713181E+01  0.35022262402E+02  0.68550311010E+02  0.47000000000E+01 0. -1.
        -13    1    4    4    0    0 -0.89917198332E+00 -0.27107638056E+02  0.15664658707E+02  0.31321144354E+02  0.00000000000E+00 0.  1.
         14    1    4    4    0    0 -0.82110727919E+02  0.29273141487E+02  0.57069177145E+02  0.10419203152E+03  0.00000000000E+00 0. -1.
         -5    1    5    5    0  502  0.60213351828E+01 -0.43970024475E+02  0.45869469319E+03  0.46086064172E+03  0.47000000000E+01 0.  1.
         13    1    6    6    0    0 -0.20206767646E+02  0.34260381765E+01  0.75961396471E+01  0.21857550956E+02  0.00000000000E+00 0. -1.
        -14    1    6    6    0    0  0.39005574225E+02  0.30350511549E+02  0.23420608237E+03  0.23936390161E+03  0.00000000000E+00 0.  1.
</event>
<event>
12    1  0.8196217E-002  0.2411099E+03  0.7818608E-02  0.1119086E+00
         21   -1    0    0  501  502  0.00000000000E+00  0.00000000000E+00  0.71161404233E+03  0.71161404233E+03  0.00000000000E+00 0. -1.
         21   -1    0    0  502  503 -0.00000000000E+00 -0.00000000000E+00 -0.93222475026E+02  0.93222475026E+02  0.00000000000E+00 0. -1.
         -6    2    1    2    0  503  0.10693252801E+03 -0.13105384889E+03  0.16739856421E+03  0.29352386756E+03  0.17182637945E+03 0.  0.
        -24    2    3    3    0    0  0.84678232775E+02 -0.10809699788E+03  0.41934944949E+02  0.16396507619E+03  0.79187388804E+02 0.  0.
          6    2    1    2  501    0 -0.10693252801E+03  0.13105384889E+03  0.45099300309E+03  0.51131264979E+03  0.17156998613E+03 0.  0.
         24    2    5    5    0    0 -0.17099774858E+02  0.12026626602E+03  0.32674208891E+03  0.35753789517E+03  0.79476894598E+02 0.  0.
          5    1    5    5  501    0 -0.89832753151E+02  0.10787582871E+02  0.12425091419E+03  0.15377475462E+03  0.47000000000E+01 0. -1.
        -11    1    6    6    0    0 -0.16808284830E+00  0.12400800989E+03  0.25263734462E+03  0.28143141734E+03  0.00000000000E+00 0.  1.
         12    1    6    6    0    0 -0.16931692010E+02 -0.37417438718E+01  0.74104744285E+02  0.76106477826E+02  0.00000000000E+00 0. -1.
         -5    1    3    3    0  503  0.22254295234E+02 -0.22956851018E+02  0.12546361926E+03  0.12955879138E+03  0.47000000000E+01 0.  1.
         13    1    4    4    0    0  0.84485936217E+02 -0.10453431113E+03  0.58814836318E+02  0.14671223736E+03  0.00000000000E+00 0. -1.
        -14    1    4    4    0    0  0.19229655795E+00 -0.35626867497E+01 -0.16879891369E+02  0.17252838824E+02  0.00000000000E+00 0.  1.
</event>
<event>
12    1  0.8196217E-002  0.2065955E+03  0.7818608E-02  0.1144427E+00
         21   -1    0    0  503  502  0.00000000000E+00  0.00000000000E+00  0.36823953309E+03  0.36823953309E+03  0.00000000000E+00 0.  1.
         21   -1    0    0  501  503 -0.00000000000E+00 -0.00000000000E+00 -0.16304841675E+03  0.16304841675E+03  0.00000000000E+00 0. -1.
          6    2    1    2  501    0 -0.70166984110E+02 -0.90448567073E+02 -0.40691888277E+02  0.21056476552E+03  0.17198064357E+03 0.  0.
         24    2    3    3    0    0  0.21307847133E+02 -0.37441978432E+02 -0.50230259306E+02  0.10430840707E+03  0.80630259436E+02 0.  0.
         -6    2    1    2    0  502  0.70166984110E+02  0.90448567073E+02  0.24588300462E+03  0.32072318432E+03  0.17117406362E+03 0.  0.
        -24    2    5    5    0    0  0.82677356604E+02 -0.48104588717E+00  0.94908935054E+02  0.14397487849E+03  0.69894799404E+02 0.  0.
          5    1    3    3  501    0 -0.91474831243E+02 -0.53006588641E+02  0.95383710287E+01  0.10625635846E+03  0.47000000000E+01 0. -1.
        -13    1    4    4    0    0 -0.15288209358E+02 -0.19456387524E+02  0.13848162582E+02  0.28355810123E+02  0.00000000000E+00 0.  1.
         14    1    4    4    0    0  0.36596056492E+02 -0.17985590909E+02 -0.64078421887E+02  0.75952596945E+02  0.00000000000E+00 0. -1.
         -5    1    5    5    0  502 -0.12510372494E+02  0.90929612960E+02  0.15097406956E+03  0.17674830583E+03  0.47000000000E+01 0.  1.
         11    1    6    6    0    0 -0.32585061848E+01  0.12534471539E+02 -0.27500269314E+01  0.13239844691E+02  0.00000000000E+00 0. -1.
        -12    1    6    6    0    0  0.85935862789E+02 -0.13015517426E+02  0.97658961985E+02  0.13073503380E+03  0.00000000000E+00 0.  1.
</event>
<event>
12    1  0.8196217E-002  0.2888247E+03  0.7818608E-02  0.1090987E+00
         21   -1    0    0  501  502  0.00000000000E+00  0.00000000000E+00  0.38672142223E+03  0.38672142223E+03  0.00000000000E+00 0.  1.
         21   -1    0    0  502  503 -0.00000000000E+00 -0.00000000000E+00 -0.49938249752E+03  0.49938249752E+03  0.00000000000E+00 0. -1.
         -6    2    1    2    0  503  0.23185111709E+03  0.51364472768E+01 -0.39033792987E+03  0.48557536060E+03  0.17215808940E+03 0.  0.
        -24    2    3    3    0    0  0.14476471776E+03 -0.63450499681E+02 -0.22080153132E+03  0.28296023117E+03  0.79563727762E+02 0.  0.
          6    2    1    2  501    0 -0.23185111709E+03 -0.51364472768E+01  0.27767685457E+03  0.40052855915E+03  0.17186438706E+03 0.  0.
         24    2    5    5    0    0 -0.67644001804E+02  0.17777406475E+02  0.46509423246E+02  0.11601231583E+03  0.80024894958E+02 0.  0.
          5    1    5    5  501    0 -0.16420711529E+03 -0.22913853752E+02  0.23116743133E+03  0.28451624332E+03  0.47000000000E+01 0. -1.
        -11    1    6    6    0    0 -0.42723225244E+00  0.29765858984E+02  0.36348325461E+02  0.46982865518E+02  0.00000000000E+00 0.  1.
         12    1    6    6    0    0 -0.67216769551E+02 -0.11988452509E+02  0.10161097785E+02  0.69029450314E+02  0.00000000000E+00 0. -1.
         -5    1    3    3    0  503  0.87086399329E+02  0.68586946957E+02 -0.16953639855E+03  0.20261512943E+03  0.47000000000E+01 0.  1.
         11    1    4    4    0    0  0.35132539055E+02  0.34718821448E+01 -0.10223144600E+03  0.10815552606E+03  0.00000000000E+00 0. -1.
        -12    1    4    4    0    0  0.10963217871E+03 -0.66922381826E+02 -0.11857008531E+03  0.17480470511E+03  0.00000000000E+00 0.  1.
</event>
<event>
12    1  0.8196217E-002  0.2692660E+03  0.7818608E-02  0.1101921E+00
         21   -1    0    0  503  502  0.00000000000E+00  0.00000000000E+00  0.25549234220E+03  0.25549234220E+03  0.00000000000E+00 0. -1.
         21   -1    0    0  501  503 -0.00000000000E+00 -0.00000000000E+00 -0.33426323944E+03  0.33426323944E+03  0.00000000000E+00 0. -1.
          6    2    1    2  501    0 -0.20652623733E+03  0.64789787607E+01 -0.15589233347E+03  0.31113761282E+03  0.17265320908E+03 0.  0.
         24    2    3    3    0    0 -0.10113713088E+03  0.61554020139E+02 -0.11381725740E+03  0.18491350273E+03  0.84976577786E+02 0.  0.
         -6    2    1    2    0  502  0.20652623733E+03 -0.64789787607E+01  0.77121436236E+02  0.27861796882E+03  0.17025038253E+03 0.  0.
        -24    2    5    5    0    0  0.21718091392E+03 -0.35698990450E+02  0.50598132438E+02  0.23747301942E+03  0.73425449650E+02 0.  0.
          5    1    3    3  501    0 -0.10538910646E+03 -0.55075041378E+02 -0.42075076071E+02  0.12622411009E+03  0.47000000000E+01 0. -1.
        -13    1    4    4    0    0  0.44033348100E+01  0.12908400442E+02 -0.51037372062E+02  0.52828302135E+02  0.00000000000E+00 0.  1.
         14    1    4    4    0    0 -0.10554046569E+03  0.48645619697E+02 -0.62779885336E+02  0.13208520059E+03  0.00000000000E+00 0. -1.
         -5    1    5    5    0  502 -0.10654676594E+02  0.29220011689E+02  0.26523303799E+02  0.41144949396E+02  0.47000000000E+01 0.  1.
         13    1    6    6    0    0  0.17137625115E+03 -0.51256072484E+02  0.59037688809E+02  0.18836786649E+03  0.00000000000E+00 0. -1.
        -14    1    6    6    0    0  0.45804662774E+02  0.15557082035E+02 -0.84395563716E+01  0.49105152938E+02  0.00000000000E+00 0.  1.
</event>
<event>
12    1  0.8196217E-002  0.2579098E+03  0.7818608E-02  0.1108493E+00
         21   -1    0    0  501  502  0.00000000000E+00  0.00000000000E+00  0.46545323361E+03  0.46545323361E+03  0.00000000000E+00 0.  1.
         21   -1    0    0  502  503 -0.00000000000E+00 -0.00000000000E+00 -0.14876869147E+03  0.14876869147E+03  0.00000000000E+00 0. -1.
         -6    2    1    2    0  503  0.19165840016E+03 -0.44646116219E+00  0.95934968611E+02  0.27517445854E+03  0.17258135110E+03 0.  0.
        -24    2    3    3    0    0  0.35575804419E+02  0.66908237709E+01  0.82703981986E+02  0.11829913691E+03  0.76448231983E+02 0.  0.
          6    2    1    2  501    0 -0.19165840016E+03  0.44646116219E+00  0.22074957352E+03  0.33904746655E+03  0.17172556211E+03 0.  0.
         24    2    5    5    0    0 -0.73967773497E+02 -0.15563663839E+01  0.18659638396E+03  0.21639500925E+03  0.80838949335E+02 0.  0.
          5    1    5    5  501    0 -0.11769062666E+03  0.20028275461E+01  0.34153189562E+02  0.12265245729E+03  0.47000000000E+01 0. -1.
        -11    1    6    6    0    0  0.11585353509E+02  0.56795250406E+01  0.72302380230E+02  0.73444615920E+02  0.00000000000E+00 0.  1.
         12    1    6    6    0    0 -0.85553127006E+02 -0.72358914245E+01  0.11429400373E+03  0.14295039333E+03  0.00000000000E+00 0. -1.
         -5    1    3    3    0  503  0.15608259574E+03 -0.71372849331E+01  0.13230986624E+02  0.15687532163E+03  0.47000000000E+01 0.  1.
         11    1    4    4    0    0  0.48336512804E+02  0.13770147872E+02  0.20288078798E+02  0.54200014610E+02  0.00000000000E+00 0. -1.
        -12    1    4    4    0    0 -0.12760708385E+02 -0.70793241012E+01  0.62415903188E+02  0.64099122295E+02  0.00000000000E+00 0.  1.
</event>
<event>
12    1  0.8196217E-002  0.2413928E+03  0.7818608E-02  0.1120990E+00
         21   -1    0    0  503  502  0.00000000000E+00  0.00000000000E+00  0.13210641503E+03  0.13210641503E+03  0.00000000000E+00 0. -1.
         21   -1    0    0  501  503 -0.00000000000E+00 -0.00000000000E+00 -0.51111055485E+03  0.51111055485E+03  0.00000000000E+00 0. -1.
          6    2    1    2  501    0  0.59695840431E+02 -0.13808034188E+03 -0.33041050142E+03  0.40919626426E+03  0.18878747060E+03 0.  0.
         24    2    3    3    0    0  0.10971089064E+03 -0.11407820147E+03 -0.19939444289E+03  0.26684140630E+03  0.79974225139E+02 0.  0.
         -6    2    1    2    0  502 -0.59695840431E+02  0.13808034188E+03 -0.48593638403E+02  0.23402070563E+03  0.17255310716E+03 0.  0.
        -24    2    5    5    0    0  0.12319707386E+02  0.64929070406E+02  0.26317961716E+02  0.10685472952E+03  0.79735429632E+02 0.  0.
          5    1    3    3  501    0 -0.50015050207E+02 -0.24002140416E+02 -0.13101605853E+03  0.14235485796E+03  0.47000000000E+01 0. -1.
        -11    1    4    4    0    0  0.35519206140E+02 -0.61681113203E+01 -0.11550523450E+02  0.37855966426E+02  0.00000000000E+00 0.  1.
         12    1    4    4    0    0  0.74191684498E+02 -0.10791009015E+03 -0.18784391944E+03  0.22898543988E+03  0.00000000000E+00 0. -1.
         -5    1    5    5    0  502 -0.72015547817E+02  0.73151271478E+02 -0.74911600119E+02  0.12716597610E+03  0.47000000000E+01 0.  1.
         11    1    6    6    0    0 -0.24057886792E+02  0.15946580636E+02  0.34847188363E+02  0.45248225244E+02  0.00000000000E+00 0. -1.
        -12    1    6    6    0    0  0.36377594178E+02  0.48982489769E+02 -0.85292266472E+01  0.61606504278E+02  0.00000000000E+00 0.  1.
</event>
<event>
12    1  0.8196217E-002  0.1911201E+03  0.7818608E-02  0.1157557E+00
         21   -1    0    0  501  502  0.00000000000E+00  0.00000000000E+00  0.45572399202E+02  0.45572399202E+02  0.00000000000E+00 0.  1.
         21   -1    0    0  502  503 -0.00000000000E+00 -0.00000000000E+00 -0.80134891362E+03  0.80134891362E+03  0.00000000000E+00 0.  1.
         -6    2    1    2    0  503 -0.80935451123E+02  0.11494396930E+02 -0.39814108901E+03  0.44163696928E+03  0.17275479000E+03 0.  0.
        -24    2    3    3    0    0 -0.11070590171E+03 -0.26198302904E+02 -0.33496803284E+03  0.36213889147E+03  0.77452217194E+02 0.  0.
          6    2    1    2  501    0  0.80935451123E+02 -0.11494396930E+02 -0.35763542541E+03  0.40528434354E+03  0.17224875385E+03 0.  0.
         24    2    5    5    0    0  0.11562433149E+03 -0.23512753799E+02 -0.32996339468E+03  0.35907189275E+03  0.78325900654E+02 0.  0.
          5    1    5    5  501    0 -0.34688880370E+02  0.12018356869E+02 -0.27672030728E+02  0.46212450787E+02  0.47000000000E+01 0. -1.
        -11    1    6    6    0    0  0.83130556930E+02 -0.36833039040E+02 -0.14760346955E+03  0.17336131773E+03  0.00000000000E+00 0.  1.
         12    1    6    6    0    0  0.32493774562E+02  0.13320285241E+02 -0.18235992513E+03  0.18571057503E+03  0.00000000000E+00 0. -1.
         -5    1    3    3    0  503  0.29770450583E+02  0.37692699835E+02 -0.63173056179E+02  0.79498077811E+02  0.47000000000E+01 0.  1.
         13    1    4    4    0    0 -0.16043239515E+02 -0.36427217999E+02 -0.69211364473E+02  0.79840720922E+02  0.00000000000E+00 0. -1.
        -14    1    4    4    0    0 -0.94662662190E+02  0.10228915094E+02 -0.26575666836E+03  0.28229817055E+03  0.00000000000E+00 0.  1.
</event>
<event>
12    1  0.8196217E-002  0.2011415E+03  0.7818608E-02  0.1148902E+00
         21   -1    0    0  503  502  0.00000000000E+00  0.00000000000E+00  0.30390025848E+02  0.30390025848E+02  0.00000000000E+00 0. -1.
         21   -1    0    0  501  503 -0.00000000000E+00 -0.00000000000E+00 -0.13347691188E+04  0.13347691188E+04  0.00000000000E+00 0.  1.
          6    2    1    2  501    0 -0.24408598101E+02 -0.10044719695E+03 -0.70183617461E+03  0.72993016232E+03  0.17186799250E+03 0.  0.
         24    2    3    3    0    0 -0.62183745487E+02 -0.22501702035E+02 -0.47515777985E+03  0.48722118724E+03  0.85067177838E+02 0.  0.
         -6    2    1    2    0  502  0.24408598101E+02  0.10044719695E+03 -0.60254291830E+03  0.63522898228E+03  0.17254701533E+03 0.  0.
        -24    2    5    5    0    0 -0.53755061479E+01 -0.16910905666E+02 -0.19468658024E+03  0.20975407161E+03  0.76019939714E+02 0.  0.
          5    1    3    3  501    0  0.37775147386E+02 -0.77945494913E+02 -0.22667839475E+03  0.24270897508E+03  0.47000000000E+01 0. -1.
        -13    1    4    4    0    0 -0.74400146938E+02 -0.39681166048E+02 -0.41492545595E+03  0.42340655498E+03  0.00000000000E+00 0.  1.
         14    1    4    4    0    0  0.12216401450E+02  0.17179464013E+02 -0.60232323904E+02  0.63814632264E+02  0.00000000000E+00 0. -1.
         -5    1    5    5    0  502  0.29784104249E+02  0.11735810261E+03 -0.40785633806E+03  0.42547491067E+03  0.47000000000E+01 0.  1.
         13    1    6    6    0    0  0.10265484396E+02 -0.92425328939E+01  0.47038659797E+00  0.13821210068E+02  0.00000000000E+00 0. -1.
        -14    1    6    6    0    0 -0.15640990544E+02 -0.76683727720E+01 -0.19515696684E+03  0.19593286155E+03  0.00000000000E+00 0.  1.
</event>
<event>
12    1  0.8196217E-002  0.3240567E+03  0.7818608E-02  0.1073810E+00
         21   -1    0    0  503  502  0.00000000000E+00  0.00000000000E+00  0.39375701857E+03  0.39375701857E+03  0.00000000000E+00 0.  1.
         21   -1    0    0  501  503 -0.00000000000E+00 -0.00000000000E+00 -0.39044384631E+03  0.39044384631E+03  0.00000000000E+00 0. -1.
          6    2    1    2  501    0  0.67441087923E+02  0.26581657492E+03 -0.21917289207E+03  0.39111970547E+03  0.17242713110E+03 0.  0.
         24    2    3    3    0    0 -0.46510915743E+01  0.22817147087E+03 -0.14955740898E+03  0.28396168341E+03  0.78631840204E+02 0.  0.
         -6    2    1    2    0  502 -0.67441087923E+02 -0.26581657492E+03  0.22248606433E+03  0.39308115941E+03  0.17264413461E+03 0.  0.
        -24    2    5    5    0    0 -0.10240073527E+03 -0.21329834700E+03  0.13154860191E+03  0.28230185954E+03  0.80045048686E+02 0.  0.
          5    1    3    3  501    0  0.72092179498E+02  0.37645104048E+02 -0.69615483096E+02  0.10715802205E+03  0.47000000000E+01 0. -1.
        -13    1    4    4    0    0 -0.12497389726E+01  0.24589366115E+02  0.86657650141E+01  0.26101614063E+02  0.00000000000E+00 0.  1.
         14    1    4    4    0    0 -0.34013526017E+01  0.20358210476E+03 -0.15822317399E+03  0.25786006935E+03  0.00000000000E+00 0. -1.
         -5    1    5    5    0  502  0.34959647350E+02 -0.52518227919E+02  0.90937462419E+02  0.11077929986E+03  0.47000000000E+01 0.  1.
         11    1    6    6    0    0 -0.21369739575E+02 -0.56472456190E+01 -0.24260642910E+01  0.22236072957E+02  0.00000000000E+00 0. -1.
        -12    1    6    6    0    0 -0.81030995698E+02 -0.20765110138E+03  0.13397466620E+03  0.26006578659E+03  0.00000000000E+00 0.  1.
</event>
<event>
12    1  0.8196217E-002  0.1711041E+03  0.7818608E-02  0.1178556E+00
         21   -1    0    0  501  502  0.00000000000E+00  0.00000000000E+00  0.62401137155E+03  0.62401137155E+03  0.00000000000E+00 0.  1.
         21   -1    0    0  502  503 -0.00000000000E+00 -0.00000000000E+00 -0.65847430340E+02  0.65847430340E+02  0.00000000000E+00 0.  1.
         -6    2    1    2    0  503 -0.58192698661E+01 -0.82448299204E+00  0.89080848965E+02  0.19290411457E+03  0.17100308796E+03 0.  0.
        -24    2    3    3    0    0  0.56000528581E+02  0.11632207720E+02  0.21542374851E+02  0.10038172750E+03  0.79630709178E+02 0.  0.
          6    2    1    2  501    0  0.58192698661E+01  0.82448299204E+00  0.46908309224E+03  0.49695468731E+03  0.16398313981E+03 0.  0.
         24    2    5    5    0    0 -0.23880914913E+01 -0.48538828465E+02  0.17382445164E+03  0.19744867377E+03  0.80058215920E+02 0.  0.
          5    1    5    5  501    0  0.82073613575E+01  0.49363311457E+02  0.29525864060E+03  0.29950601354E+03  0.47000000000E+01 0. -1.
        -11    1    6    6    0    0  0.35042583724E+01 -0.13187032342E+02  0.15745965643E+03  0.15804974234E+03  0.00000000000E+00 0.  1.
         12    1    6    6    0    0 -0.58923498637E+01 -0.35351796123E+02  0.16364795209E+02  0.39398931436E+02  0.00000000000E+00 0. -1.
         -5    1    3    3    0  503 -0.61819798448E+02 -0.12456690712E+02  0.67538474114E+02  0.92522387071E+02  0.47000000000E+01 0.  1.
         11    1    4    4    0    0 -0.13229210431E+02 -0.34060872597E+01  0.26028574913E+02  0.29395580468E+02  0.00000000000E+00 0. -1.
        -12    1    4    4    0    0  0.69229739013E+02  0.15038294980E+02 -0.44862000617E+01  0.70986147034E+02  0.00000000000E+00 0.  1.
</event>
<event>
12    1  0.8196217E-002  0.1981170E+03  0.7818608E-02  0.1151371E+00
         21   -1    0    0  501  502  0.00000000000E+00  0.00000000000E+00  0.92390428004E+02  0.92390428004E+02  0.00000000000E+00 0. -1.
         21   -1    0    0  502  503 -0.00000000000E+00 -0.00000000000E+00 -0.46068406422E+03  0.46068406422E+03  0.00000000000E+00 0. -1.
         -6    2    1    2    0  503  0.71697950406E+02 -0.66832498357E+02 -0.26172141822E+03  0.32825060932E+03  0.17217195717E+03 0.  0.
        -24    2    3    3    0    0  0.94061962481E+02 -0.70281086261E+02 -0.26916140871E+03  0.30397129192E+03  0.78508588702E+02 0.  0.
          6    2    1    2  501    0 -0.71697950406E+02  0.66832498357E+02 -0.10657221800E+03  0.22482388291E+03  0.17199116764E+03 0.  0.
         24    2    5    5    0    0  0.30588324050E+02  0.35474956761E+02 -0.46303697970E+02  0.10194116702E+03  0.77806496919E+02 0.  0.
          5    1    5    5  501    0 -0.10228627446E+03  0.31357541596E+02 -0.60268520031E+02  0.12288271589E+03  0.47000000000E+01 0. -1.
        -13    1    6    6    0    0  0.36998475964E+02  0.27167795393E+02  0.80340478072E+01  0.46599595002E+02  0.00000000000E+00 0.  1.
         14    1    6    6    0    0 -0.64101519141E+01  0.83071613682E+01 -0.54337745777E+02  0.55341572021E+02  0.00000000000E+00 0. -1.
         -5    1    3    3    0  503 -0.22364012075E+02  0.34485879039E+01  0.74399904960E+01  0.24279317396E+02  0.47000000000E+01 0.  1.
         13    1    4    4    0    0  0.66678027150E+02 -0.43914984032E+02 -0.87818345098E+02  0.11868675943E+03  0.00000000000E+00 0. -1.
        -14    1    4    4    0    0  0.27383935332E+02 -0.26366102228E+02 -0.18134306361E+03  0.18528453250E+03  0.00000000000E+00 0.  1.
</event>
<event>
12    1  0.8196217E-002  0.2809913E+03  0.7818608E-02  0.1095844E+00
         21   -1    0    0  501  502  0.00000000000E+00  0.00000000000E+00  0.98651554145E+02  0.98651554145E+02  0.00000000000E+00 0. -1.
         21   -1    0    0  502  503 -0.00000000000E+00 -0.00000000000E+00 -0.11375523262E+04  0.11375523262E+04  0.00000000000E+00 0.  1.
         -6    2    1    2    0  503  0.18564173557E+03 -0.10337059937E+03 -0.86632929404E+03  0.91075932600E+03  0.18386889183E+03 0.  0.
        -24    2    3    3    0    0  0.95400386060E+02 -0.24872641348E+01 -0.24469547115E+03  0.27454265831E+03  0.79939836660E+02 0.  0.
          6    2    1    2  501    0 -0.18564173557E+03  0.10337059937E+03 -0.17257147805E+03  0.32544455438E+03  0.17602530539E+03 0.  0.
         24    2    5    5    0    0 -0.35499466455E+02  0.48105524822E+02 -0.13186505318E+03  0.16028998294E+03  0.68775960512E+02 0.  0.
          5    1    5    5  501    0 -0.15014226912E+03  0.55265074544E+02 -0.40706424867E+02  0.16515457144E+03  0.47000000000E+01 0. -1.
        -11    1    6    6    0    0  0.13518275507E+01  0.47179775611E+02 -0.42085644843E+02  0.63237332062E+02  0.00000000000E+00 0.  1.
         12    1    6    6    0    0 -0.36851294006E+02  0.92574921081E+00 -0.89779408337E+02  0.97052650880E+02  0.00000000000E+00 0. -1.
         -5    1    3    3    0  503  0.90241349515E+02 -0.10088333523E+03 -0.62163382289E+03  0.63621666770E+03  0.47000000000E+01 0.  1.
         11    1    4    4    0    0  0.10533633488E+03 -0.15384270899E+02 -0.22555813619E+03  0.24941710454E+03  0.00000000000E+00 0. -1.
        -12    1    4    4    0    0 -0.99359488233E+01  0.12897006764E+02 -0.19137334960E+02  0.25125553762E+02  0.00000000000E+00 0.  1.
</event>
<event>
12    1  0.8196217E-002  0.2146835E+03  0.7818608E-02  0.1137974E+00
         21   -1    0    0  501  502  0.00000000000E+00  0.00000000000E+00  0.87770063745E+02  0.87770063745E+02  0.00000000000E+00 0. -1.
         21   -1    0    0  502  503 -0.00000000000E+00 -0.00000000000E+00 -0.11158247668E+04  0.11158247668E+04  0.00000000000E+00 0. -1.
         -6    2    1    2    0  503 -0.12610740460E+03  0.30914974613E+02 -0.95200683626E+03  0.97583999955E+03  0.17055167922E+03 0.  0.
        -24    2    3    3    0    0 -0.14795620344E+03  0.46890541808E+02 -0.67545714671E+03  0.69792920532E+03  0.82298587786E+02 0.  0.
          6    2    1    2  501    0  0.12610740460E+03 -0.30914974613E+02 -0.76047866811E+02  0.22775483101E+03  0.17096833582E+03 0.  0.
         24    2    5    5    0    0  0.12413509371E+03 -0.70148310283E+02 -0.85169588679E+02  0.18715384029E+03  0.86269311887E+02 0.  0.
          5    1    5    5  501    0  0.19723108917E+01  0.39233335670E+02  0.91217218689E+01  0.40600990725E+02  0.47000000000E+01 0. -1.
        -11    1    6    6    0    0  0.90686246196E+00 -0.47820330295E+01 -0.40344188859E+02  0.40636729864E+02  0.00000000000E+00 0.  1.
         12    1    6    6    0    0  0.12322823124E+03 -0.65366277253E+02 -0.44825399821E+02  0.14651711042E+03  0.00000000000E+00 0. -1.
         -5    1    3    3    0  503  0.21848798840E+02 -0.15975567195E+02 -0.27654968955E+03  0.27791079423E+03  0.47000000000E+01 0.  1.
         11    1    4    4    0    0 -0.89788267054E+02 -0.14550439804E+02 -0.33755694571E+03  0.34959739672E+03  0.00000000000E+00 0. -1.
        -12    1    4    4    0    0 -0.58167936383E+02  0.61440981613E+02 -0.33790020100E+03  0.34833180860E+03  0.00000000000E+00 0.  1.
</event>
<event>
12    1  0.8196217E-002  0.2230921E+03  0.7818608E-02  0.1131829E+00
         21   -1    0    0  501  502  0.00000000000E+00  0.00000000000E+00  0.25701305336E+03  0.25701305336E+03  0.00000000000E+00 0. -1.
         21   -1    0    0  502  503 -0.00000000000E+00 -0.00000000000E+00 -0.19287552405E+03  0.19287552405E+03  0.00000000000E+00 0.  1.
         -6    2    1    2    0  503 -0.13875586252E+03 -0.33073049547E+02  0.41232425487E+02  0.22687048106E+03  0.17153158974E+03 0.  0.
        -24    2    3    3    0    0 -0.33704276130E+02 -0.54853028985E+02  0.55236848287E+02  0.11857266407E+03  0.82846449765E+02 0.  0.
          6    2    1    2  501    0  0.13875586252E+03  0.33073049547E+02  0.22905103821E+02  0.22301809634E+03  0.16989823874E+03 0.  0.
         24    2    5    5    0    0  0.16057542613E+03  0.24742742317E+02 -0.66101360764E+01  0.18508754452E+03  0.88413994726E+02 0.  0.
          5    1    5    5  501    0 -0.21819563617E+02  0.83303072308E+01  0.29515239897E+02  0.37930551818E+02  0.47000000000E+01 0. -1.
        -13    1    6    6    0    0  0.45798666875E+02 -0.19148887537E+02  0.28560835749E+02  0.57270578137E+02  0.00000000000E+00 0.  1.
         14    1    6    6    0    0  0.11477675926E+03  0.43891629854E+02 -0.35170971825E+02  0.12781696639E+03  0.00000000000E+00 0. -1.
         -5    1    3    3    0  503 -0.10505158639E+03  0.21779979437E+02 -0.14004422800E+02  0.10829781699E+03  0.47000000000E+01 0.  1.
         13    1    4    4    0    0 -0.33186872112E+02  0.52760820085E+00  0.53747079614E+02  0.63169576681E+02  0.00000000000E+00 0. -1.
        -14    1    4    4    0    0 -0.51740401776E+00 -0.55380637186E+02  0.14897686725E+01  0.55403087393E+02  0.00000000000E+00 0.  1.
</event>
<event>
12    1  0.8196217E-002  0.1751834E+03  0.7818608E-02  0.1172550E+00
         21   -1    0    0  501  502  0.00000000000E+00  0.00000000000E+00  0.40830259911E+03  0.40830259911E+03  0.00000000000E+00 0. -1.
         21   -1    0    0  502  503 -0.00000000000E+00 -0.00000000000E+00 -0.91850782211E+02  0.91850782211E+02  0.00000000000E+00 0. -1.
         -6    2    1    2    0  503  0.22719872501E+02 -0.18166373868E+02  0.51615441463E+02  0.18261984688E+03  0.17274155532E+03 0.  0.
        -24    2    3    3    0    0  0.14242896517E+02  0.20039837539E+02 -0.32507993010E+02  0.89719814918E+02  0.79927594669E+02 0.  0.
          6    2    1    2  501    0 -0.22719872501E+02  0.18166373868E+02  0.26483637544E+03  0.31753353444E+03  0.17275135308E+03 0.  0.
         24    2    5    5    0    0  0.45025381265E+02 -0.63185925877E+01  0.88737906898E+02  0.12721355753E+03  0.79004199428E+02 0.  0.
          5    1    5    5  501    0 -0.67745253766E+02  0.24484966456E+02  0.17609846854E+03  0.19031997691E+03  0.47000000000E+01 0. -1.
        -13    1    6    6    0    0  0.47453676890E+02 -0.36980528282E+02  0.54337552998E+02  0.81067753072E+02  0.00000000000E+00 0.  1.
         14    1    6    6    0    0 -0.24282956250E+01  0.30661935694E+02  0.34400353900E+02  0.46145804453E+02  0.00000000000E+00 0. -1.
         -5    1    3    3    0  503  0.84769759832E+01 -0.38206211407E+02  0.84123434473E+02  0.92900031966E+02  0.47000000000E+01 0.  1.
         13    1    4    4    0    0  0.39923955903E+02  0.14519322357E+02  0.62085784123E+01  0.42933430128E+02  0.00000000000E+00 0. -1.
        -14    1    4    4    0    0 -0.25681059385E+02  0.55205151812E+01 -0.38716571422E+02  0.46786384790E+02  0.00000000000E+00 0.  1.
</event>
<event>
12    1  0.8196217E-002  0.1839439E+03  0.7818608E-02  0.1164464E+00
         21   -1    0    0  503  502  0.00000000000E+00  0.00000000000E+00  0.17869687170E+04  0.17869687170E+04  0.00000000000E+00 0. -1.
         21   -1    0    0  501  503 -0.00000000000E+00 -0.00000000000E+00 -0.25626051171E+02  0.25626051171E+02  0.00000000000E+00 0.  1.
          6    2    1    2  501    0  0.59121003785E+02 -0.11882061028E+02  0.13469594370E+04  0.13592198589E+04  0.17187909558E+03 0.  0.
         24    2    3    3    0    0  0.76749184387E+02  0.60372972298E+00  0.50533979439E+03  0.51730991091E+03  0.79689612520E+02 0.  0.
         -6    2    1    2    0  502 -0.59121003785E+02  0.11882061028E+02  0.41438322878E+03  0.45337490920E+03  0.17377822515E+03 0.  0.
        -24    2    5    5    0    0  0.22238369742E+02 -0.35019955147E+02  0.20869810871E+03  0.22721654566E+03  0.79696396999E+02 0.  0.
          5    1    3    3  501    0 -0.17628180601E+02 -0.12485790751E+02  0.84161964264E+03  0.84190994803E+03  0.47000000000E+01 0. -1.
        -11    1    4    4    0    0 -0.10855748947E+02  0.69354492087E+01  0.18097076542E+02  0.22213777713E+02  0.00000000000E+00 0.  1.
         12    1    4    4    0    0  0.87604933334E+02 -0.63317194857E+01  0.48724271784E+03  0.49509613320E+03  0.00000000000E+00 0. -1.
         -5    1    5    5    0  502 -0.81359373527E+02  0.46902016175E+02  0.20568512008E+03  0.22615836355E+03  0.47000000000E+01 0.  1.
         11    1    6    6    0    0  0.46315724692E+01 -0.59506475701E+02  0.13915228274E+03  0.15141277986E+03  0.00000000000E+00 0. -1.
        -12    1    6    6    0    0  0.17606797273E+02  0.24486520554E+02  0.69545825965E+02  0.75803765792E+02  0.00000000000E+00 0.  1.
</event>
<event>
12    1  0.8196217E-002  0.1938730E+03  0.7818608E-02  0.1155478E+00
         21   -1    0    0  501  502  0.00000000000E+00  0.00000000000E+00  0.31091166310E+03  0.31091166310E+03  0.00000000000E+00 0. -1.
         21   -1    0    0  502  503 -0.00000000000E+00 -0.00000000000E+00 -0.12720234750E+03  0.12720234750E+03  0.00000000000E+00 0.  1.
         -6    2    1    2    0  503  0.35472532121E+02  0.81209574639E+02  0.37783026673E+02  0.19545946909E+03  0.17006925472E+03 0.  0.
        -24    2    3    3    0    0 -0.41029217645E+02  0.56970853063E+02 -0.13568989645E+01  0.10604997787E+03  0.79471264189E+02 0.  0.
          6    2    1    2  501    0 -0.35472532121E+02 -0.81209574639E+02  0.14592628893E+03  0.24265454152E+03  0.17243389797E+03 0.  0.
         24    2    5    5    0    0  0.22175073501E+02 -0.11445695898E+02  0.17408839993E+02  0.85399748611E+02  0.79795435418E+02 0.  0.
          5    1    5    5  501    0 -0.57647605622E+02 -0.69763878741E+02  0.12851744893E+03  0.15725479290E+03  0.47000000000E+01 0. -1.
        -13    1    6    6    0    0 -0.29646198771E+02  0.29989789444E+01  0.55062557684E+01  0.30301977309E+02  0.00000000000E+00 0.  1.
         14    1    6    6    0    0  0.51821272272E+02 -0.14444674842E+02  0.11902584225E+02  0.55097771302E+02  0.00000000000E+00 0. -1.
         -5    1    3    3    0  503  0.76501749766E+02  0.24238721576E+02  0.39139925638E+02  0.89409491217E+02  0.47000000000E+01 0.  1.
         11    1    4    4    0    0 -0.26692026425E+02 -0.14408428657E+02 -0.11706284822E+02  0.32513138812E+02  0.00000000000E+00 0. -1.
        -12    1    4    4    0    0 -0.14337191219E+02  0.71379281719E+02  0.10349385857E+02  0.73536839057E+02  0.00000000000E+00 0.  1.
</event>
<event>
12    1  0.8196217E-002  0.1837534E+03  0.7818608E-02  0.1164635E+00
         21   -1    0    0  503  502  0.00000000000E+00  0.00000000000E+00  0.64219072555E+02  0.64219072555E+02  0.00000000000E+00 0.  1.
         21   -1    0    0  501  503 -0.00000000000E+00 -0.00000000000E+00 -0.83558539740E+03  0.83558539740E+03  0.00000000000E+00 0.  1.
          6    2    1    2  501    0  0.49686984289E+02  0.26327743248E+02 -0.66299054089E+03  0.68798385533E+03  0.17493822170E+03 0.  0.
         24    2    3    3    0    0  0.63980421867E+02  0.27177938780E+02 -0.66451221236E+03  0.67283688619E+03  0.79377958506E+02 0.  0.
         -6    2    1    2    0  502 -0.49686984289E+02 -0.26327743248E+02 -0.10837578395E+03  0.21182061462E+03  0.17309163977E+03 0.  0.
        -24    2    5    5    0    0 -0.10068180787E+03 -0.23785131651E+02 -0.85217297089E+02  0.15555923871E+03  0.78956507646E+02 0.  0.
          5    1    3    3  501    0 -0.14293437577E+02 -0.85019553215E+00  0.15216714687E+01  0.15146969145E+02  0.47000000000E+01 0. -1.
        -11    1    4    4    0    0  0.14698871112E+02  0.43201733119E+02 -0.44298263380E+03  0.44532691408E+03  0.00000000000E+00 0.  1.
         12    1    4    4    0    0  0.49281550754E+02 -0.16023794338E+02 -0.22152957856E+03  0.22750997211E+03  0.00000000000E+00 0. -1.
         -5    1    5    5    0  502  0.50994823584E+02 -0.25426115973E+01 -0.23158486861E+02  0.56261375914E+02  0.47000000000E+01 0.  1.
         11    1    6    6    0    0 -0.52946643023E+02  0.24097063872E+02 -0.19716911707E+02  0.61422895584E+02  0.00000000000E+00 0. -1.
        -12    1    6    6    0    0 -0.47735164850E+02 -0.47882195523E+02 -0.65500385382E+02  0.94136343123E+02  0.00000000000E+00 0.  1.
</event>
<event>
12    1  0.8196217E-002  0.2302333E+03  0.7818608E-02  0.1127129E+00
         21   -1    0    0  503  502  0.00000000000E+00  0.00000000000E+00  0.67057831372E+02  0.67057831372E+02  0.00000000000E+00 0. -1.
         21   -1    0    0  501  503 -0.00000000000E+00 -0.00000000000E+00 -0.94838320599E+03  0.94838320599E+03  0.00000000000E+00 0. -1.
          6    2    1    2  501    0 -0.29962970476E+02  0.14843474840E+03 -0.65302561345E+03  0.69120633876E+03  0.16850251267E+03 0.  0.
         24    2    3    3    0    0 -0.79546865282E+02  0.12247635951E+03 -0.53873654133E+03  0.56386238489E+03  0.79847139712E+02 0.  0.
         -6    2    1    2    0  502  0.29962970476E+02 -0.14843474840E+03 -0.22829976116E+03  0.32423469860E+03  0.17342636679E+03 0.  0.
        -24    2    5    5    0    0 -0.13735097256E+02 -0.16236855346E+03 -0.17587903114E+03  0.25442284443E+03  0.85119622437E+02 0.  0.
          5    1    3    3  501    0  0.49583894806E+02  0.25958388899E+02 -0.11428907213E+03  0.12734395386E+03  0.47000000000E+01 0. -1.
        -13    1    4    4    0    0 -0.49249133661E+01  0.54229307507E+01 -0.16525694345E+03  0.16541922593E+03  0.00000000000E+00 0.  1.
         14    1    4    4    0    0 -0.74621951916E+02  0.11705342876E+03 -0.37347959788E+03  0.39844315896E+03  0.00000000000E+00 0. -1.
         -5    1    5    5    0  502  0.43698067732E+02  0.13933805058E+02 -0.52420730016E+02  0.69811854167E+02  0.47000000000E+01 0.  1.
         13    1    6    6    0    0  0.33700743793E+02 -0.94543442018E+02 -0.85259726980E+02  0.13169443271E+03  0.00000000000E+00 0. -1.
        -14    1    6    6    0    0 -0.47435841049E+02 -0.67825111444E+02 -0.90619304164E+02  0.12272841173E+03  0.00000000000E+00 0.  1.
</event>
<event>
12    1  0.8196217E-002  0.1915657E+03  0.7818608E-02  0.1157058E+00
         21   -1    0    0  501  502  0.00000000000E+00  0.00000000000E+00  0.14640033541E+04  0.14640033541E+04  0.00000000000E+00 0. -1.
         21   -1    0    0  502  503 -0.00000000000E+00 -0.00000000000E+00 -0.46452159775E+02  0.46452159775E+02  0.00000000000E+00 0. -1.
         -6    2    1    2    0  503  0.22830409789E+01  0.85030649545E+02  0.19634030067E+03  0.27431171911E+03  0.17164492982E+03 0.  0.
        -24    2    3    3    0    0  0.52571904109E+02  0.96352795866E+02  0.11405303289E+03  0.17709831884E+03  0.79423257631E+02 0.  0.
          6    2    1    2  501    0 -0.22830409789E+01 -0.85030649545E+02  0.12212108937E+04  0.12361437948E+04  0.17163918820E+03 0.  0.
         24    2    5    5    0    0 -0.27283736418E+02 -0.46719414451E+02  0.11262566458E+04  0.11306393651E+04  0.83451995835E+02 0.  0.
          5    1    5    5  501    0  0.25000695439E+02 -0.38311235094E+02  0.94954247859E+02  0.10550442973E+03  0.47000000000E+01 0. -1.
        -11    1    6    6    0    0  0.68755894099E+00 -0.27756634543E+01  0.81853030658E+03  0.81853530152E+03  0.00000000000E+00 0.  1.
         12    1    6    6    0    0 -0.27971295359E+02 -0.43943750996E+02  0.30772633924E+03  0.31210406354E+03  0.00000000000E+00 0. -1.
         -5    1    3    3    0  503 -0.50288863130E+02 -0.11322146321E+02  0.82287267783E+02  0.97213400267E+02  0.47000000000E+01 0.  1.
         13    1    4    4    0    0  0.43050005717E+02  0.62252070815E+02  0.22536131864E+02  0.78971517349E+02  0.00000000000E+00 0. -1.
        -14    1    4    4    0    0  0.95218983923E+01  0.34100725051E+02  0.91516901028E+02  0.98126801495E+02  0.00000000000E+00 0.  1.
</event>
<event>
12    1  0.8196217E-002  0.1802846E+03  0.7818608E-02  0.1167663E+00
         21   -1    0    0  503  502  0.00000000000E+00  0.00000000000E+00  0.12868385591E+03  0.12868385591E+03  0.00000000000E+00 0. -1.
         21   -1    0    0  501  503 -0.00000000000E+00 -0.00000000000E+00 -0.25230506852E+03  0.25230506852E+03  0.00000000000E+00 0. -1.
          6    2    1    2  501    0  0.43671797589E+02 -0.27105390118E+02 -0.70281065212E+02  0.19297910352E+03  0.17221956390E+03 0.  0.
         24    2    3    3    0    0  0.84188665026E+02 -0.37697689761E+02 -0.14016802611E+02  0.12268279775E+03  0.79660222041E+02 0.  0.
         -6    2    1    2    0  502 -0.43671797589E+02  0.27105390118E+02 -0.53340147401E+02  0.18800982091E+03  0.17280217984E+03 0.  0.
        -24    2    5    5    0    0 -0.46864151627E+02  0.76074795927E+02 -0.29057222894E+02  0.13305580147E+03  0.94211999346E+02 0.  0.
          5    1    3    3  501    0 -0.40516867438E+02  0.10592299643E+02 -0.56264262601E+02  0.70296305769E+02  0.47000000000E+01 0. -1.
        -11    1    4    4    0    0  0.85890832951E+01  0.22409538605E+01  0.26587584655E+02  0.28030231605E+02  0.00000000000E+00 0.  1.
         12    1    4    4    0    0  0.75599581731E+02 -0.39938643621E+02 -0.40604387265E+02  0.94652566143E+02  0.00000000000E+00 0. -1.
         -5    1    5    5    0  502  0.31923540381E+01 -0.48969405809E+02 -0.24282924508E+02  0.54954019437E+02  0.47000000000E+01 0.  1.
         11    1    6    6    0    0 -0.39940059326E+02  0.10452199474E+02  0.24554592200E+02  0.48035245507E+02  0.00000000000E+00 0. -1.
        -12    1    6    6    0    0 -0.69240923005E+01  0.65622596453E+02 -0.53611815094E+02  0.85020555967E+02  0.00000000000E+00 0.  1.
</event>
<event>
12    1  0.8196217E-002  0.1779049E+03  0.7818608E-02  0.1170426E+00
         21   -1    0    0  503  502  0.00000000000E+00  0.00000000000E+00  0.67553905580E+03  0.67553905580E+03  0.00000000000E+00 0. -1.
         21   -1    0    0  501  503 -0.00000000000E+00 -0.00000000000E+00 -0.75756427342E+02  0.75756427342E+02  0.00000000000E+00 0. -1.
          6    2    1    2  501    0 -0.16399133356E+02  0.31245672887E+02  0.64191750712E+02  0.18693058732E+03  0.17198034763E+03 0.  0.
         24    2    3    3    0    0  0.26725413690E+02  0.37716326718E+02  0.95474178501E+02  0.13305780934E+03  0.80326165284E+02 0.  0.
         -6    2    1    2    0  502  0.16399133356E+02 -0.31245672887E+02  0.53559087775E+03  0.56436489582E+03  0.17437007672E+03 0.  0.
        -24    2    5    5    0    0  0.25772107366E+02 -0.60047795116E+02  0.18591903403E+03  0.21335221346E+03  0.81751700639E+02 0.  0.
          5    1    3    3  501    0 -0.43124547046E+02 -0.64706538312E+01 -0.31282427789E+02  0.53872777980E+02  0.47000000000E+01 0. -1.
        -13    1    4    4    0    0  0.96079335625E+01 -0.16745235868E+02  0.66088153966E+02  0.68850268019E+02  0.00000000000E+00 0.  1.
         14    1    4    4    0    0  0.17117480127E+02  0.54461562586E+02  0.29386024535E+02  0.64207541326E+02  0.00000000000E+00 0. -1.
         -5    1    5    5    0  502 -0.93729740096E+01  0.28802122229E+02  0.34967184372E+03  0.35101268236E+03  0.47000000000E+01 0.  1.
         13    1    6    6    0    0 -0.18487608680E+02 -0.26449356063E+02  0.13213526505E+03  0.13601870599E+03  0.00000000000E+00 0. -1.
        -14    1    6    6    0    0  0.44259716046E+02 -0.33598439053E+02  0.53783768982E+02  0.77333507467E+02  0.00000000000E+00 0.  1.
</event>
<event>
12    1  0.8196217E-002  0.2290440E+03  0.7818608E-02  0.1127494E+00
         21   -1    0    0  501  502  0.00000000000E+00  0.00000000000E+00  0.13016017655E+03  0.13016017655E+03  0.00000000000E+00 0.  1.
         21   -1    0    0  502  503 -0.00000000000E+00 -0.00000000000E+00 -0.69606688048E+03  0.69606688048E+03  0.00000000000E+00 0. -1.
         -6    2    1    2    0  503 -0.14508791518E+03  0.35496804330E+02 -0.55143935607E+03  0.59672659552E+03  0.17229840433E+03 0.  0.
        -24    2    3    3    0    0 -0.22724090606E+02  0.45102314053E+02 -0.33582285288E+03  0.34857797508E+03  0.78606699254E+02 0.  0.
          6    2    1    2  501    0  0.14508791518E+03 -0.35496804330E+02 -0.14467347865E+02  0.22950046151E+03  0.17363937178E+03 0.  0.
         24    2    5    5    0    0  0.14919114963E+03 -0.45653022211E+01 -0.54934395056E+02  0.17818510061E+03  0.80332441816E+02 0.  0.
          5    1    5    5  501    0 -0.41032344513E+01 -0.30931502109E+02  0.40467047192E+02  0.51315360898E+02  0.47000000000E+01 0. -1.
        -11    1    6    6    0    0  0.74516391111E+02  0.14791667367E+02  0.10926488420E+02  0.76752030050E+02  0.00000000000E+00 0.  1.
         12    1    6    6    0    0  0.74674758517E+02 -0.19356969588E+02 -0.65860883476E+02  0.10143307056E+03  0.00000000000E+00 0. -1.
         -5    1    3    3    0  503 -0.12236382457E+03 -0.96055097226E+01 -0.21561650318E+03  0.24814862044E+03  0.47000000000E+01 0.  1.
         13    1    4    4    0    0 -0.28774943239E+02  0.58391177593E+02 -0.16878315780E+03  0.18090130274E+03  0.00000000000E+00 0. -1.
        -14    1    4    4    0    0  0.60508526324E+01 -0.13288863540E+02 -0.16703969509E+03  0.16767667234E+03  0.00000000000E+00 0.  1.
</event>
<event>
12    1  0.8196217E-002  0.1819154E+03  0.7818608E-02  0.1166147E+00
         21   -1    0    0  501  502  0.00000000000E+00  0.00000000000E+00  0.37698669410E+03  0.37698669410E+03  0.00000000000E+00 0. -1.
         21   -1    0    0  502  503 -0.00000000000E+00 -0.00000000000E+00 -0.11117597752E+03  0.11117597752E+03  0.00000000000E+00 0. -1.
         -6    2    1    2    0  503 -0.52574883515E+02  0.22906760531E+02  0.19835519551E+02  0.18222637171E+03  0.17182597201E+03 0.  0.
        -24    2    3    3    0    0 -0.25565250688E+02  0.77178280488E+02 -0.13758809786E+02  0.11275992580E+03  0.76911813121E+02 0.  0.
          6    2    1    2  501    0  0.52574883515E+02 -0.22906760531E+02  0.24597519702E+03  0.30593629991E+03  0.17263946246E+03 0.  0.
         24    2    5    5    0    0 -0.21631574122E+02 -0.18221701515E+02  0.49623344529E+02  0.95925138040E+02  0.77066207774E+02 0.  0.
          5    1    5    5  501    0  0.74206457637E+02 -0.46850590162E+01  0.19635185249E+03  0.21001116187E+03  0.47000000000E+01 0. -1.
        -13    1    6    6    0    0 -0.72891650791E+01  0.22047896149E+02 -0.76576977791E+01  0.24451625456E+02  0.00000000000E+00 0.  1.
         14    1    6    6    0    0 -0.14342409043E+02 -0.40269597664E+02  0.57281042308E+02  0.71473512584E+02  0.00000000000E+00 0. -1.
         -5    1    3    3    0  503 -0.27009632827E+02 -0.54271519957E+02  0.33594329337E+02  0.69466445911E+02  0.47000000000E+01 0.  1.
         13    1    4    4    0    0 -0.38680745537E+02  0.99654062767E+01 -0.18693790075E+02  0.44101782106E+02  0.00000000000E+00 0. -1.
        -14    1    4    4    0    0  0.13115494849E+02  0.67212874211E+02  0.49349802894E+01  0.68658143693E+02  0.00000000000E+00 0.  1.
</event>
<event>
12    1  0.8196217E-002  0.1760363E+03  0.7818608E-02  0.1171716E+00
         21   -1    0    0  503  502  0.00000000000E+00  0.00000000000E+00  0.13347094397E+03  0.13347094397E+03  0.00000000000E+00 0. -1.
         21   -1    0    0  501  503 -0.00000000000E+00 -0.00000000000E+00 -0.30772993003E+03  0.30772993003E+03  0.00000000000E+00 0. -1.
          6    2    1    2  501    0  0.37791829022E+02  0.88526830310E+01 -0.19650000894E+03  0.26376512007E+03  0.17161932500E+03 0.  0.
         24    2    3    3    0    0 -0.41800228654E+02  0.28801875213E+02 -0.97567575456E+02  0.13514714967E+03  0.78539882563E+02 0.  0.
         -6    2    1    2    0  502 -0.37791829022E+02 -0.88526830310E+01  0.22241022877E+02  0.17743575394E+03  0.17170378953E+03 0.  0.
        -24    2    5    5    0    0  0.33573697813E+02  0.24230035007E+02  0.40187102509E+02  0.96617090081E+02  0.77495619918E+02 0.  0.
          5    1    3    3  501    0  0.79592057676E+02 -0.19949192182E+02 -0.98932433483E+02  0.12861797040E+03  0.47000000000E+01 0. -1.
        -13    1    4    4    0    0 -0.44463832974E+02 -0.13946111186E+02 -0.30924137575E+02  0.55926994777E+02  0.00000000000E+00 0.  1.
         14    1    4    4    0    0  0.26636043205E+01  0.42747986399E+02 -0.66643437881E+02  0.79220154896E+02  0.00000000000E+00 0. -1.
         -5    1    5    5    0  502 -0.71365526835E+02 -0.33082718037E+02 -0.17946079632E+02  0.80818663855E+02  0.47000000000E+01 0.  1.
         11    1    6    6    0    0  0.14756362250E+02 -0.33825864382E+01  0.57165541982E+02  0.59136209787E+02  0.00000000000E+00 0. -1.
        -12    1    6    6    0    0  0.18817335562E+02  0.27612621445E+02 -0.16978439473E+02  0.37480880294E+02  0.00000000000E+00 0.  1.
</event>
<event>
12    1  0.8196217E-002  0.2319290E+03  0.7818608E-02  0.1125937E+00
         21   -1    0    0  501  502  0.00000000000E+00  0.00000000000E+00  0.22907062376E+03  0.22907062376E+03  0.00000000000E+00 0.  1.
         21   -1    0    0  502  503 -0.00000000000E+00 -0.00000000000E+00 -0.28598721614E+03  0.28598721614E+03  0.00000000000E+00 0. -1.
         -6    2    1    2    0  503  0.78114191479E+02  0.13011950803E+03 -0.14108982449E+03  0.26832684428E+03  0.17047006631E+03 0.  0.
        -24    2    3    3    0    0  0.52490932984E+02  0.16058985464E+03 -0.11723736722E+03  0.22167898134E+03  0.82780257547E+02 0.  0.
          6    2    1    2  501    0 -0.78114191479E+02 -0.13011950803E+03  0.84173232110E+02  0.24673099562E+03  0.17537998151E+03 0.  0.
         24    2    5    5    0    0 -0.86195742041E+02 -0.19468416378E+02  0.57985877700E+02  0.13263961525E+03  0.80138507217E+02 0.  0.
          5    1    5    5  501    0  0.80815505621E+01 -0.11065109165E+03  0.26187354410E+02  0.11409138036E+03  0.47000000000E+01 0. -1.
        -13    1    6    6    0    0 -0.37441315518E+02  0.13083120070E+02  0.62305773103E+02  0.73858171521E+02  0.00000000000E+00 0.  1.
         14    1    6    6    0    0 -0.48754426523E+02 -0.32551536448E+02 -0.43198954026E+01  0.58781443730E+02  0.00000000000E+00 0. -1.
         -5    1    3    3    0  503  0.25623258495E+02 -0.30470346611E+02 -0.23852457275E+02  0.46647862937E+02  0.47000000000E+01 0.  1.
         13    1    4    4    0    0 -0.17554883724E+02  0.71153744317E+02 -0.33670963932E+02  0.80652111473E+02  0.00000000000E+00 0. -1.
        -14    1    4    4    0    0  0.70045816708E+02  0.89436110320E+02 -0.83566403288E+02  0.14102686987E+03  0.00000000000E+00 0.  1.
</event>
<event>
12    1  0.8196217E-002  0.1814516E+03  0.7818608E-02  0.1166635E+00
         21   -1    0    0  501  502  0.00000000000E+00  0.00000000000E+00  0.24732616466E+03  0.24732616466E+03  0.00000000000E+00 0. -1.
         21   -1    0    0  502  503 -0.00000000000E+00 -0.00000000000E+00 -0.13832193622E+03  0.13832193622E+03  0.00000000000E+00 0. -1.
         -6    2    1    2    0  503 -0.21167075918E+02 -0.49453478195E+02  0.14537450977E+02  0.18107867370E+03  0.17229177862E+03 0.  0.
        -24    2    3    3    0    0  0.64327422683E+01 -0.92978002624E+02 -0.96006664042E+01  0.12397462041E+03  0.81186480193E+02 0.  0.
          6    2    1    2  501    0  0.21167075918E+02  0.49453478195E+02  0.94466777469E+02  0.20456942719E+03  0.17329450910E+03 0.  0.
         24    2    5    5    0    0  0.71039822755E+02  0.12281811377E+02  0.23010690236E+02  0.10971645626E+03  0.79439974831E+02 0.  0.
          5    1    5    5  501    0 -0.49872746837E+02  0.37171666819E+02  0.71456087233E+02  0.94852970927E+02  0.47000000000E+01 0. -1.
        -11    1    6    6    0    0  0.10354475270E+02 -0.26919907667E+02  0.23910617994E+02  0.37464840047E+02  0.00000000000E+00 0.  1.
         12    1    6    6    0    0  0.60685347485E+02  0.39201719043E+02 -0.89992775784E+00  0.72251616212E+02  0.00000000000E+00 0. -1.
         -5    1    3    3    0  503 -0.27599818186E+02  0.43524524429E+02  0.24138117381E+02  0.57104053283E+02  0.47000000000E+01 0.  1.
         13    1    4    4    0    0  0.15612385121E+02 -0.27486292432E+02 -0.40172430926E+02  0.51118167488E+02  0.00000000000E+00 0. -1.
        -14    1    4    4    0    0 -0.91796428532E+01 -0.65491710193E+02  0.30571764522E+02  0.72856452925E+02  0.00000000000E+00 0.  1.
</event>
<event>
12    1  0.8196217E-002  0.1961018E+03  0.7818608E-02  0.1153168E+00
         21   -1    0    0  503  502  0.00000000000E+00  0.00000000000E+00  0.22071999518E+02  0.22071999518E+02  0.00000000000E+00 0. -1.
         21   -1    0    0  501  503 -0.00000000000E+00 -0.00000000000E+00 -0.18661265949E+04  0.18661265949E+04  0.00000000000E+00 0. -1.
          6    2    1    2  501    0  0.93523814503E+02 -0.37004191994E+01 -0.11700996904E+04  0.11864186452E+04  0.17232387904E+03 0.  0.
         24    2    3    3    0    0  0.70000867872E+02  0.55657002049E+02 -0.51572491365E+03  0.52891954187E+03  0.76064918507E+02 0.  0.
         -6    2    1    2    0  502 -0.93523814503E+02  0.37004191994E+01 -0.67395490497E+03  0.70177994918E+03  0.17181235740E+03 0.  0.
        -24    2    5    5    0    0 -0.54172762868E+02  0.49337001749E+02 -0.57378107216E+03  0.58478383937E+03  0.85898731283E+02 0.  0.
          5    1    3    3  501    0  0.23522946631E+02 -0.59357421249E+02 -0.65437477673E+03  0.65749910335E+03  0.47000000000E+01 0. -1.
        -13    1    4    4    0    0 -0.86699103032E-01  0.30512025561E+02 -0.61734389934E+02  0.68863096947E+02  0.00000000000E+00 0.  1.
         14    1    4    4    0    0  0.70087566975E+02  0.25144976489E+02 -0.45399052372E+03  0.46005644492E+03  0.00000000000E+00 0. -1.
         -5    1    5    5    0  502 -0.39351051635E+02 -0.45636582549E+02 -0.10017383281E+03  0.11699610981E+03  0.47000000000E+01 0.  1.
         11    1    6    6    0    0 -0.68562649146E+02  0.61818242204E+02 -0.50713646280E+03  0.51547039083E+03  0.00000000000E+00 0. -1.
        -12    1    6    6    0    0  0.14389886278E+02 -0.12481240455E+02 -0.66644609361E+02  0.69313448531E+02  0.00000000000E+00 0.  1.
</event>
<event>
12    1  0.8196217E-002  0.1760190E+03  0.7818608E-02  0.1172325E+00
         21   -1    0    0  503  502  0.00000000000E+00  0.00000000000E+00  0.29795953544E+03  0.29795953544E+03  0.00000000000E+00 0.  1.
         21   -1    0    0  501  503 -0.00000000000E+00 -0.00000000000E+00 -0.11929731120E+03  0.11929731120E+03  0.00000000000E+00 0.  1.
          6    2    1    2  501    0 -0.24760423647E+02 -0.15570601215E+02  0.16696932345E+03  0.24084993241E+03  0.17109767025E+03 0.  0.
         24    2    3    3    0    0  0.51467723361E+02 -0.15474532473E+02  0.82794526892E+02  0.12719155832E+03  0.80214531854E+02 0.  0.
         -6    2    1    2    0  502  0.24760423647E+02  0.15570601215E+02  0.11692900784E+02  0.17640691423E+03  0.17357175248E+03 0.  0.
        -24    2    5    5    0    0  0.74375882044E+02  0.43285229112E+02 -0.55376469416E+01  0.11683530953E+03  0.78831726675E+02 0.  0.
          5    1    3    3  501    0 -0.76228147008E+02 -0.96068741609E-01  0.84174796561E+02  0.11365837409E+03  0.47000000000E+01 0. -1.
        -11    1    4    4    0    0  0.53386359803E+02 -0.43168950641E+02  0.61979646071E+02  0.92493990288E+02  0.00000000000E+00 0.  1.
         12    1    4    4    0    0 -0.19186364417E+01  0.27694418168E+02  0.20814880821E+02  0.34697568028E+02  0.00000000000E+00 0. -1.
         -5    1    5    5    0  502 -0.49615458397E+02 -0.27714627897E+02  0.17230547725E+02  0.59571604698E+02  0.47000000000E+01 0.  1.
         13    1    6    6    0    0  0.74272151820E+02  0.34945994417E+02  0.24500220052E+02  0.85661168825E+02  0.00000000000E+00 0. -1.
        -14    1    6    6    0    0  0.10373022348E+00  0.83392346945E+01 -0.30037866993E+02  0.31174140706E+02  0.00000000000E+00 0.  1.
</event>
<event>
12    1  0.8196217E-002  0.1946423E+03  0.7818608E-02  0.1154571E+00
         21   -1    0    0  501  502  0.00000000000E+00  0.00000000000E+00  0.59879502585E+02  0.59879502585E+02  0.00000000000E+00 0. -1.
         21   -1    0    0  502  503 -0.00000000000E+00 -0.00000000000E+00 -0.63763800457E+03  0.63763800457E+03  0.00000000000E+00 0. -1.
         -6    2    1    2    0  503  0.82097166664E+02  0.32995136431E+02 -0.24815847986E+03  0.31473583065E+03  0.17218416933E+03 0.  0.
        -24    2    3    3    0    0  0.31528705429E+02  0.45849017273E+02 -0.46263270292E+02  0.10615453434E+03  0.77667904134E+02 0.  0.
          6    2    1    2  501    0 -0.82097166664E+02 -0.32995136431E+02 -0.32960002214E+03  0.38278167651E+03  0.17336958637E+03 0.  0.
         24    2    5    5    0    0 -0.52042169947E+02 -0.54740872141E+02 -0.32703903413E+03  0.34530063452E+03  0.81074335151E+02 0.  0.
          5    1    5    5  501    0 -0.30054996717E+02  0.21745735711E+02 -0.25609880089E+01  0.37481041993E+02  0.47000000000E+01 0. -1.
        -11    1    6    6    0    0  0.19707131285E+02 -0.27952306261E+02 -0.10386082421E+03  0.10934703130E+03  0.00000000000E+00 0.  1.
         12    1    6    6    0    0 -0.71749301232E+02 -0.26788565880E+02 -0.22317820991E+03  0.23595360321E+03  0.00000000000E+00 0. -1.
         -5    1    3    3    0  503  0.50568461235E+02 -0.12853880843E+02 -0.20189520956E+03  0.20858129631E+03  0.47000000000E+01 0.  1.
         13    1    4    4    0    0  0.37620683475E+02 -0.10308101078E+02 -0.17227043831E+02  0.42642042776E+02  0.00000000000E+00 0. -1.
        -14    1    4    4    0    0 -0.60919780453E+01  0.56157118352E+02 -0.29036226461E+02  0.63512491568E+02  0.00000000000E+00 0.  1.
</event>
<event>
12    1  0.8196217E-002  0.2726411E+03  0.7818608E-02  0.1099914E+00
         21   -1    0    0  501  502  0.00000000000E+00  0.00000000000E+00  0.39362233495E+03  0.39362233495E+03  0.00000000000E+00 0. -1.
         21   -1    0    0  502  503 -0.00000000000E+00 -0.00000000000E+00 -0.36412273148E+03  0.36412273148E+03  0.00000000000E+00 0. -1.
         -6    2    1    2    0  503 -0.14133558770E+03  0.15714865756E+03 -0.24862884463E+03  0.36827288831E+03  0.17069613047E+03 0.  0.
        -24    2    3    3    0    0 -0.12592412675E+03  0.18528090434E+03 -0.20387593930E+03  0.31301124724E+03  0.78897040905E+02 0.  0.
          6    2    1    2  501    0  0.14133558770E+03 -0.15714865756E+03  0.27812844810E+03  0.38947217812E+03  0.17222570936E+03 0.  0.
         24    2    5    5    0    0  0.12305237511E+03 -0.84064071744E+02  0.26831431149E+03  0.31335358759E+03  0.63160477575E+02 0.  0.
          5    1    5    5  501    0  0.18283212582E+02 -0.73084585815E+02  0.98141366087E+01  0.76118590525E+02  0.47000000000E+01 0. -1.
        -11    1    6    6    0    0  0.27555007440E+02  0.83551648703E+01  0.42483512662E+02  0.51321886784E+02  0.00000000000E+00 0.  1.
         12    1    6    6    0    0  0.95497367673E+02 -0.92419236615E+02  0.22583079883E+03  0.26203170081E+03  0.00000000000E+00 0. -1.
         -5    1    3    3    0  503 -0.15411460950E+02 -0.28132246784E+02 -0.44752905327E+02  0.55261641063E+02  0.47000000000E+01 0.  1.
         13    1    4    4    0    0 -0.22687019793E+02  0.12917756649E+02  0.91181867230E+00  0.26122800715E+02  0.00000000000E+00 0. -1.
        -14    1    4    4    0    0 -0.10323710695E+03  0.17236314769E+03 -0.20478775797E+03  0.28688844653E+03  0.00000000000E+00 0.  1.
</event>
<event>
12    1  0.8196217E-002  0.1825134E+03  0.7818608E-02  0.1165737E+00
         21   -1    0    0  501  502  0.00000000000E+00  0.00000000000E+00  0.23233701521E+04  0.23233701521E+04  0.00000000000E+00 0. -1.
         21   -1    0    0  502  503 -0.00000000000E+00 -0.00000000000E+00 -0.16340195120E+02  0.16340195120E+02  0.00000000000E+00 0. -1.
         -6    2    1    2    0  503  0.55519430919E+02  0.89388947621E+01  0.72855270803E+03  0.75071646028E+03  0.17211578748E+03 0.  0.
        -24    2    3    3    0    0  0.65389173879E+02  0.23557012129E+02  0.72448740776E+03  0.73201571570E+03  0.78321945511E+02 0.  0.
          6    2    1    2  501    0 -0.55519430919E+02 -0.89388947621E+01  0.15784772489E+04  0.15889938869E+04  0.17363420240E+03 0.  0.
         24    2    5    5    0    0 -0.16869861001E+02 -0.49629296900E+02  0.13636766354E+04  0.13669333284E+04  0.78390681962E+02 0.  0.
          5    1    5    5  501    0 -0.38649569918E+02  0.40690402138E+02  0.21480061347E+03  0.22206055847E+03  0.47000000000E+01 0. -1.
        -13    1    6    6    0    0 -0.35221187638E+02  0.57890821930E+01  0.47193362006E+03  0.47328150955E+03  0.00000000000E+00 0.  1.
         14    1    6    6    0    0  0.18351326637E+02 -0.55418379093E+02  0.89174301537E+03  0.89365181888E+03  0.00000000000E+00 0. -1.
         -5    1    3    3    0  503 -0.98697429597E+01 -0.14618117367E+02  0.40653002734E+01  0.18700744578E+02  0.47000000000E+01 0.  1.
         11    1    4    4    0    0  0.78206222580E+02  0.34262878704E+02  0.53232290789E+03  0.53912692046E+03  0.00000000000E+00 0. -1.
        -12    1    4    4    0    0 -0.12817048701E+02 -0.10705866575E+02  0.19216449987E+03  0.19288879523E+03  0.00000000000E+00 0.  1.
</event>
<event>
12    1  0.8196217E-002  0.2111234E+03  0.7818608E-02  0.1140931E+00
         21   -1    0    0  501  502  0.00000000000E+00  0.00000000000E+00  0.18182681423E+03  0.18182681423E+03  0.00000000000E+00 0.  1.
         21   -1    0    0  502  503 -0.00000000000E+00 -0.00000000000E+00 -0.29569787119E+03  0.29569787119E+03  0.00000000000E+00 0. -1.
         -6    2    1    2    0  503 -0.82180461588E+02  0.87828164599E+02 -0.15695114920E+03  0.26205085186E+03  0.17195805000E+03 0.  0.
        -24    2    3    3    0    0 -0.92891445334E+02  0.64005849799E+02 -0.41362939796E+02  0.14345510148E+03  0.78376679737E+02 0.  0.
          6    2    1    2  501    0  0.82180461588E+02 -0.87828164599E+02  0.43080092240E+02  0.21547383356E+03  0.17350983787E+03 0.  0.
         24    2    5    5    0    0  0.60072213136E+02 -0.12591364401E+03  0.54037219100E+02  0.16985117449E+03  0.80414450751E+02 0.  0.
          5    1    5    5  501    0  0.22108248451E+02  0.38085479408E+02 -0.10957126861E+02  0.45622659067E+02  0.47000000000E+01 0. -1.
        -13    1    6    6    0    0  0.23223324957E+02 -0.20789451633E+02  0.49335242118E+02  0.58356578344E+02  0.00000000000E+00 0.  1.
         14    1    6    6    0    0  0.36848888180E+02 -0.10512419237E+03  0.47019769825E+01  0.11149459615E+03  0.00000000000E+00 0. -1.
         -5    1    3    3    0  503  0.10710983746E+02  0.23822314799E+02 -0.11558820941E+03  0.11859575038E+03  0.47000000000E+01 0.  1.
         13    1    4    4    0    0 -0.10452106969E+02  0.50204107758E+02 -0.29133663634E+02  0.58978549767E+02  0.00000000000E+00 0. -1.
        -14    1    4    4    0    0 -0.82439338365E+02  0.13801742041E+02 -0.12229276162E+02  0.84476551711E+02  0.00000000000E+00 0.  1.
</event>
<event>
12    1  0.8196217E-002  0.3403596E+03  0.7818608E-02  0.1066646E+00
         21   -1    0    0  501  502  0.00000000000E+00  0.00000000000E+00  0.14541179021E+03  0.14541179021E+03  0.00000000000E+00 0. -1.
         21   -1    0    0  502  503 -0.00000000000E+00 -0.00000000000E+00 -0.18101458651E+04  0.18101458651E+04  0.00000000000E+00 0.  1.
         -6    2    1    2    0  503  0.13158684605E+03  0.26313253364E+03 -0.15640054321E+04  0.16006057001E+04  0.17108999699E+03 0.  0.
        -24    2    3    3    0    0  0.11637214859E+03  0.14182199666E+03 -0.69400902079E+03  0.72204803029E+03  0.77774554956E+02 0.  0.
          6    2    1    2  501    0 -0.13158684605E+03 -0.26313253364E+03 -0.10072864281E+03  0.35495195529E+03  0.17114556017E+03 0.  0.
         24    2    5    5    0    0 -0.87011708949E+02 -0.70682855680E+02 -0.12789607870E+02  0.13866699219E+03  0.80609286518E+02 0.  0.
          5    1    5    5  501    0 -0.44575137103E+02 -0.19244967796E+03 -0.87939034942E+02  0.21628496309E+03  0.47000000000E+01 0. -1.
        -11    1    6    6    0    0 -0.73902357092E+02 -0.86200243433E+02 -0.23126726099E+02  0.11587443985E+03  0.00000000000E+00 0.  1.
         12    1    6    6    0    0 -0.13109351857E+02  0.15517387753E+02  0.10337118229E+02  0.22792552338E+02  0.00000000000E+00 0. -1.
         -5    1    3    3    0  503  0.15214697458E+02  0.12131053698E+03 -0.86999641133E+03  0.87855766978E+03  0.47000000000E+01 0.  1.
         13    1    4    4    0    0  0.63656120083E+02  0.12085073811E+03 -0.56206026962E+03  0.57841918123E+03  0.00000000000E+00 0. -1.
        -14    1    4    4    0    0  0.52716028510E+02  0.20971258553E+02 -0.13194875117E+03  0.14362884906E+03  0.00000000000E+00 0.  1.
</event>
<event>
12    1  0.8196217E-002  0.2153332E+03  0.7818608E-02  0.1137484E+00
         21   -1    0    0  501  502  0.00000000000E+00  0.00000000000E+00  0.50203347188E+03  0.50203347188E+03  0.00000000000E+00 0.  1.
         21   -1    0    0  502  503 -0.00000000000E+00 -0.00000000000E+00 -0.33721550981E+03  0.33721550981E+03  0.00000000000E+00 0. -1.
         -6    2    1    2    0  503  0.78823056626E+02 -0.10415443142E+03 -0.27529932867E+03  0.34927792863E+03  0.17071652299E+03 0.  0.
        -24    2    3    3    0    0 -0.16014651462E+02 -0.85235368961E+02 -0.14329690018E+03  0.18557437667E+03  0.79889364056E+02 0.  0.
          6    2    1    2  501    0 -0.78823056626E+02  0.10415443142E+03  0.44011729075E+03  0.48997105306E+03  0.17119340929E+03 0.  0.
         24    2    5    5    0    0 -0.11797062402E+03  0.98221177477E+02  0.38336663391E+03  0.42061355464E+03  0.79883155413E+02 0.  0.
          5    1    5    5  501    0  0.39147567395E+02  0.59332539431E+01  0.56750656841E+02  0.69357498420E+02  0.47000000000E+01 0. -1.
        -11    1    6    6    0    0 -0.92201015661E+02  0.52325669268E+02  0.16599673530E+03  0.19696171985E+03  0.00000000000E+00 0.  1.
         12    1    6    6    0    0 -0.25769608359E+02  0.45895508208E+02  0.21736989860E+03  0.22365183480E+03  0.00000000000E+00 0. -1.
         -5    1    3    3    0  503  0.94837708087E+02 -0.18919062459E+02 -0.13200242849E+03  0.16370355196E+03  0.47000000000E+01 0.  1.
         11    1    4    4    0    0  0.83249633171E+01 -0.53177162725E+02 -0.13379663474E+03  0.14421738840E+03  0.00000000000E+00 0. -1.
        -12    1    4    4    0    0 -0.24339614779E+02 -0.32058206235E+02 -0.95002654410E+01  0.41356988261E+02  0.00000000000E+00 0.  1.
</event>
<event>
12    1  0.8196217E-002  0.2685958E+03  0.7818608E-02  0.1102327E+00
         21   -1    0    0  503  502  0.00000000000E+00  0.00000000000E+00  0.10454073460E+04  0.10454073460E+04  0.00000000000E+00 0. -1.
         21   -1    0    0  501  503 -0.00000000000E+00 -0.00000000000E+00 -0.12610255815E+03  0.12610255815E+03  0.00000000000E+00 0. -1.
          6    2    1    2  501    0  0.18877225925E+03  0.79069337383E+02  0.64823948888E+02  0.27630753520E+03  0.17394477194E+03 0.  0.
         24    2    3    3    0    0  0.22445789989E+02  0.43271448295E+02  0.47679501604E+02  0.10524612719E+03  0.80169699320E+02 0.  0.
         -6    2    1    2    0  502 -0.18877225925E+03 -0.79069337383E+02  0.85448083892E+03  0.89520236891E+03  0.17135591980E+03 0.  0.
        -24    2    5    5    0    0 -0.64987053262E+02 -0.78232894094E+02  0.28695723771E+03  0.31431631744E+03  0.78144662829E+02 0.  0.
          5    1    3    3  501    0  0.16632646926E+03  0.35797889088E+02  0.17144447285E+02  0.17106140801E+03  0.47000000000E+01 0. -1.
        -13    1    4    4    0    0  0.26873581285E+02  0.47260788768E+02  0.66273587208E+02  0.85720241994E+02  0.00000000000E+00 0.  1.
         14    1    4    4    0    0 -0.44277912966E+01 -0.39893404731E+01 -0.18594085604E+02  0.19525885194E+02  0.00000000000E+00 0. -1.
         -5    1    5    5    0  502 -0.12378520598E+03 -0.83644328949E+00  0.56752360122E+03  0.58088605147E+03  0.47000000000E+01 0.  1.
         11    1    6    6    0    0 -0.59509978487E+02 -0.65894000199E+02  0.28740663823E+03  0.30080896346E+03  0.00000000000E+00 0. -1.
        -12    1    6    6    0    0 -0.54770747752E+01 -0.12338893895E+02 -0.44940052487E+00  0.13507353977E+02  0.00000000000E+00 0.  1.
</event>
<event>
12    1  0.8196217E-002  0.1731789E+03  0.7818608E-02  0.1179126E+00
         21   -1    0    0  501  502  0.00000000000E+00  0.00000000000E+00  0.16734786570E+04  0.16734786570E+04  0.00000000000E+00 0.  1.
         21   -1    0    0  502  503 -0.00000000000E+00 -0.00000000000E+00 -0.22993486616E+02  0.22993486616E+02  0.00000000000E+00 0.  1.
         -6    2    1    2    0  503 -0.75622476072E+01 -0.16568663109E+02  0.39491499966E+03  0.43121777721E+03  0.17221848402E+03 0.  0.
        -24    2    3    3    0    0  0.49337383719E+02 -0.27643898975E+02  0.14929202261E+03  0.17880350315E+03  0.80524667903E+02 0.  0.
          6    2    1    2  501    0  0.75622476072E+01  0.16568663109E+02  0.12555701707E+04  0.12652543664E+04  0.15517876760E+03 0.  0.
         24    2    5    5    0    0  0.73669870459E+01  0.68700238444E+02  0.45915891838E+03  0.46712485804E+03  0.51036510519E+02 0.  0.
          5    1    5    5  501    0  0.19526056122E+00 -0.52131575336E+02  0.79641125236E+03  0.79812950839E+03  0.47000000000E+01 0. -1.
        -13    1    6    6    0    0  0.25769666299E+02  0.55479751721E+02  0.37556558829E+03  0.38051490071E+03  0.00000000000E+00 0.  1.
         14    1    6    6    0    0 -0.18402679253E+02  0.13220486723E+02  0.83593330088E+02  0.86609957326E+02  0.00000000000E+00 0. -1.
         -5    1    3    3    0  503 -0.56899631326E+02  0.11075235866E+02  0.24562297705E+03  0.25241427406E+03  0.47000000000E+01 0.  1.
         13    1    4    4    0    0 -0.17862856513E+02  0.10781042135E+02  0.35502483276E+02  0.41179349570E+02  0.00000000000E+00 0. -1.
        -14    1    4    4    0    0  0.67200240232E+02 -0.38424941109E+02  0.11378953934E+03  0.13762415358E+03  0.00000000000E+00 0.  1.
</event>
<event>
12    1  0.8196217E-002  0.2843120E+03  0.7818608E-02  0.1093384E+00
         21   -1    0    0  503  502  0.00000000000E+00  0.00000000000E+00  0.75204312034E+02  0.75204312034E+02  0.00000000000E+00 0. -1.
         21   -1    0    0  501  503 -0.00000000000E+00 -0.00000000000E+00 -0.11359515087E+04  0.11359515087E+04  0.00000000000E+00 0.  1.
          6    2    1    2  501    0 -0.22589760643E+03 -0.14712832779E+02 -0.38921777162E+03  0.48199975954E+03  0.17200900677E+03 0.  0.
         24    2    3    3    0    0 -0.24050858512E+03 -0.20841759949E+02 -0.39108605861E+03  0.46536771388E+03  0.73075614353E+02 0.  0.
         -6    2    1    2    0  502  0.22589760643E+03  0.14712832779E+02 -0.67152942505E+03  0.72915606120E+03  0.17167002313E+03 0.  0.
        -24    2    5    5    0    0  0.57379083632E+02 -0.24973480417E+02 -0.33733780494E+03  0.35275252119E+03  0.81984831542E+02 0.  0.
          5    1    3    3  501    0  0.14610978687E+02  0.61289271700E+01  0.18682869864E+01  0.16632045656E+02  0.47000000000E+01 0. -1.
        -13    1    4    4    0    0 -0.13616695269E+03 -0.30537104062E+01 -0.15316474395E+03  0.20496390643E+03  0.00000000000E+00 0.  1.
         14    1    4    4    0    0 -0.10434163243E+03 -0.17788049543E+02 -0.23792131466E+03  0.26040380745E+03  0.00000000000E+00 0. -1.
         -5    1    5    5    0  502  0.16851852280E+03  0.39686313196E+02 -0.33419162011E+03  0.37640354001E+03  0.47000000000E+01 0.  1.
         11    1    6    6    0    0  0.63325686783E+02  0.14045486719E+01 -0.30022362132E+03  0.30683275276E+03  0.00000000000E+00 0. -1.
        -12    1    6    6    0    0 -0.59466031513E+01 -0.26378029089E+02 -0.37114183618E+02  0.45919768437E+02  0.00000000000E+00 0.  1.
</event>
<event>
12    1  0.8196217E-002  0.2530879E+03  0.7818608E-02  0.1111370E+00
         21   -1    0    0  503  502  0.00000000000E+00  0.00000000000E+00  0.50742641620E+03  0.50742641620E+03  0.00000000000E+00 0. -1.
         21   -1    0    0  501  503 -0.00000000000E+00 -0.00000000000E+00 -0.16447351472E+03  0.16447351472E+03  0.00000000000E+00 0.  1.
          6    2    1    2  501    0  0.18454074419E+03 -0.37227965525E+01  0.33347951772E+03  0.41864311110E+03  0.17315981133E+03 0.  0.
         24    2    3    3    0    0  0.15840354458E+03 -0.62600064472E+02  0.25729916726E+03  0.31876707956E+03  0.79994615637E+02 0.  0.
         -6    2    1    2    0  502 -0.18454074419E+03  0.37227965525E+01  0.94733837659E+01  0.25325681982E+03  0.17314770085E+03 0.  0.
        -24    2    5    5    0    0 -0.16426258905E+02  0.99188014704E+01  0.66989310499E+01  0.84939683958E+02  0.82472235506E+02 0.  0.
          5    1    3    3  501    0  0.26137199604E+02  0.58877267920E+02  0.76180350457E+02  0.99876031542E+02  0.47000000000E+01 0. -1.
        -13    1    4    4    0    0  0.10482114306E+03 -0.15855264115E+02  0.98223519367E+02  0.14452238993E+03  0.00000000000E+00 0.  1.
         14    1    4    4    0    0  0.53582401517E+02 -0.46744800358E+02  0.15907564789E+03  0.17424468963E+03  0.00000000000E+00 0. -1.
         -5    1    5    5    0  502 -0.16811448528E+03 -0.61960049179E+01  0.27744527160E+01  0.16831713587E+03  0.47000000000E+01 0.  1.
         11    1    6    6    0    0 -0.77875187846E+01 -0.33626615212E+02 -0.12311523434E+02  0.36646532015E+02  0.00000000000E+00 0. -1.
        -12    1    6    6    0    0 -0.86387401202E+01  0.43545416682E+02  0.19010454484E+02  0.48293151943E+02  0.00000000000E+00 0.  1.
</event>
<event>
12    1  0.8196217E-002  0.2765776E+03  0.7818608E-02  0.1097866E+00
         21   -1    0    0  501  502  0.00000000000E+00  0.00000000000E+00  0.13083318988E+03  0.13083318988E+03  0.00000000000E+00 0.  1.
         21   -1    0    0  502  503 -0.00000000000E+00 -0.00000000000E+00 -0.10467024463E+04  0.10467024463E+04  0.00000000000E+00 0.  1.
         -6    2    1    2    0  503  0.21247725496E+03 -0.34696312746E+02 -0.85000670313E+03  0.89322414197E+03  0.17025731835E+03 0.  0.
        -24    2    3    3    0    0  0.11565417035E+03 -0.73542566914E+02 -0.56719729857E+03  0.59174944903E+03  0.98337371649E+02 0.  0.
          6    2    1    2  501    0 -0.21247725496E+03  0.34696312746E+02 -0.65862553328E+02  0.28431149423E+03  0.17362238286E+03 0.  0.
         24    2    5    5    0    0 -0.23087365424E+03  0.92850728319E+01 -0.61585599523E+02  0.25230304293E+03  0.80468519337E+02 0.  0.
          5    1    5    5  501    0  0.18396399286E+02  0.25411239914E+02 -0.42769538047E+01  0.32008451298E+02  0.47000000000E+01 0. -1.
        -11    1    6    6    0    0 -0.56605851402E+02 -0.27146779149E+02 -0.36197435938E+02  0.72466712355E+02  0.00000000000E+00 0.  1.
         12    1    6    6    0    0 -0.17426780284E+03  0.36431851981E+02 -0.25388163585E+02  0.17983633058E+03  0.00000000000E+00 0. -1.
         -5    1    3    3    0  503  0.96823084612E+02  0.38846254167E+02 -0.28280940456E+03  0.30147469294E+03  0.47000000000E+01 0.  1.
         11    1    4    4    0    0 -0.10832535622E+02  0.83249626287E+01 -0.98165985823E+02  0.99112106241E+02  0.00000000000E+00 0. -1.
        -12    1    4    4    0    0  0.12648670597E+03 -0.81867529542E+02 -0.46903131274E+03  0.49263734279E+03  0.00000000000E+00 0.  1.
</event>
<event>
12    1  0.8196217E-002  0.2925477E+03  0.7818608E-02  0.1089032E+00
         21   -1    0    0  501  502  0.00000000000E+00  0.00000000000E+00  0.10445414510E+04  0.10445414510E+04  0.00000000000E+00 0.  1.
         21   -1    0    0  502  503 -0.00000000000E+00 -0.00000000000E+00 -0.10165934796E+03  0.10165934796E+03  0.00000000000E+00 0. -1.
         -6    2    1    2    0  503  0.95066189122E+02 -0.21697821802E+03  0.21889850197E+03  0.36534459801E+03  0.17158960844E+03 0.  0.
        -24    2    3    3    0    0 -0.10952434421E+02 -0.13290190228E+03  0.94004896179E+02  0.18114558017E+03  0.78701520065E+02 0.  0.
          6    2    1    2  501    0 -0.95066189122E+02  0.21697821802E+03  0.72398360109E+03  0.78085620097E+03  0.17165961824E+03 0.  0.
         24    2    5    5    0    0 -0.52864376282E+02  0.22870763723E+03  0.59298989624E+03  0.64265340435E+03  0.79148944867E+02 0.  0.
          5    1    5    5  501    0 -0.42201812839E+02 -0.11729419218E+02  0.13099370485E+03  0.13820279662E+03  0.47000000000E+01 0. -1.
        -13    1    6    6    0    0 -0.58859196213E+02  0.14973806674E+03  0.46599081277E+03  0.49298410846E+03  0.00000000000E+00 0.  1.
         14    1    6    6    0    0  0.59948199306E+01  0.78969570493E+02  0.12699908347E+03  0.14966929589E+03  0.00000000000E+00 0. -1.
         -5    1    3    3    0  503  0.10601862354E+03 -0.84076315737E+02  0.12489360579E+03  0.18419901784E+03  0.47000000000E+01 0.  1.
         13    1    4    4    0    0  0.28157476181E+02 -0.35765826429E+02  0.49841152956E+02  0.67499469132E+02  0.00000000000E+00 0. -1.
        -14    1    4    4    0    0 -0.39109910602E+02 -0.97136075850E+02  0.44163743223E+02  0.11364611104E+03  0.00000000000E+00 0.  1.
</event>
<event>
12    1  0.8196217E-002  0.1840263E+03  0.7818608E-02  0.1164106E+00
         21   -1    0    0  501  502  0.00000000000E+00  0.00000000000E+00  0.49235359050E+03  0.49235359050E+03  0.00000000000E+00 0. -1.
         21   -1    0    0  502  503 -0.00000000000E+00 -0.00000000000E+00 -0.71102788799E+02  0.71102788799E+02  0.00000000000E+00 0. -1.
         -6    2    1    2    0  503 -0.21322657895E+02  0.60300974845E+02  0.15695703263E+03  0.24140533169E+03  0.17190160199E+03 0.  0.
        -24    2    3    3    0    0  0.31960511635E+02 -0.16669060004E+02  0.57777440259E+02  0.10494228188E+03  0.79845588842E+02 0.  0.
          6    2    1    2  501    0  0.21322657895E+02 -0.60300974845E+02  0.26429376907E+03  0.32205104761E+03  0.17255381071E+03 0.  0.
         24    2    5    5    0    0  0.18013605815E+02  0.33294015955E+02  0.10674483252E+03  0.13870784611E+03  0.80077623656E+02 0.  0.
          5    1    5    5  501    0  0.33090520793E+01 -0.93594990800E+02  0.15754893655E+03  0.18334320150E+03  0.47000000000E+01 0. -1.
        -13    1    6    6    0    0 -0.24444787707E+02 -0.95005751593E+01  0.19585818199E+02  0.32732443369E+02  0.00000000000E+00 0.  1.
         14    1    6    6    0    0  0.42458393522E+02  0.42794591114E+02  0.87159014320E+02  0.10597540274E+03  0.00000000000E+00 0. -1.
         -5    1    3    3    0  503 -0.53283169530E+02  0.76970034849E+02  0.99179592371E+02  0.13646304981E+03  0.47000000000E+01 0.  1.
         13    1    4    4    0    0 -0.14871613811E+02 -0.25013549182E+01  0.53776212225E+02  0.55850717767E+02  0.00000000000E+00 0. -1.
        -14    1    4    4    0    0  0.46832125446E+02 -0.14167705086E+02  0.40012280340E+01  0.49091564112E+02  0.00000000000E+00 0.  1.
</event>
<event>
12    1  0.8196217E-002  0.2040755E+03  0.7818608E-02  0.1146534E+00
         21   -1    0    0  501  502  0.00000000000E+00  0.00000000000E+00  0.92261101740E+03  0.92261101740E+03  0.00000000000E+00 0. -1.
         21   -1    0    0  502  503 -0.00000000000E+00 -0.00000000000E+00 -0.13204912332E+03  0.13204912332E+03  0.00000000000E+00 0. -1.
         -6    2    1    2    0  503 -0.69196212113E+02  0.81958651006E+02 -0.33325525813E+02  0.20587436266E+03  0.17253500017E+03 0.  0.
        -24    2    3    3    0    0 -0.52389889668E+02  0.12077790734E+03 -0.38221431091E+02  0.16303224524E+03  0.88241893404E+02 0.  0.
          6    2    1    2  501    0  0.69196212113E+02 -0.81958651006E+02  0.82388741989E+03  0.84878577807E+03  0.17361301837E+03 0.  0.
         24    2    5    5    0    0  0.10970556824E+03 -0.68887708517E+02  0.73048905580E+03  0.74603753289E+03  0.78593331472E+02 0.  0.
          5    1    5    5  501    0 -0.40509356129E+02 -0.13070942489E+02  0.93398364090E+02  0.10274824517E+03  0.47000000000E+01 0. -1.
        -13    1    6    6    0    0  0.34135061976E+02  0.15457591280E+02  0.21666595860E+03  0.21988241676E+03  0.00000000000E+00 0.  1.
         14    1    6    6    0    0  0.75570506266E+02 -0.84345299797E+02  0.51382309720E+03  0.52615511613E+03  0.00000000000E+00 0. -1.
         -5    1    3    3    0  503 -0.16806322445E+02 -0.38819256334E+02  0.48959052786E+01  0.42842117419E+02  0.47000000000E+01 0.  1.
         13    1    4    4    0    0 -0.14111998304E+02  0.60081834427E+02 -0.61956773685E+02  0.87450655399E+02  0.00000000000E+00 0. -1.
        -14    1    4    4    0    0 -0.38277891364E+02  0.60696072913E+02  0.23735342594E+02  0.75581589838E+02  0.00000000000E+00 0.  1.
</event>
<event>
12    1  0.8196217E-002  0.1879126E+03  0.7818608E-02  0.1160592E+00
         21   -1    0    0  501  502  0.00000000000E+00  0.00000000000E+00  0.59548447600E+02  0.59548447600E+02  0.00000000000E+00 0. -1.
         21   -1    0    0  502  503 -0.00000000000E+00 -0.00000000000E+00 -0.60890819046E+03  0.60890819046E+03  0.00000000000E+00 0. -1.
         -6    2    1    2    0  503  0.58071813605E+02 -0.47071116167E+02 -0.33467117690E+03  0.38381759701E+03  0.17240396057E+03 0.  0.
        -24    2    3    3    0    0 -0.56444781105E+01 -0.81667054503E+02 -0.20416433116E+03  0.23444969028E+03  0.81130852502E+02 0.  0.
          6    2    1    2  501    0 -0.58071813605E+02  0.47071116167E+02 -0.21468856596E+03  0.28463904104E+03  0.17128974814E+03 0.  0.
         24    2    5    5    0    0  0.78790370043E+01 -0.36613568024E+02 -0.10600508253E+03  0.13236681562E+03  0.69866041594E+02 0.  0.
          5    1    5    5  501    0 -0.65950850610E+02  0.83684684191E+02 -0.10868348343E+03  0.15227222542E+03  0.47000000000E+01 0. -1.
        -13    1    6    6    0    0 -0.19333107654E+02 -0.10694705400E+02 -0.24812249812E+01  0.22232909224E+02  0.00000000000E+00 0.  1.
         14    1    6    6    0    0  0.27212144658E+02 -0.25918862624E+02 -0.10352385755E+03  0.11013390640E+03  0.00000000000E+00 0. -1.
         -5    1    3    3    0  503  0.63716291716E+02  0.34595938335E+02 -0.13050684574E+03  0.14936790674E+03  0.47000000000E+01 0.  1.
         11    1    4    4    0    0  0.15513331836E+00  0.85755711036E+01  0.24439988803E+01  0.89183864362E+01  0.00000000000E+00 0. -1.
        -12    1    4    4    0    0 -0.57996114289E+01 -0.90242625606E+02 -0.20660833004E+03  0.22553130384E+03  0.00000000000E+00 0.  1.
</event>
<event>
12    1  0.8196217E-002  0.2111544E+03  0.7818608E-02  0.1141361E+00
         21   -1    0    0  501  502  0.00000000000E+00  0.00000000000E+00  0.40990418379E+03  0.40990418379E+03  0.00000000000E+00 0. -1.
         21   -1    0    0  502  503 -0.00000000000E+00 -0.00000000000E+00 -0.10710640019E+03  0.10710640019E+03  0.00000000000E+00 0.  1.
         -6    2    1    2    0  503 -0.40562741568E+02  0.10869185647E+03  0.14015470050E+03  0.25047927784E+03  0.17215479340E+03 0.  0.
        -24    2    3    3    0    0 -0.90053498461E+02  0.90354356025E+02  0.79289192269E+02  0.16978046105E+03  0.79152300692E+02 0.  0.
          6    2    1    2  501    0  0.40562741568E+02 -0.10869185647E+03  0.16264308310E+03  0.26653130614E+03  0.17642819787E+03 0.  0.
         24    2    5    5    0    0  0.69176042091E+01 -0.14240060452E+03  0.12145745916E+03  0.20339161512E+03  0.79312352751E+02 0.  0.
          5    1    5    5  501    0  0.33645137359E+02  0.33708748047E+02  0.41185623937E+02  0.63139691018E+02  0.47000000000E+01 0. -1.
        -13    1    6    6    0    0 -0.65791122753E+01 -0.10761987302E+03  0.12596956628E+03  0.16581210274E+03  0.00000000000E+00 0.  1.
         14    1    6    6    0    0  0.13496716484E+02 -0.34780731501E+02 -0.45121071209E+01  0.37579512375E+02  0.00000000000E+00 0. -1.
         -5    1    3    3    0  503  0.49490756893E+02  0.18337500444E+02  0.60865508227E+02  0.80698816795E+02  0.47000000000E+01 0.  1.
         11    1    4    4    0    0 -0.50436511675E+02  0.89234663861E+02  0.30543191177E+02  0.10695584824E+03  0.00000000000E+00 0. -1.
        -12    1    4    4    0    0 -0.39616986786E+02  0.11196921636E+01  0.48746001091E+02  0.62824612812E+02  0.00000000000E+00 0.  1.
</event>
<event>
12    1  0.8196217E-002  0.2163676E+03  0.7818608E-02  0.1136858E+00
         21   -1    0    0  503  502  0.00000000000E+00  0.00000000000E+00  0.28698090774E+03  0.28698090774E+03  0.00000000000E+00 0. -1.
         21   -1    0    0  501  503 -0.00000000000E+00 -0.00000000000E+00 -0.23036221649E+03  0.23036221649E+03  0.00000000000E+00 0. -1.
          6    2    1    2  501    0 -0.11936329837E+03  0.50923195666E+02 -0.11246213926E+03  0.24274660167E+03  0.17157334001E+03 0.  0.
         24    2    3    3    0    0 -0.61378476157E+02  0.27810837331E+02 -0.47478797258E+01  0.11816380823E+03  0.96950416214E+02 0.  0.
         -6    2    1    2    0  502  0.11936329837E+03 -0.50923195666E+02  0.16908083051E+03  0.27459652256E+03  0.17313045401E+03 0.  0.
        -24    2    5    5    0    0  0.98533249908E+02 -0.60917500106E+02  0.19403357557E+03  0.24026713973E+03  0.81605923988E+02 0.  0.
          5    1    3    3  501    0 -0.57984822210E+02  0.23112358335E+02 -0.10771425954E+03  0.12458279345E+03  0.47000000000E+01 0. -1.
        -13    1    4    4    0    0 -0.39014146107E+02  0.64238120492E+02 -0.10999751272E-01  0.75157433710E+02  0.00000000000E+00 0.  1.
         14    1    4    4    0    0 -0.22364330049E+02 -0.36427283161E+02 -0.47368799746E+01  0.43006374515E+02  0.00000000000E+00 0. -1.
         -5    1    5    5    0  502  0.20830048458E+02  0.99943044402E+01 -0.24952745056E+02  0.34329382835E+02  0.47000000000E+01 0.  1.
         13    1    6    6    0    0  0.97677435399E+02 -0.22860693859E+02  0.11542191463E+03  0.15292387350E+03  0.00000000000E+00 0. -1.
        -14    1    6    6    0    0  0.85581450873E+00 -0.38056806247E+02  0.78611660933E+02  0.87343266225E+02  0.00000000000E+00 0.  1.
</event>
<event>
12    1  0.8196217E-002  0.1909241E+03  0.7818608E-02  0.1159172E+00
         21   -1    0    0  501  502  0.00000000000E+00  0.00000000000E+00  0.23213718677E+03  0.23213718677E+03  0.00000000000E+00 0. -1.
         21   -1    0    0  502  503 -0.00000000000E+00 -0.00000000000E+00 -0.71663676297E+03  0.71663676297E+03  0.00000000000E+00 0. -1.
         -6    2    1    2    0  503  0.56972522135E+02 -0.57391241872E+02 -0.66257350041E+03  0.68769476883E+03  0.16547153441E+03 0.  0.
        -24    2    3    3    0    0 -0.21405274800E+02 -0.52015314269E+02 -0.28406733450E+03  0.30109292288E+03  0.82455557572E+02 0.  0.
          6    2    1    2  501    0 -0.56972522135E+02  0.57391241872E+02  0.17807392422E+03  0.26107918091E+03  0.17295199708E+03 0.  0.
         24    2    5    5    0    0 -0.39497370758E+02 -0.14161335580E+02  0.27809638257E+02  0.93667718067E+02  0.78991643265E+02 0.  0.
          5    1    5    5  501    0 -0.17475151378E+02  0.71552577452E+02  0.15026428596E+03  0.16741146284E+03  0.47000000000E+01 0. -1.
        -11    1    6    6    0    0 -0.35157978533E+02 -0.66672847458E+01  0.54729087882E+02  0.65389671973E+02  0.00000000000E+00 0.  1.
         12    1    6    6    0    0 -0.43393922251E+01 -0.74940508337E+01 -0.26919449625E+02  0.28278046094E+02  0.00000000000E+00 0. -1.
         -5    1    3    3    0  503  0.78377796936E+02 -0.53759276033E+01 -0.37850616592E+03  0.38660184594E+03  0.47000000000E+01 0.  1.
         13    1    4    4    0    0  0.28145737301E+02 -0.34204997245E+02 -0.16614978639E+03  0.17195323749E+03  0.00000000000E+00 0. -1.
        -14    1    4    4    0    0 -0.49551012101E+02 -0.17810317025E+02 -0.11791754810E+03  0.12913968539E+03  0.00000000000E+00 0.  1.
</event>
<event>
12    1  0.8196217E-002  0.3052550E+03  0.7818608E-02  0.1082752E+00
         21   -1    0    0  503  502  0.00000000000E+00  0.00000000000E+00  0.22794690113E+03  0.22794690113E+03  0.00000000000E+00 0. -1.
         21   -1    0    0  501  503 -0.00000000000E+00 -0.00000000000E+00 -0.63172434398E+03  0.63172434398E+03  0.00000000000E+00 0. -1.
          6    2    1    2  501    0 -0.25017358226E+03 -0.28049819896E+02 -0.45772995007E+03  0.54968496301E+03  0.17106501020E+03 0.  0.
         24    2    3    3    0    0 -0.13106630482E+03  0.49945539568E+02 -0.21843872400E+03  0.27120300577E+03  0.78502617878E+02 0.  0.
         -6    2    1    2    0  502  0.25017358226E+03  0.28049819896E+02  0.53952507217E+02  0.30998628210E+03  0.17264706310E+03 0.  0.
        -24    2    5    5    0    0  0.21661096729E+03  0.80335747696E+02  0.24727987998E+02  0.24116455666E+03  0.64612123372E+02 0.  0.
          5    1    3    3  501    0 -0.11910727745E+03 -0.77995359464E+02 -0.23929122607E+03  0.27848195724E+03  0.47000000000E+01 0. -1.
        -13    1    4    4    0    0 -0.71163259623E+02  0.58502531846E+02 -0.17129063483E+03  0.19449225520E+03  0.00000000000E+00 0.  1.
         14    1    4    4    0    0 -0.59903045192E+02 -0.85569922786E+01 -0.47148089172E+02  0.76710750569E+02  0.00000000000E+00 0. -1.
         -5    1    5    5    0  502  0.33562614967E+02 -0.52285927799E+02  0.29224519219E+02  0.68821725443E+02  0.47000000000E+01 0.  1.
         11    1    6    6    0    0  0.17369324956E+03  0.39655788405E+02  0.30687480802E+01  0.17818906732E+03  0.00000000000E+00 0. -1.
        -12    1    6    6    0    0  0.42917717730E+02  0.40679959291E+02  0.21659239917E+02  0.62975489334E+02  0.00000000000E+00 0.  1.
</event>
<event>
12    1  0.8196217E-002  0.4066584E+03  0.7818608E-02  0.1041652E+00
         21   -1    0    0  501  502  0.00000000000E+00  0.00000000000E+00  0.16932172901E+04  0.16932172901E+04  0.00000000000E+00 0. -1.
         21   -1    0    0  502  503 -0.00000000000E+00 -0.00000000000E+00 -0.19132908483E+03  0.19132908483E+03  0.00000000000E+00 0.  1.
         -6    2    1    2    0  503 -0.32389857294E+03 -0.17415989215E+03  0.14125929757E+04  0.14699625618E+04  0.17357725788E+03 0.  0.
        -24    2    3    3    0    0 -0.16328941716E+03 -0.79662763790E+02  0.97104280514E+03  0.99067804157E+03  0.74224409391E+02 0.  0.
          6    2    1    2  501    0  0.32389857294E+03  0.17415989215E+03  0.89295229611E+02  0.41458381319E+03  0.16930489224E+03 0.  0.
         24    2    5    5    0    0  0.20604170457E+03  0.18233431898E+03  0.64488375351E+02  0.29377597944E+03  0.80290644779E+02 0.  0.
          5    1    5    5  501    0  0.11785686837E+03 -0.81744268317E+01  0.24806854260E+02  0.12080783375E+03  0.47000000000E+01 0. -1.
        -13    1    6    6    0    0  0.56119840572E+01  0.40233298256E+02  0.45405964847E+01  0.40875783418E+02  0.00000000000E+00 0.  1.
         14    1    6    6    0    0  0.20042972051E+03  0.14210102072E+03  0.59947778866E+02  0.25290019602E+03  0.00000000000E+00 0. -1.
         -5    1    3    3    0  503 -0.16060915578E+03 -0.94497128359E+02  0.44155017055E+03  0.47928452019E+03  0.47000000000E+01 0.  1.
         13    1    4    4    0    0 -0.12832875406E+02 -0.37431642945E+02  0.22350809466E+03  0.22698387379E+03  0.00000000000E+00 0. -1.
        -14    1    4    4    0    0 -0.15045654176E+03 -0.42231120845E+02  0.74753471048E+03  0.76369416778E+03  0.00000000000E+00 0.  1.
</event>
<event>
12    1  0.8196217E-002  0.2455121E+03  0.7818608E-02  0.1116305E+00
         21   -1    0    0  503  502  0.00000000000E+00  0.00000000000E+00  0.11636473200E+03  0.11636473200E+03  0.00000000000E+00 0. -1.
         21   -1    0    0  501  503 -0.00000000000E+00 -0.00000000000E+00 -0.51715860385E+03  0.51715860385E+03  0.00000000000E+00 0.  1.
          6    2    1    2  501    0 -0.97739297420E+01  0.17551835357E+03 -0.21303740667E+03  0.32444620111E+03  0.17022978186E+03 0.  0.
         24    2    3    3    0    0 -0.53472661923E+02  0.54990908770E+02 -0.74585029982E+02  0.13569346668E+03  0.83465349590E+02 0.  0.
         -6    2    1    2    0  502  0.97739297420E+01 -0.17551835357E+03 -0.18775646518E+03  0.30907713474E+03  0.17138833934E+03 0.  0.
        -24    2    5    5    0    0 -0.30174471254E+02 -0.35457691764E+02 -0.11304827206E+03  0.14532040100E+03  0.78551642314E+02 0.  0.
          5    1    3    3  501    0  0.43698732181E+02  0.12052744480E+03 -0.13845237668E+03  0.18875273442E+03  0.47000000000E+01 0. -1.
        -13    1    4    4    0    0 -0.67407874030E+02  0.60205302065E+02 -0.79141315779E+02  0.12013262563E+03  0.00000000000E+00 0.  1.
         14    1    4    4    0    0  0.13935212107E+02 -0.52143932955E+01  0.45562857970E+01  0.15560841049E+02  0.00000000000E+00 0. -1.
         -5    1    5    5    0  502  0.39948400996E+02 -0.14006066180E+03 -0.74708193128E+02  0.16375673375E+03  0.47000000000E+01 0.  1.
         11    1    6    6    0    0 -0.20773745403E+02 -0.60523640948E+02 -0.86714139320E+02  0.10776827720E+03  0.00000000000E+00 0. -1.
        -12    1    6    6    0    0 -0.94007258514E+01  0.25065949184E+02 -0.26334132736E+02  0.37552123801E+02  0.00000000000E+00 0.  1.
</event>
<event>
12    1  0.8196217E-002  0.2952522E+03  0.7818608E-02  0.1087779E+00
         21   -1    0    0  503  502  0.00000000000E+00  0.00000000000E+00  0.73200546097E+03  0.73200546097E+03  0.00000000000E+00 0.  1.
         21   -1    0    0  501  503 -0.00000000000E+00 -0.00000000000E+00 -0.11935259310E+03  0.11935259310E+03  0.00000000000E+00 0. -1.
          6    2    1    2  501    0 -0.54142173734E+02 -0.23241396527E+03  0.27302306549E+03  0.40133332231E+03  0.17198608977E+03 0.  0.
         24    2    3    3    0    0 -0.54068994540E+02 -0.25338584712E+03  0.24505941422E+03  0.36606462549E+03  0.82591463497E+02 0.  0.
         -6    2    1    2    0  502  0.54142173734E+02  0.23241396527E+03  0.33962980238E+03  0.45002473177E+03  0.17385692482E+03 0.  0.
        -24    2    5    5    0    0  0.86144415245E+02  0.21333555197E+03  0.23181666929E+03  0.33585866421E+03  0.78288927385E+02 0.  0.
          5    1    3    3  501    0 -0.73179193851E-01  0.20971881845E+02  0.27963651265E+02  0.35268696820E+02  0.47000000000E+01 0. -1.
        -13    1    4    4    0    0 -0.46507171676E+02 -0.21148663637E+03  0.23990467037E+03  0.32317760635E+03  0.00000000000E+00 0.  1.
         14    1    4    4    0    0 -0.75618228642E+01 -0.41899210744E+02  0.51547438529E+01  0.42887019134E+02  0.00000000000E+00 0. -1.
         -5    1    5    5    0  502 -0.32002241512E+02  0.19078413307E+02  0.10781313309E+03  0.11416606757E+03  0.47000000000E+01 0.  1.
         11    1    6    6    0    0  0.51618156989E+02  0.39810813750E+02  0.49896753530E+02  0.82091540583E+02  0.00000000000E+00 0. -1.
        -12    1    6    6    0    0  0.34526258256E+02  0.17352473822E+03  0.18191991576E+03  0.25376712362E+03  0.00000000000E+00 0.  1.
</event>
<event>
12    1  0.8196217E-002  0.2137064E+03  0.7818608E-02  0.1138722E+00
         21   -1    0    0  501  502  0.00000000000E+00  0.00000000000E+00  0.54947534296E+03  0.54947534296E+03  0.00000000000E+00 0. -1.
         21   -1    0    0  502  503 -0.00000000000E+00 -0.00000000000E+00 -0.86878346835E+02  0.86878346835E+02  0.00000000000E+00 0.  1.
         -6    2    1    2    0  503 -0.78533027177E+02 -0.98598072081E+02  0.16391530503E+03  0.26909194741E+03  0.17220114041E+03 0.  0.
        -24    2    3    3    0    0 -0.69567998371E+01 -0.11505007908E+03  0.11151054736E+03  0.17874719946E+03  0.78936945607E+02 0.  0.
          6    2    1    2  501    0  0.78533027177E+02  0.98598072081E+02  0.29868169109E+03  0.36726174239E+03  0.17257293720E+03 0.  0.
         24    2    5    5    0    0  0.81540798999E+02  0.86274916326E+02  0.31430687089E+03  0.34659430175E+03  0.85126598829E+02 0.  0.
          5    1    5    5  501    0 -0.30077718220E+01  0.12323155755E+02 -0.15625179794E+02  0.20667440642E+02  0.47000000000E+01 0. -1.
        -11    1    6    6    0    0  0.59130989520E+01 -0.16774580025E+02  0.30030590886E+02  0.34902545225E+02  0.00000000000E+00 0.  1.
         12    1    6    6    0    0  0.75627700047E+02  0.10304949635E+03  0.28427628000E+03  0.31169175652E+03  0.00000000000E+00 0. -1.
         -5    1    3    3    0  503 -0.71576227340E+02  0.16452007001E+02  0.52404757677E+02  0.90344747948E+02  0.47000000000E+01 0.  1.
         11    1    4    4    0    0 -0.37295060845E+02 -0.55857329610E+02  0.81958943106E+02  0.10596334833E+03  0.00000000000E+00 0. -1.
        -12    1    4    4    0    0  0.30338261008E+02 -0.59192749472E+02  0.29551604250E+02  0.72783851127E+02  0.00000000000E+00 0.  1.
</event>
<event>
12    1  0.8196217E-002  0.1899649E+03  0.7818608E-02  0.1158821E+00
         21   -1    0    0  501  502  0.00000000000E+00  0.00000000000E+00  0.46614917890E+03  0.46614917890E+03  0.00000000000E+00 0.  1.
         21   -1    0    0  502  503 -0.00000000000E+00 -0.00000000000E+00 -0.18060302063E+03  0.18060302063E+03  0.00000000000E+00 0.  1.
         -6    2    1    2    0  503 -0.44689938334E+02 -0.68136343004E+02 -0.10212386709E+03  0.21567557873E+03  0.17160104663E+03 0.  0.
        -24    2    3    3    0    0 -0.62600118583E+02 -0.10175286254E+03 -0.51701199833E+02  0.15230855011E+03  0.79072501488E+02 0.  0.
          6    2    1    2  501    0  0.44689938334E+02  0.68136343004E+02  0.38767002536E+03  0.43107662080E+03  0.16999780179E+03 0.  0.
         24    2    5    5    0    0  0.80134541345E+02  0.58153686385E+02  0.18376450347E+03  0.22381947334E+03  0.80761178518E+02 0.  0.
          5    1    5    5  501    0 -0.35444603010E+02  0.99826566187E+01  0.20390552189E+03  0.20725714746E+03  0.47000000000E+01 0. -1.
        -11    1    6    6    0    0  0.43451561484E+02  0.27639110153E+02  0.16448174001E+03  0.17235487055E+03  0.00000000000E+00 0.  1.
         12    1    6    6    0    0  0.36682979860E+02  0.30514576232E+02  0.19282763458E+02  0.51464602793E+02  0.00000000000E+00 0. -1.
         -5    1    3    3    0  503  0.17910180249E+02  0.33616519539E+02 -0.50422667253E+02  0.63367028614E+02  0.47000000000E+01 0.  1.
         13    1    4    4    0    0  0.97854817179E+00 -0.65787095495E+02 -0.43337702358E+02  0.78784871237E+02  0.00000000000E+00 0. -1.
        -14    1    4    4    0    0 -0.63578666755E+02 -0.35965767048E+02 -0.83634974746E+01  0.73523678878E+02  0.00000000000E+00 0.  1.
</event>
<event>
12    1  0.8196217E-002  0.2074451E+03  0.7818608E-02  0.1144054E+00
         21   -1    0    0  503  502  0.00000000000E+00  0.00000000000E+00  0.36037634295E+03  0.36037634295E+03  0.00000000000E+00 0.  1.
         21   -1    0    0  501  503 -0.00000000000E+00 -0.00000000000E+00 -0.12520226076E+03  0.12520226076E+03  0.00000000000E+00 0. -1.
          6    2    1    2  501    0 -0.10646671351E+03  0.44383051486E+02  0.59324270519E+02  0.21362890137E+03  0.16974369527E+03 0.  0.
         24    2    3    3    0    0 -0.50253584718E+02 -0.40791094048E+02  0.23985588309E+02  0.10552957956E+03  0.79823853478E+02 0.  0.
         -6    2    1    2    0  502  0.10646671351E+03 -0.44383051486E+02  0.17584981167E+03  0.27194970233E+03  0.17241945363E+03 0.  0.
        -24    2    5    5    0    0 -0.23576547262E+01 -0.28070582960E+02  0.31111392234E+02  0.90070237268E+02  0.79694496367E+02 0.  0.
          5    1    3    3  501    0 -0.56213128796E+02  0.85174145534E+02  0.35338682210E+02  0.10809932182E+03  0.47000000000E+01 0. -1.
        -13    1    4    4    0    0 -0.11406972024E+02  0.23880287888E+02  0.12317610019E+02  0.29190934842E+02  0.00000000000E+00 0.  1.
         14    1    4    4    0    0 -0.38846612694E+02 -0.64671381936E+02  0.11667978290E+02  0.76338644714E+02  0.00000000000E+00 0. -1.
         -5    1    5    5    0  502  0.10882436824E+03 -0.16312468526E+02  0.14473841944E+03  0.18187946507E+03  0.47000000000E+01 0.  1.
         13    1    6    6    0    0  0.19171973714E+02  0.16373997868E+02  0.31923344399E+02  0.40678892560E+02  0.00000000000E+00 0. -1.
        -14    1    6    6    0    0 -0.21529628440E+02 -0.44444580828E+02 -0.81195216486E+00  0.49391344708E+02  0.00000000000E+00 0.  1.
</event>
<event>
12    1  0.8196217E-002  0.2689063E+03  0.7818608E-02  0.1103257E+00
         21   -1    0    0  503  502  0.00000000000E+00  0.00000000000E+00  0.57990392407E+03  0.57990392407E+03  0.00000000000E+00 0.  1.
         21   -1    0    0  501  503 -0.00000000000E+00 -0.00000000000E+00 -0.17794413240E+03  0.17794413240E+03  0.00000000000E+00 0. -1.
          6    2    1    2  501    0 -0.35086889114E+02 -0.20449255873E+03 -0.11999048257E+02  0.26917387161E+03  0.17106226829E+03 0.  0.
         24    2    3    3    0    0  0.61736936429E+01 -0.86562341089E+02 -0.64859717399E+02  0.13343031830E+03  0.77882690713E+02 0.  0.
         -6    2    1    2    0  502  0.35086889114E+02  0.20449255873E+03  0.41395883993E+03  0.48867418486E+03  0.15618015694E+03 0.  0.
        -24    2    5    5    0    0  0.16264348087E+02  0.12166910631E+03  0.35865342050E+03  0.38721093170E+03  0.78943835360E+02 0.  0.
          5    1    3    3  501    0 -0.41260582757E+02 -0.11793021764E+03  0.52860669142E+02  0.13574355331E+03  0.47000000000E+01 0. -1.
        -13    1    4    4    0    0  0.33308185150E+02 -0.30688714658E+02 -0.24167459842E+01  0.45354967384E+02  0.00000000000E+00 0.  1.
         14    1    4    4    0    0 -0.27134491507E+02 -0.55873626431E+02 -0.62442971414E+02  0.88075350916E+02  0.00000000000E+00 0. -1.
         -5    1    5    5    0  502  0.18822541027E+02  0.82823452428E+02  0.55305419430E+02  0.10146325316E+03  0.47000000000E+01 0.  1.
         13    1    6    6    0    0 -0.16827004044E+02 -0.24497782014E+01  0.32643988612E+02  0.36807329037E+02  0.00000000000E+00 0. -1.
        -14    1    6    6    0    0  0.33091352132E+02  0.12411888451E+03  0.32600943189E+03  0.35040360266E+03  0.00000000000E+00 0.  1.
</event>
<event>
12    1  0.8196217E-002  0.1987323E+03  0.7818608E-02  0.1150821E+00
         21   -1    0    0  501  502  0.00000000000E+00  0.00000000000E+00  0.68108695634E+03  0.68108695634E+03  0.00000000000E+00 0. -1.
         21   -1    0    0  502  503 -0.00000000000E+00 -0.00000000000E+00 -0.61054660662E+02  0.61054660662E+02  0.00000000000E+00 0. -1.
         -6    2    1    2    0  503 -0.99599500390E+02 -0.16759914903E+01  0.22672787466E+03  0.30149634880E+03  0.17196409442E+03 0.  0.
        -24    2    3    3    0    0 -0.12243364637E+03 -0.34817818483E+02  0.20920861012E+03  0.25735120696E+03  0.79114618911E+02 0.  0.
          6    2    1    2  501    0  0.99599500390E+02  0.16759914903E+01  0.39330442102E+03  0.44064526820E+03  0.17192153840E+03 0.  0.
         24    2    5    5    0    0  0.76262243958E+02 -0.36461041719E+02  0.14133757301E+03  0.18469909546E+03  0.83618831039E+02 0.  0.
          5    1    5    5  501    0  0.23337256432E+02  0.38137033210E+02  0.25196684801E+03  0.25594617274E+03  0.47000000000E+01 0. -1.
        -11    1    6    6    0    0  0.62681963265E+02 -0.28689787494E+02  0.15122096594E+03  0.16619239743E+03  0.00000000000E+00 0.  1.
         12    1    6    6    0    0  0.13580280692E+02 -0.77712542250E+01 -0.98833929350E+01  0.18506698026E+02  0.00000000000E+00 0. -1.
         -5    1    3    3    0  503  0.22834145977E+02  0.33141826992E+02  0.17519264531E+02  0.44145141846E+02  0.47000000000E+01 0.  1.
         13    1    4    4    0    0 -0.71752968231E+01 -0.18319366368E+02  0.21372524814E+01  0.19790197492E+02  0.00000000000E+00 0. -1.
        -14    1    4    4    0    0 -0.11525834954E+03 -0.16498452115E+02  0.20707135764E+03  0.23756100946E+03  0.00000000000E+00 0.  1.
</event>
<event>
12    1  0.8196217E-002  0.2295089E+03  0.7818608E-02  0.1127226E+00
         21   -1    0    0  501  502  0.00000000000E+00  0.00000000000E+00  0.21759878178E+03  0.21759878178E+03  0.00000000000E+00 0.  1.
         21   -1    0    0  502  503 -0.00000000000E+00 -0.00000000000E+00 -0.38365465001E+03  0.38365465001E+03  0.00000000000E+00 0.  1.
         -6    2    1    2    0  503  0.51903046501E+02 -0.14127653576E+03 -0.26672779341E+03  0.35187786760E+03  0.17326665039E+03 0.  0.
        -24    2    3    3    0    0 -0.85616370594E+01 -0.20321856878E+02 -0.15581920314E+03  0.17692410887E+03  0.80846995822E+02 0.  0.
          6    2    1    2  501    0 -0.51903046501E+02  0.14127653576E+03  0.10067192518E+03  0.24937556419E+03  0.17146530174E+03 0.  0.
         24    2    5    5    0    0  0.88022462358E+01  0.11404532135E+03  0.11610708225E+03  0.18091385461E+03  0.78518490685E+02 0.  0.
          5    1    5    5  501    0 -0.60705292737E+02  0.27231214405E+02 -0.15435157072E+02  0.68461709576E+02  0.47000000000E+01 0. -1.
        -11    1    6    6    0    0  0.17671705476E+02  0.53515952341E+02  0.10438170156E+03  0.11862455880E+03  0.00000000000E+00 0.  1.
         12    1    6    6    0    0 -0.88694592407E+01  0.60529369012E+02  0.11725380690E+02  0.62289295810E+02  0.00000000000E+00 0. -1.
         -5    1    3    3    0  503  0.60464683561E+02 -0.12095467888E+03 -0.11090859026E+03  0.17495375873E+03  0.47000000000E+01 0.  1.
         13    1    4    4    0    0 -0.42904604159E+00 -0.20376800410E+02  0.50590123390E+00  0.20387594550E+02  0.00000000000E+00 0. -1.
        -14    1    4    4    0    0 -0.81325910178E+01  0.54943532115E-01 -0.15632510438E+03  0.15653651432E+03  0.00000000000E+00 0.  1.
</event>
<event>
12    1  0.8196217E-002  0.3139772E+03  0.7818608E-02  0.1078458E+00
         21   -1    0    0  501  502  0.00000000000E+00  0.00000000000E+00  0.25944973652E+03  0.25944973652E+03  0.00000000000E+00 0.  1.
         21   -1    0    0  502  503 -0.00000000000E+00 -0.00000000000E+00 -0.39234143148E+03  0.39234143148E+03  0.00000000000E+00 0.  1.
         -6    2    1    2    0  503 -0.14719255002E+03  0.21786750377E+03 -0.12439983045E+03  0.33772328011E+03  0.17160944068E+03 0.  0.
        -24    2    3    3    0    0 -0.14307999111E+03  0.15166103520E+03 -0.34377961298E+02  0.22580260933E+03  0.79573995143E+02 0.  0.
          6    2    1    2  501    0  0.14719255002E+03 -0.21786750377E+03 -0.84918645094E+01  0.31406788789E+03  0.17156523674E+03 0.  0.
         24    2    5    5    0    0  0.72499038907E+02 -0.42416992199E+02 -0.47722734612E+02  0.11932920713E+03  0.70047758041E+02 0.  0.
          5    1    5    5  501    0  0.74693511113E+02 -0.17545051157E+03  0.39230870102E+02  0.19473868075E+03  0.47000000000E+01 0. -1.
        -11    1    6    6    0    0  0.44402462831E+02 -0.43689550776E+02  0.18652172052E+01  0.62320418706E+02  0.00000000000E+00 0.  1.
         12    1    6    6    0    0  0.28096576077E+02  0.12725585774E+01 -0.49587951817E+02  0.57008788427E+02  0.00000000000E+00 0. -1.
         -5    1    3    3    0  503 -0.41125589071E+01  0.66206468564E+02 -0.90021869152E+02  0.11192067077E+03  0.47000000000E+01 0.  1.
         11    1    4    4    0    0 -0.57221179760E+02  0.17487506767E+02 -0.28819436244E+02  0.66412620875E+02  0.00000000000E+00 0. -1.
        -12    1    4    4    0    0 -0.85858811354E+02  0.13417352844E+03 -0.55585250536E+01  0.15938998846E+03  0.00000000000E+00 0.  1.
</event>
<event>
12    1  0.8196217E-002  0.2580932E+03  0.7818608E-02  0.1108572E+00
         21   -1    0    0  503  502  0.00000000000E+00  0.00000000000E+00  0.22138336332E+03  0.22138336332E+03  0.00000000000E+00 0. -1.
         21   -1    0    0  501  503 -0.00000000000E+00 -0.00000000000E+00 -0.37633350026E+03  0.37633350026E+03  0.00000000000E+00 0.  1.
          6    2    1    2  501    0  0.37611963781E+02 -0.18512647595E+03 -0.21293558425E+03  0.33319005777E+03  0.17316922255E+03 0.  0.
         24    2    3    3    0    0 -0.20394276511E+02 -0.17692870635E+03 -0.14256681957E+03  0.24150701472E+03  0.79250529799E+02 0.  0.
         -6    2    1    2    0  502 -0.37611963781E+02  0.18512647595E+03  0.57985447316E+02  0.26452680581E+03  0.17585689346E+03 0.  0.
        -24    2    5    5    0    0  0.44061059835E+02  0.13366563202E+03  0.37257093329E+02  0.16568118930E+03  0.79084052171E+02 0.  0.
          5    1    3    3  501    0  0.58006240292E+02 -0.81977695976E+01 -0.70368764682E+02  0.91683043046E+02  0.47000000000E+01 0. -1.
        -13    1    4    4    0    0 -0.16023572867E+02 -0.49672694681E+02 -0.89402842727E+02  0.10352294322E+03  0.00000000000E+00 0.  1.
         14    1    4    4    0    0 -0.43707036440E+01 -0.12725601167E+03 -0.53163976842E+02  0.13798407151E+03  0.00000000000E+00 0. -1.
         -5    1    5    5    0  502 -0.81673023616E+02  0.51460843925E+02  0.20728353987E+02  0.98845616509E+02  0.47000000000E+01 0.  1.
         11    1    6    6    0    0  0.27378682739E+02  0.88351926188E+02 -0.15914675222E+02  0.93855910933E+02  0.00000000000E+00 0. -1.
        -12    1    6    6    0    0  0.16682377096E+02  0.45313705833E+02  0.53171768552E+02  0.71825278369E+02  0.00000000000E+00 0.  1.
</event>
<event>
12    1  0.8196217E-002  0.2449711E+03  0.7818608E-02  0.1117088E+00
         21   -1    0    0  503  502  0.00000000000E+00  0.00000000000E+00  0.76656982859E+03  0.76656982859E+03  0.00000000000E+00 0.  1.
         21   -1    0    0  501  503 -0.00000000000E+00 -0.00000000000E+00 -0.12953986680E+03  0.12953986680E+03  0.00000000000E+00 0. -1.
          6    2    1    2  501    0  0.96674214562E+02  0.14239934490E+03  0.35026338800E+02  0.24746247430E+03  0.17431969077E+03 0.  0.
         24    2    3    3    0    0 -0.18235378743E+02  0.63178536632E+02 -0.20023453201E+02  0.97353444944E+02  0.68939814589E+02 0.  0.
         -6    2    1    2    0  502 -0.96674214562E+02 -0.14239934490E+03  0.60200362299E+03  0.64864722109E+03  0.16944432166E+03 0.  0.
        -24    2    5    5    0    0 -0.70386480289E+02 -0.60881882739E+02  0.50211426335E+03  0.51698053670E+03  0.80556077414E+02 0.  0.
          5    1    3    3  501    0  0.11490959331E+03  0.79220808263E+02  0.55049792001E+02  0.15010902936E+03  0.47000000000E+01 0. -1.
        -13    1    4    4    0    0 -0.81068825079E+01 -0.10856716351E+01 -0.30393356940E+02  0.31474694169E+02  0.00000000000E+00 0.  1.
         14    1    4    4    0    0 -0.10128496236E+02  0.64264208267E+02  0.10369903739E+02  0.65878750776E+02  0.00000000000E+00 0. -1.
         -5    1    5    5    0  502 -0.26287734273E+02 -0.81517462156E+02  0.99889359640E+02  0.13166668439E+03  0.47000000000E+01 0.  1.
         11    1    6    6    0    0 -0.72536339867E+02 -0.73070923205E+02  0.36307596384E+03  0.37739241638E+03  0.00000000000E+00 0. -1.
        -12    1    6    6    0    0  0.21498595782E+01  0.12189040465E+02  0.13903829951E+03  0.13958812032E+03  0.00000000000E+00 0.  1.
</event>
<event>
12    1  0.8196217E-002  0.2342733E+03  0.7818608E-02  0.1123779E+00
         21   -1    0    0  501  502  0.00000000000E+00  0.00000000000E+00  0.75054779255E+02  0.75054779255E+02  0.00000000000E+00 0. -1.
         21   -1    0    0  502  503 -0.00000000000E+00 -0.00000000000E+00 -0.85781526801E+03  0.85781526801E+03  0.00000000000E+00 0.  1.
         -6    2    1    2    0  503  0.19385148602E+02  0.15942845384E+03 -0.57243297938E+03  0.61851715589E+03  0.17056007845E+03 0.  0.
        -24    2    3    3    0    0  0.54596354200E+02  0.43350284814E+02 -0.18766805184E+03  0.21505698463E+03  0.78550619802E+02 0.  0.
          6    2    1    2  501    0 -0.19385148602E+02 -0.15942845384E+03 -0.21032750937E+03  0.31435289138E+03  0.16966691851E+03 0.  0.
         24    2    5    5    0    0 -0.33762158327E+02 -0.11441141331E+03 -0.22259958897E+03  0.26530264892E+03  0.81271542902E+02 0.  0.
          5    1    5    5  501    0  0.14377009725E+02 -0.45017040537E+02  0.12272079596E+02  0.49050242455E+02  0.47000000000E+01 0. -1.
        -13    1    6    6    0    0  0.14401543195E+02  0.91844168191E+00 -0.51065533256E+02  0.53065399916E+02  0.00000000000E+00 0.  1.
         14    1    6    6    0    0 -0.48163701522E+02 -0.11532985499E+03 -0.17153405571E+03  0.21223724901E+03  0.00000000000E+00 0. -1.
         -5    1    3    3    0  503 -0.35211205599E+02  0.11607816903E+03 -0.38476492755E+03  0.40346017126E+03  0.47000000000E+01 0. -1.
         11    1    4    4    0    0  0.32009092470E+02 -0.19492369526E+02 -0.80319713322E+02  0.88632899189E+02  0.00000000000E+00 0. -1.
        -12    1    4    4    0    0  0.22587261731E+02  0.62842654341E+02 -0.10734833852E+03  0.12642408544E+03  0.00000000000E+00 0.  1.
</event>
<event>
12    1  0.8196217E-002  0.2077178E+03  0.7818608E-02  0.1143862E+00
         21   -1    0    0  503  502  0.00000000000E+00  0.00000000000E+00  0.47314196506E+03  0.47314196506E+03  0.00000000000E+00 0.  1.
         21   -1    0    0  501  503 -0.00000000000E+00 -0.00000000000E+00 -0.12864937920E+03  0.12864937920E+03  0.00000000000E+00 0. -1.
          6    2    1    2  501    0  0.10668081776E+03  0.52064227275E+02  0.33613527795E+03  0.39390547086E+03  0.16758017260E+03 0.  0.
         24    2    3    3    0    0  0.53307455989E+02  0.50707255628E+02  0.32028415434E+03  0.33801356412E+03  0.79109540316E+02 0.  0.
         -6    2    1    2    0  502 -0.10668081776E+03 -0.52064227275E+02  0.83573079074E+01  0.20788587339E+03  0.17045589201E+03 0.  0.
        -24    2    5    5    0    0 -0.57582939159E+02  0.99082658224E+01 -0.49622393749E+02  0.10972820743E+03  0.78510693094E+02 0.  0.
          5    1    3    3  501    0  0.53373361771E+02  0.13569716471E+01  0.15851123607E+02  0.55891906734E+02  0.47000000000E+01 0. -1.
        -13    1    4    4    0    0  0.34003875558E+02 -0.19002982466E+01  0.22428456142E+03  0.22685554694E+03  0.00000000000E+00 0.  1.
         14    1    4    4    0    0  0.19303580431E+02  0.52607553875E+02  0.95999592927E+02  0.11115801718E+03  0.00000000000E+00 0. -1.
         -5    1    5    5    0  502 -0.49097878601E+02 -0.61972493097E+02  0.57979701657E+02  0.98157665967E+02  0.47000000000E+01 0.  1.
         11    1    6    6    0    0 -0.51138882620E+02 -0.24225041521E+02 -0.49207529901E+02  0.74989458934E+02  0.00000000000E+00 0. -1.
        -12    1    6    6    0    0 -0.64440565392E+01  0.34133307343E+02 -0.41486384808E+00  0.34738748494E+02  0.00000000000E+00 0.  1.
</event>
<event>
12    1  0.8196217E-002  0.2017158E+03  0.7818608E-02  0.1148573E+00
         21   -1    0    0  503  502  0.00000000000E+00  0.00000000000E+00  0.28642297637E+03  0.28642297637E+03  0.00000000000E+00 0. -1.
         21   -1    0    0  501  503 -0.00000000000E+00 -0.00000000000E+00 -0.14288962694E+03  0.14288962694E+03  0.00000000000E+00 0. -1.
          6    2    1    2  501    0  0.72705338807E+02  0.73929855841E+02  0.48254357121E+02  0.20740723924E+03  0.17302482491E+03 0.  0.
         24    2    3    3    0    0  0.19292669707E+02  0.10204540946E+03  0.63152308598E+02  0.14505792863E+03  0.79171433493E+02 0.  0.
         -6    2    1    2    0  502 -0.72705338807E+02 -0.73929855841E+02  0.95278992312E+02  0.22190536406E+03  0.17149989606E+03 0.  0.
        -24    2    5    5    0    0  0.53013385374E+00 -0.76144112926E+02  0.99945879941E+02  0.14833765898E+03  0.78845895143E+02 0.  0.
          5    1    3    3  501    0  0.53412669099E+02 -0.28115553620E+02 -0.14897951478E+02  0.62349310613E+02  0.47000000000E+01 0. -1.
        -13    1    4    4    0    0  0.17195735135E+02 -0.81607499502E+01  0.23618775543E+01  0.19179927324E+02  0.00000000000E+00 0.  1.
         14    1    4    4    0    0  0.20969345718E+01  0.11020615941E+03  0.60790431044E+02  0.12587800131E+03  0.00000000000E+00 0. -1.
         -5    1    5    5    0  502 -0.73235472660E+02  0.22142570851E+01 -0.46668876286E+01  0.73567705077E+02  0.47000000000E+01 0.  1.
         11    1    6    6    0    0  0.47352738204E+01 -0.59915813725E+02  0.15261669925E+02  0.62010048552E+02  0.00000000000E+00 0. -1.
        -12    1    6    6    0    0 -0.42051399666E+01 -0.16228299200E+02  0.84684210016E+02  0.86327610433E+02  0.00000000000E+00 0.  1.
</event>
<event>
12    1  0.8196217E-002  0.2019895E+03  0.7818608E-02  0.1148708E+00
         21   -1    0    0  503  502  0.00000000000E+00  0.00000000000E+00  0.28093474764E+03  0.28093474764E+03  0.00000000000E+00 0. -1.
         21   -1    0    0  501  503 -0.00000000000E+00 -0.00000000000E+00 -0.34905380333E+03  0.34905380333E+03  0.00000000000E+00 0. -1.
          6    2    1    2  501    0  0.92495612677E+02  0.36864711286E+02 -0.27593501745E+03  0.34018302070E+03  0.17224955273E+03 0.  0.
         24    2    3    3    0    0  0.28693416801E+02 -0.40049906796E+02 -0.17288732092E+03  0.19656026334E+03  0.79489648297E+02 0.  0.
         -6    2    1    2    0  502 -0.92495612677E+02 -0.36864711286E+02  0.20781596176E+03  0.28980553026E+03  0.17574221492E+03 0.  0.
        -24    2    5    5    0    0 -0.92973835655E+02 -0.75592025385E+02  0.96955203606E+02  0.17228008088E+03  0.76953403711E+02 0.  0.
          5    1    3    3  501    0  0.63802195876E+02  0.76914618081E+02 -0.10304769653E+03  0.14362275737E+03  0.47000000000E+01 0. -1.
        -11    1    4    4    0    0 -0.23910754837E+02 -0.28532603248E+02 -0.49519629810E+02  0.61951814998E+02  0.00000000000E+00 0.  1.
         12    1    4    4    0    0  0.52604171638E+02 -0.11517303548E+02 -0.12336769111E+03  0.13460844834E+03  0.00000000000E+00 0. -1.
         -5    1    5    5    0  502  0.47822297724E+00  0.38727314099E+02  0.11086075816E+03  0.11752544939E+03  0.47000000000E+01 0.  1.
         11    1    6    6    0    0 -0.11426809728E+02 -0.50714859057E+02  0.15210414559E+02  0.54165723670E+02  0.00000000000E+00 0. -1.
        -12    1    6    6    0    0 -0.81547025927E+02 -0.24877166328E+02  0.81744789047E+02  0.11811435721E+03  0.00000000000E+00 0.  1.
</event>
<event>
12    1  0.8196217E-002  0.1808107E+03  0.7818608E-02  0.1168034E+00
         21   -1    0    0  501  502  0.00000000000E+00  0.00000000000E+00  0.99143687795E+02  0.99143687795E+02  0.00000000000E+00 0.  1.
         21   -1    0    0  502  503 -0.00000000000E+00 -0.00000000000E+00 -0.72463123565E+03  0.72463123565E+03  0.00000000000E+00 0.  1.
         -6    2    1    2    0  503 -0.55756696631E+02  0.46152729614E+01 -0.62129767412E+03  0.64707288715E+03  0.17193723114E+03 0.  0.
        -24    2    3    3    0    0  0.44956311135E+01 -0.33288320700E+02 -0.17651273843E+03  0.19660340491E+03  0.79798677936E+02 0.  0.
          6    2    1    2  501    0  0.55756696631E+02 -0.46152729614E+01 -0.41898737363E+01  0.17670203630E+03  0.16755877962E+03 0.  0.
         24    2    5    5    0    0  0.84003573718E+02  0.13810252318E+02  0.39717501270E+02  0.12113825649E+03  0.76483160308E+02 0.  0.
          5    1    5    5  501    0 -0.28246877088E+02 -0.18425525279E+02 -0.43907375007E+02  0.55563779812E+02  0.47000000000E+01 0. -1.
        -13    1    6    6    0    0  0.89973807336E+02  0.88991088821E+01  0.10623640499E+02  0.91034838841E+02  0.00000000000E+00 0.  1.
         14    1    6    6    0    0 -0.59702336176E+01  0.49111434358E+01  0.29093860772E+02  0.30103417645E+02  0.00000000000E+00 0. -1.
         -5    1    3    3    0  503 -0.60252327744E+02  0.37903593662E+02 -0.44478493570E+03  0.45046948224E+03  0.47000000000E+01 0.  1.
         13    1    4    4    0    0 -0.11547023025E+02 -0.34604028287E+02 -0.17677998599E+03  0.18050467019E+03  0.00000000000E+00 0. -1.
        -14    1    4    4    0    0  0.16042654139E+02  0.13157075863E+01  0.26724756150E+00  0.16098734718E+02  0.00000000000E+00 0.  1.
</event>
<event>
12    1  0.8196217E-002  0.1772272E+03  0.7818608E-02  0.1170655E+00
         21   -1    0    0  501  502  0.00000000000E+00  0.00000000000E+00  0.11827324355E+04  0.11827324355E+04  0.00000000000E+00 0.  1.
         21   -1    0    0  502  503 -0.00000000000E+00 -0.00000000000E+00 -0.52172487427E+02  0.52172487427E+02  0.00000000000E+00 0.  1.
         -6    2    1    2    0  503  0.11780638976E+02 -0.39574437030E+02  0.13144465184E+03  0.22019272438E+03  0.17176210249E+03 0.  0.
        -24    2    3    3    0    0  0.64607762241E+02 -0.44888318640E+02  0.93409107724E+02  0.15471192638E+03  0.94981022670E+02 0.  0.
          6    2    1    2  501    0 -0.11780638976E+02  0.39574437030E+02  0.99911529620E+03  0.10147121985E+04  0.17235008324E+03 0.  0.
         24    2    5    5    0    0 -0.17773931594E+02 -0.44382120250E+02  0.52147389780E+03  0.52968846865E+03  0.79681632083E+02 0.  0.
          5    1    5    5  501    0  0.59932926177E+01  0.83956557279E+02  0.47764139840E+03  0.48502372986E+03  0.47000000000E+01 0. -1.
        -11    1    6    6    0    0 -0.30189539485E+02 -0.63019599114E+00  0.37741695097E+03  0.37862297912E+03  0.00000000000E+00 0.  1.
         12    1    6    6    0    0  0.12415607891E+02 -0.43751924258E+02  0.14405694684E+03  0.15106548953E+03  0.00000000000E+00 0. -1.
         -5    1    3    3    0  503 -0.52827123265E+02  0.53138816097E+01  0.38035544119E+02  0.65480797999E+02  0.47000000000E+01 0.  1.
         11    1    4    4    0    0  0.40727284569E+02 -0.63251908406E+02  0.98725306792E+02  0.12412172182E+03  0.00000000000E+00 0. -1.
        -12    1    4    4    0    0  0.23880477672E+02  0.18363589767E+02 -0.53161990682E+01  0.30590204568E+02  0.00000000000E+00 0.  1.
</event>
<event>
12    1  0.8196217E-002  0.1873604E+03  0.7818608E-02  0.1161046E+00
         21   -1    0    0  503  502  0.00000000000E+00  0.00000000000E+00  0.98544448424E+02  0.98544448424E+02  0.00000000000E+00 0.  1.
         21   -1    0    0  501  503 -0.00000000000E+00 -0.00000000000E+00 -0.39521368197E+03  0.39521368197E+03  0.00000000000E+00 0.  1.
          6    2    1    2  501    0  0.60429235430E+02  0.42953169975E+02 -0.22763846512E+03  0.29482741757E+03  0.17206762637E+03 0.  0.
         24    2    3    3    0    0  0.94232840814E+02  0.53252131600E+01 -0.20245630596E+03  0.23812840514E+03  0.82513000958E+02 0.  0.
         -6    2    1    2    0  502 -0.60429235430E+02 -0.42953169975E+02 -0.69030768419E+02  0.19893071282E+03  0.17120605774E+03 0.  0.
        -24    2    5    5    0    0 -0.25856071726E+02 -0.27075996261E+02 -0.10954429995E+03  0.14315594674E+03  0.84214163992E+02 0.  0.
          5    1    3    3  501    0 -0.33803605384E+02  0.37627956815E+02 -0.25182159164E+02  0.56699012436E+02  0.47000000000E+01 0. -1.
        -13    1    4    4    0    0  0.71734955113E+02  0.12415334090E+02 -0.61761933207E+02  0.95470313182E+02  0.00000000000E+00 0.  1.
         14    1    4    4    0    0  0.22497885701E+02 -0.70901209299E+01 -0.14069437275E+03  0.14265809196E+03  0.00000000000E+00 0. -1.
         -5    1    5    5    0  502 -0.34573163704E+02 -0.15877173714E+02  0.40513531533E+02  0.55774766077E+02  0.47000000000E+01 0.  1.
         11    1    6    6    0    0  0.21291237570E+02  0.93149819977E+01 -0.64895261960E+01  0.24128813421E+02  0.00000000000E+00 0. -1.
        -12    1    6    6    0    0 -0.47147309296E+02 -0.36390978258E+02 -0.10305477376E+03  0.11902713332E+03  0.00000000000E+00 0.  1.
</event>
<event>
12    1  0.8196217E-002  0.2654852E+03  0.7818608E-02  0.1104128E+00
         21   -1    0    0  501  502  0.00000000000E+00  0.00000000000E+00  0.64918522231E+03  0.64918522231E+03  0.00000000000E+00 0. -1.
         21   -1    0    0  502  503 -0.00000000000E+00 -0.00000000000E+00 -0.27135226349E+03  0.27135226349E+03  0.00000000000E+00 0. -1.
         -6    2    1    2    0  503 -0.13989707717E+03 -0.14407637159E+03 -0.16852090485E+03  0.31309616778E+03  0.17117453624E+03 0.  0.
        -24    2    3    3    0    0 -0.24836023163E+02 -0.10582006991E+03 -0.58785358320E+02  0.14949124444E+03  0.84126087336E+02 0.  0.
          6    2    1    2  501    0  0.13989707717E+03  0.14407637159E+03  0.54635386366E+03  0.60744131803E+03  0.17364681816E+03 0.  0.
         24    2    5    5    0    0  0.73608043209E+02  0.12742198401E+02  0.17053656451E+03  0.20382809548E+03  0.82961828743E+02 0.  0.
          5    1    5    5  501    0  0.66289033963E+02  0.13133417319E+03  0.37581729916E+03  0.40361322255E+03  0.47000000000E+01 0. -1.
        -11    1    6    6    0    0  0.68833329174E+02  0.30695402593E+02  0.74366526293E+02  0.10588019257E+03  0.00000000000E+00 0.  1.
         12    1    6    6    0    0  0.47747140349E+01 -0.17953204192E+02  0.96170038212E+02  0.97947902911E+02  0.00000000000E+00 0. -1.
         -5    1    3    3    0  503 -0.11506105401E+03 -0.38256301678E+02 -0.10973554653E+03  0.16360492333E+03  0.47000000000E+01 0.  1.
         13    1    4    4    0    0  0.45002426606E+01 -0.40817113899E+02 -0.66082990214E+02  0.77802638559E+02  0.00000000000E+00 0. -1.
        -14    1    4    4    0    0 -0.29336265824E+02 -0.65002956010E+02  0.72976318939E+01  0.71688605886E+02  0.00000000000E+00 0.  1.
</event>
<event>
12    1  0.8196217E-002  0.1865136E+03  0.7818608E-02  0.1162351E+00
         21   -1    0    0  503  502  0.00000000000E+00  0.00000000000E+00  0.53255147711E+03  0.53255147711E+03  0.00000000000E+00 0.  1.
         21   -1    0    0  501  503 -0.00000000000E+00 -0.00000000000E+00 -0.80346249835E+02  0.80346249835E+02  0.00000000000E+00 0.  1.
          6    2    1    2  501    0  0.28254642720E+02 -0.58896305406E+02  0.87521289885E+02  0.20328608912E+03  0.17145891117E+03 0.  0.
         24    2    3    3    0    0 -0.16692212688E+02 -0.90924810144E+02  0.31165749827E+02  0.12426658632E+03  0.76973563319E+02 0.  0.
         -6    2    1    2    0  502 -0.28254642720E+02  0.58896305406E+02  0.36468393739E+03  0.40961163783E+03  0.17470037214E+03 0.  0.
        -24    2    5    5    0    0 -0.81404903878E+02  0.30649828392E+02  0.28391333348E+03  0.30877119861E+03  0.84656374887E+02 0.  0.
          5    1    3    3  501    0  0.44946855408E+02  0.32028504738E+02  0.56355540058E+02  0.79019502795E+02  0.47000000000E+01 0. -1.
        -13    1    4    4    0    0  0.27729399349E+02 -0.32414760536E+02 -0.39560812189E+01  0.42840248219E+02  0.00000000000E+00 0.  1.
         14    1    4    4    0    0 -0.44421612037E+02 -0.58510049608E+02  0.35121831046E+02  0.81426338105E+02  0.00000000000E+00 0. -1.
         -5    1    5    5    0  502  0.53150261158E+02  0.28246477014E+02  0.80770603913E+02  0.10084043922E+03  0.47000000000E+01 0.  1.
         13    1    6    6    0    0 -0.87518707526E+01 -0.30388793705E+01 -0.38793427049E+01  0.10043870236E+02  0.00000000000E+00 0. -1.
        -14    1    6    6    0    0 -0.72653033126E+02  0.33688707763E+02  0.28779267619E+03  0.29872732838E+03  0.00000000000E+00 0.  1.
</event>
<event>
12    1  0.8196217E-002  0.2112064E+03  0.7818608E-02  0.1141046E+00
         21   -1    0    0  503  502  0.00000000000E+00  0.00000000000E+00  0.32206393641E+03  0.32206393641E+03  0.00000000000E+00 0.  1.
         21   -1    0    0  501  503 -0.00000000000E+00 -0.00000000000E+00 -0.32051111528E+03  0.32051111528E+03  0.00000000000E+00 0. -1.
          6    2    1    2  501    0  0.78115979500E+02 -0.90559435200E+02 -0.24228244629E+03  0.31998585669E+03  0.17142650654E+03 0.  0.
         24    2    3    3    0    0  0.11821318430E+03 -0.48733399242E+02 -0.16539036439E+03  0.22359246804E+03  0.79311524932E+02 0.  0.
         -6    2    1    2    0  502 -0.78115979500E+02  0.90559435200E+02  0.24383526742E+03  0.32258919500E+03  0.17408340971E+03 0.  0.
        -24    2    5    5    0    0 -0.16842018755E+02  0.75416316061E+02  0.23179548278E+03  0.25816203662E+03  0.83349966945E+02 0.  0.
          5    1    3    3  501    0 -0.40097204800E+02 -0.41826035958E+02 -0.76892081904E+02  0.96393388654E+02  0.47000000000E+01 0. -1.
        -13    1    4    4    0    0  0.49665233873E+02  0.12023695834E+02 -0.95731300545E+02  0.10851583581E+03  0.00000000000E+00 0.  1.
         14    1    4    4    0    0  0.68547950427E+02 -0.60757095076E+02 -0.69659063841E+02  0.11507663223E+03  0.00000000000E+00 0. -1.
         -5    1    5    5    0  502 -0.61273960745E+02  0.15143119139E+02  0.12039784639E+02  0.64427158379E+02  0.47000000000E+01 0.  1.
         11    1    6    6    0    0 -0.12658957462E+02 -0.45082008958E+01  0.53967418544E+00  0.13448580876E+02  0.00000000000E+00 0. -1.
        -12    1    6    6    0    0 -0.41830612928E+01  0.79924516956E+02  0.23125580860E+03  0.24471345574E+03  0.00000000000E+00 0.  1.
</event>
<event>
12    1  0.8196217E-002  0.1797802E+03  0.7818608E-02  0.1168147E+00
         21   -1    0    0  501  502  0.00000000000E+00  0.00000000000E+00  0.72015637011E+03  0.72015637011E+03  0.00000000000E+00 0. -1.
         21   -1    0    0  502  503 -0.00000000000E+00 -0.00000000000E+00 -0.50482414204E+02  0.50482414204E+02  0.00000000000E+00 0. -1.
         -6    2    1    2    0  503 -0.52298898427E+02  0.15192557607E+01  0.46516925024E+03  0.49870165188E+03  0.17199832357E+03 0.  0.
        -24    2    3    3    0    0  0.24448420108E+02  0.40522424410E+02  0.25953386495E+03  0.27572317815E+03  0.80160163341E+02 0.  0.
          6    2    1    2  501    0  0.52298898427E+02 -0.15192557607E+01  0.20450470567E+03  0.27193713243E+03  0.17143554602E+03 0.  0.
         24    2    5    5    0    0  0.89688071199E+02  0.35341097634E+02  0.16068856006E+03  0.20339093991E+03  0.79082980512E+02 0.  0.
          5    1    5    5  501    0 -0.37389172771E+02 -0.36860353395E+02  0.43816145609E+02  0.68546192520E+02  0.47000000000E+01 0. -1.
        -11    1    6    6    0    0  0.63929294350E+02  0.26961693943E+02  0.16204058157E+03  0.17626978667E+03  0.00000000000E+00 0.  1.
         12    1    6    6    0    0  0.25758776849E+02  0.83794036917E+01 -0.13520215122E+01  0.27121153242E+02  0.00000000000E+00 0. -1.
         -5    1    3    3    0  503 -0.76747318535E+02 -0.39003168649E+02  0.20563538529E+03  0.22297847374E+03  0.47000000000E+01 0.  1.
         11    1    4    4    0    0 -0.20396482081E+02  0.43143159751E+02  0.14711521854E+03  0.15466168317E+03  0.00000000000E+00 0. -1.
        -12    1    4    4    0    0  0.44844902189E+02 -0.26207353411E+01  0.11241864641E+03  0.12106149498E+03  0.00000000000E+00 0.  1.
</event>
<event>
12    1  0.8196217E-002  0.2243100E+03  0.7818608E-02  0.1130774E+00
         21   -1    0    0  503  502  0.00000000000E+00  0.00000000000E+00  0.11192863434E+03  0.11192863434E+03  0.00000000000E+00 0.  1.
         21   -1    0    0  501  503 -0.00000000000E+00 -0.00000000000E+00 -0.94508282029E+03  0.94508282029E+03  0.00000000000E+00 0.  1.
          6    2    1    2  501    0 -0.74682116946E+02  0.12103123936E+03 -0.79970753569E+03  0.83057034544E+03  0.17346174389E+03 0.  0.
         24    2    3    3    0    0  0.25509787826E+02  0.51285947186E+02 -0.44604109308E+03  0.45639810410E+03  0.77881801821E+02 0.  0.
         -6    2    1    2    0  502  0.74682116946E+02 -0.12103123936E+03 -0.33446650263E+02  0.22644110919E+03  0.17300554333E+03 0.  0.
        -24    2    5    5    0    0  0.58485326864E+02 -0.15591093285E+02  0.26831730113E+02  0.10382164273E+03  0.79971095464E+02 0.  0.
          5    1    3    3  501    0 -0.10019190477E+03  0.69745292176E+02 -0.35366644262E+03  0.37417224135E+03  0.47000000000E+01 0. -1.
        -11    1    4    4    0    0  0.30632221658E+02  0.81771922257E+00 -0.30456208879E+03  0.30609976739E+03  0.00000000000E+00 0.  1.
         12    1    4    4    0    0 -0.51224338325E+01  0.50468227963E+02 -0.14147900428E+03  0.15029833670E+03  0.00000000000E+00 0. -1.
         -5    1    5    5    0  502  0.16196790082E+02 -0.10544014608E+03 -0.60278380376E+02  0.12261946646E+03  0.47000000000E+01 0.  1.
         13    1    6    6    0    0 -0.10884957017E+02  0.51656623400E+01 -0.15742283015E+02  0.19823870237E+02  0.00000000000E+00 0. -1.
        -14    1    6    6    0    0  0.69370283880E+02 -0.20756755625E+02  0.42574013127E+02  0.83997772491E+02  0.00000000000E+00 0.  1.
</event>
<event>
12    1  0.8196217E-002  0.2239527E+03  0.7818608E-02  0.1131096E+00
         21   -1    0    0  503  502  0.00000000000E+00  0.00000000000E+00  0.30935157405E+03  0.30935157405E+03  0.00000000000E+00 0. -1.
         21   -1    0    0  501  503 -0.00000000000E+00 -0.00000000000E+00 -0.21981151693E+03  0.21981151693E+03  0.00000000000E+00 0. -1.
          6    2    1    2  501    0  0.12187140454E+03  0.76172748775E+02 -0.91402677964E+02  0.24124803797E+03  0.17085443918E+03 0.  0.
         24    2    3    3    0    0  0.93853441790E+02  0.11432374924E+03 -0.43293949620E+02  0.17359417765E+03  0.79888574055E+02 0.  0.
         -6    2    1    2    0  502 -0.12187140454E+03 -0.76172748775E+02  0.18094273508E+03  0.28791505300E+03  0.17175528365E+03 0.  0.
        -24    2    5    5    0    0 -0.12849638518E+02 -0.63158541777E+02  0.13297785535E+03  0.16800744382E+03  0.79932950375E+02 0.  0.
          5    1    3    3  501    0  0.28017962754E+02 -0.38151000468E+02 -0.48108728344E+02  0.67653860322E+02  0.47000000000E+01 0. -1.
        -13    1    4    4    0    0  0.43627599318E+02  0.95574425202E+02 -0.55195596032E+02  0.11867768112E+03  0.00000000000E+00 0.  1.
         14    1    4    4    0    0  0.50225842472E+02  0.18749324040E+02  0.11901646412E+02  0.54916496532E+02  0.00000000000E+00 0. -1.
         -5    1    5    5    0  502 -0.10902176603E+03 -0.13014206998E+02  0.47964879728E+02  0.11990760918E+03  0.47000000000E+01 0.  1.
         13    1    6    6    0    0  0.38958506177E+00 -0.41163941459E+02  0.13606017170E+03  0.14215130029E+03  0.00000000000E+00 0. -1.
        -14    1    6    6    0    0 -0.13239223580E+02 -0.21994600318E+02 -0.30823163425E+01  0.25856143529E+02  0.00000000000E+00 0.  1.
</event>
<event>
12    1  0.8196217E-002  0.3086272E+03  0.7818608E-02  0.1081015E+00
         21   -1    0    0  503  502  0.00000000000E+00  0.00000000000E+00  0.54060243367E+03  0.54060243367E+03  0.00000000000E+00 0. -1.
         21   -1    0    0  501  503 -0.00000000000E+00 -0.00000000000E+00 -0.21912780091E+03  0.21912780091E+03  0.00000000000E+00 0.  1.
          6    2    1    2  501    0 -0.25548366830E+03 -0.15290686354E+02 -0.74769711923E+01  0.30871774771E+03  0.17246748331E+03 0.  0.
         24    2    3    3    0    0 -0.13444137126E+03 -0.67220752192E+01  0.55892636684E+02  0.17174163311E+03  0.90837949704E+02 0.  0.
         -6    2    1    2    0  502  0.25548366830E+03  0.15290686354E+02  0.32895160395E+03  0.45101248687E+03  0.17232932343E+03 0.  0.
        -24    2    5    5    0    0  0.12157696563E+03  0.71820148874E+02  0.18008876891E+03  0.24290477724E+03  0.81435089248E+02 0.  0.
          5    1    3    3  501    0 -0.12104229703E+03 -0.85686111346E+01 -0.63369607876E+02  0.13697611460E+03  0.47000000000E+01 0. -1.
        -13    1    4    4    0    0 -0.74986165582E+01 -0.25190680757E+02  0.31738178601E+02  0.41208150022E+02  0.00000000000E+00 0.  1.
         14    1    4    4    0    0 -0.12694275470E+03  0.18468605538E+02  0.24154458083E+02  0.13053348309E+03  0.00000000000E+00 0. -1.
         -5    1    5    5    0  502  0.13390670266E+03 -0.56529462520E+02  0.14886283504E+03  0.20810770963E+03  0.47000000000E+01 0.  1.
         13    1    6    6    0    0  0.19426208090E+02  0.13666657839E+02  0.94663780688E+02  0.97598086413E+02  0.00000000000E+00 0. -1.
        -14    1    6    6    0    0  0.10215075754E+03  0.58153491034E+02  0.85424988224E+02  0.14530669083E+03  0.00000000000E+00 0.  1.
</event>
<event>
12    1  0.8196217E-002  0.1852510E+03  0.7818608E-02  0.1164229E+00
         21   -1    0    0  503  502  0.00000000000E+00  0.00000000000E+00  0.46112480865E+03  0.46112480865E+03  0.00000000000E+00 0. -1.
         21   -1    0    0  501  503 -0.00000000000E+00 -0.00000000000E+00 -0.12056618380E+03  0.12056618380E+03  0.00000000000E+00 0. -1.
          6    2    1    2  501    0  0.69591663935E+02 -0.95375434183E+01 -0.12545598840E+02  0.18567532886E+03  0.17141753490E+03 0.  0.
         24    2    3    3    0    0  0.45051112346E+02 -0.63584385680E+02 -0.42620307909E+02  0.11896792330E+03  0.79147326563E+02 0.  0.
         -6    2    1    2    0  502 -0.69591663935E+02  0.95375434183E+01  0.35310422369E+03  0.39601566360E+03  0.16496014247E+03 0.  0.
        -24    2    5    5    0    0 -0.63297753377E+01  0.30323231475E+02  0.89308029564E+02  0.12390422795E+03  0.80104738535E+02 0.  0.
          5    1    3    3  501    0  0.24540551589E+02  0.54046842262E+02  0.30074709069E+02  0.66707405559E+02  0.47000000000E+01 0. -1.
        -13    1    4    4    0    0 -0.26139462284E+01 -0.23687616555E+01  0.19352077562E+02  0.19670959627E+02  0.00000000000E+00 0.  1.
         14    1    4    4    0    0  0.47665058574E+02 -0.61215624025E+02 -0.61972385471E+02  0.99296963673E+02  0.00000000000E+00 0. -1.
         -5    1    5    5    0  502 -0.63261888598E+02 -0.20785688056E+02  0.26379619413E+03  0.27211143565E+03  0.47000000000E+01 0.  1.
         11    1    6    6    0    0  0.31014270339E+02  0.22006493371E+02  0.73006402461E+02  0.82317103420E+02  0.00000000000E+00 0. -1.
        -12    1    6    6    0    0 -0.37344045677E+02  0.83167381035E+01  0.16301627102E+02  0.41587124527E+02  0.00000000000E+00 0.  1.
</event>
<event>
12    1  0.8196217E-002  0.2000943E+03  0.7818608E-02  0.1149826E+00
         21   -1    0    0  503  502  0.00000000000E+00  0.00000000000E+00  0.76202741849E+03  0.76202741849E+03  0.00000000000E+00 0. -1.
         21   -1    0    0  501  503 -0.00000000000E+00 -0.00000000000E+00 -0.82781859879E+02  0.82781859879E+02  0.00000000000E+00 0. -1.
          6    2    1    2  501    0 -0.71851979135E+02 -0.73540875454E+02  0.83021075313E+02  0.21590438315E+03  0.17073733174E+03 0.  0.
         24    2    3    3    0    0 -0.27596185922E+02 -0.41067057438E+01  0.10005858691E+03  0.13169009721E+03  0.80945329561E+02 0.  0.
         -6    2    1    2    0  502  0.71851979135E+02  0.73540875454E+02  0.59622448330E+03  0.62890489521E+03  0.17165886367E+03 0.  0.
        -24    2    5    5    0    0  0.99083927439E+02  0.84673248575E+02  0.36464521864E+03  0.39541709134E+03  0.80008480459E+02 0.  0.
          5    1    3    3  501    0 -0.44255793214E+02 -0.69434169710E+02 -0.17037511599E+02  0.84214285948E+02  0.47000000000E+01 0. -1.
        -13    1    4    4    0    0 -0.39194617105E+02  0.13732870188E+02  0.15232955285E+02  0.44236327383E+02  0.00000000000E+00 0.  1.
         14    1    4    4    0    0  0.11598431183E+02 -0.17839575932E+02  0.84825631627E+02  0.87453769823E+02  0.00000000000E+00 0. -1.
         -5    1    5    5    0  502 -0.27231948304E+02 -0.11132373121E+02  0.23157926466E+03  0.23348780388E+03  0.47000000000E+01 0.  1.
         11    1    6    6    0    0  0.56035128015E+02  0.93473534852E+02  0.25768588640E+03  0.27978429788E+03  0.00000000000E+00 0. -1.
        -12    1    6    6    0    0  0.43048799424E+02 -0.88002862773E+01  0.10695933224E+03  0.11563279346E+03  0.00000000000E+00 0.  1.
</event>
<event>
12    1  0.8196217E-002  0.1821435E+03  0.7818608E-02  0.1166226E+00
         21   -1    0    0  503  502  0.00000000000E+00  0.00000000000E+00  0.13656627185E+03  0.13656627185E+03  0.00000000000E+00 0. -1.
         21   -1    0    0  501  503 -0.00000000000E+00 -0.00000000000E+00 -0.24316386113E+03  0.24316386113E+03  0.00000000000E+00 0. -1.
          6    2    1    2  501    0  0.23461444937E+02 -0.51218000022E+02 -0.32839098582E+02  0.18508012557E+03  0.17321236550E+03 0.  0.
         24    2    3    3    0    0  0.69766161677E+02 -0.68016078970E+02 -0.21904266093E+01  0.12687588739E+03  0.81235389569E+02 0.  0.
         -6    2    1    2    0  502 -0.23461444937E+02  0.51218000022E+02 -0.73758490701E+02  0.19465000741E+03  0.17109818090E+03 0.  0.
        -24    2    5    5    0    0  0.30157074089E+02 -0.22765084564E+02 -0.34321783570E+02  0.95021767151E+02  0.80146448532E+02 0.  0.
          5    1    3    3  501    0 -0.46304716739E+02  0.16798078948E+02 -0.30648671973E+02  0.58204238182E+02  0.47000000000E+01 0. -1.
        -13    1    4    4    0    0  0.52816979895E+02 -0.14999667468E+01 -0.19096050520E+02  0.56183114999E+02  0.00000000000E+00 0.  1.
         14    1    4    4    0    0  0.16949181781E+02 -0.66516112223E+02  0.16905623911E+02  0.70692772390E+02  0.00000000000E+00 0. -1.
         -5    1    5    5    0  502 -0.53618519026E+02  0.73983084586E+02 -0.39436707131E+02  0.99628240257E+02  0.47000000000E+01 0.  1.
         13    1    6    6    0    0  0.72240629427E+01  0.29768976760E+02 -0.17517119091E+02  0.35287795680E+02  0.00000000000E+00 0. -1.
        -14    1    6    6    0    0  0.22933011146E+02 -0.52534061324E+02 -0.16804664479E+02  0.59733971471E+02  0.00000000000E+00 0.  1.
</event>
<event>
12    1  0.8196217E-002  0.1853910E+03  0.7818608E-02  0.1162790E+00
         21   -1    0    0  501  502  0.00000000000E+00  0.00000000000E+00  0.12141586611E+04  0.12141586611E+04  0.00000000000E+00 0. -1.
         21   -1    0    0  502  503 -0.00000000000E+00 -0.00000000000E+00 -0.18308452309E+03  0.18308452309E+03  0.00000000000E+00 0. -1.
         -6    2    1    2    0  503  0.62200014176E+02  0.28061949788E+02 -0.12704759373E+03  0.22437671042E+03  0.17189386934E+03 0.  0.
        -24    2    3    3    0    0  0.46588706488E+02  0.81765219484E+02 -0.61662223914E+02  0.13820774449E+03  0.80268873722E+02 0.  0.
          6    2    1    2  501    0 -0.62200014176E+02 -0.28061949788E+02  0.11581217317E+04  0.11728664738E+04  0.17237605687E+03 0.  0.
         24    2    5    5    0    0 -0.13500607033E+02 -0.86168871948E+02  0.67556868280E+03  0.68437125199E+03  0.66057736059E+02 0.  0.
          5    1    5    5  501    0 -0.48699407142E+02  0.58106922160E+02  0.48255304892E+03  0.48849522176E+03  0.47000000000E+01 0. -1.
        -13    1    6    6    0    0  0.74023606344E+01  0.85258921798E+01  0.45303093320E+02  0.46688928504E+02  0.00000000000E+00 0.  1.
         14    1    6    6    0    0 -0.20902967668E+02 -0.94694764128E+02  0.63026558948E+03  0.63768232349E+03  0.00000000000E+00 0. -1.
         -5    1    3    3    0  503  0.15611307688E+02 -0.53703269696E+02 -0.65385369812E+02  0.86168965929E+02  0.47000000000E+01 0.  1.
         13    1    4    4    0    0  0.77179093643E+01  0.50598805959E+02 -0.70991657625E+02  0.87519259261E+02  0.00000000000E+00 0. -1.
        -14    1    4    4    0    0  0.38870797124E+02  0.31166413525E+02  0.93294337109E+01  0.50688485225E+02  0.00000000000E+00 0.  1.
</event>
<event>
12    1  0.8196217E-002  0.2232643E+03  0.7818608E-02  0.1131564E+00
         21   -1    0    0  501  502  0.00000000000E+00  0.00000000000E+00  0.23111223244E+04  0.23111223244E+04  0.00000000000E+00 0. -1.
         21   -1    0    0  502  503 -0.00000000000E+00 -0.00000000000E+00 -0.23811028310E+02  0.23811028310E+02  0.00000000000E+00 0. -1.
         -6    2    1    2    0  503  0.19827173749E+02  0.14092532151E+03  0.78038843948E+03  0.81156095624E+03  0.17138263087E+03 0.  0.
        -24    2    3    3    0    0 -0.41968530392E+02  0.10237880674E+03  0.33830801975E+03  0.36349652967E+03  0.73719965015E+02 0.  0.
          6    2    1    2  501    0 -0.19827173749E+02 -0.14092532151E+03  0.15069228566E+04  0.15233723965E+04  0.17202877516E+03 0.  0.
         24    2    5    5    0    0 -0.32647462144E+02 -0.14907411360E+03  0.90847768211E+03  0.92471600129E+03  0.80492459351E+02 0.  0.
          5    1    5    5  501    0  0.12820288395E+02  0.81487920970E+01  0.59844517454E+03  0.59865639522E+03  0.47000000000E+01 0. -1.
        -11    1    6    6    0    0 -0.28525396716E+01 -0.17315486717E+02  0.22677002486E+02  0.28674195796E+02  0.00000000000E+00 0.  1.
         12    1    6    6    0    0 -0.29794922472E+02 -0.13175862689E+03  0.88580067962E+03  0.89604180549E+03  0.00000000000E+00 0. -1.
         -5    1    3    3    0  503  0.61795704141E+02  0.38546514763E+02  0.44208041973E+03  0.44806442657E+03  0.47000000000E+01 0.  1.
         13    1    4    4    0    0 -0.26499931670E+02  0.11170858314E+03  0.28774865434E+03  0.30980694311E+03  0.00000000000E+00 0. -1.
        -14    1    4    4    0    0 -0.15468598722E+02 -0.93297763992E+01  0.50559365407E+02  0.53689586555E+02  0.00000000000E+00 0.  1.
</event>
<event>
12    1  0.8196217E-002  0.2830502E+03  0.7818608E-02  0.1094121E+00
         21   -1    0    0  503  502  0.00000000000E+00  0.00000000000E+00  0.14116939988E+04  0.14116939988E+04  0.00000000000E+00 0. -1.
         21   -1    0    0  501  503 -0.00000000000E+00 -0.00000000000E+00 -0.78888319498E+02  0.78888319498E+02  0.00000000000E+00 0.  1.
          6    2    1    2  501    0  0.14285536050E+03  0.17344504138E+03  0.27101132506E+03  0.39187311061E+03  0.17212367679E+03 0.  0.
         24    2    3    3    0    0  0.16967438826E+03  0.12212483367E+03  0.20384473610E+03  0.30306734143E+03  0.81198916091E+02 0.  0.
         -6    2    1    2    0  502 -0.14285536050E+03 -0.17344504138E+03  0.10617943542E+04  0.10987092076E+04  0.17106675872E+03 0.  0.
        -24    2    5    5    0    0 -0.81172054392E+02 -0.16402913078E+03  0.95508125485E+03  0.97500284079E+03  0.70397997412E+02 0.  0.
          5    1    3    3  501    0 -0.26819027759E+02  0.51320207711E+02  0.67166588953E+02  0.88805769188E+02  0.47000000000E+01 0. -1.
        -11    1    4    4    0    0  0.25876369069E+02  0.21082335226E+02 -0.70641168160E+00  0.33384882091E+02  0.00000000000E+00 0.  1.
         12    1    4    4    0    0  0.14379801919E+03  0.10104249844E+03  0.20455114778E+03  0.26968245933E+03  0.00000000000E+00 0. -1.
         -5    1    5    5    0  502 -0.61683306105E+02 -0.94159106006E+01  0.10671309936E+03  0.12370636685E+03  0.47000000000E+01 0.  1.
         13    1    6    6    0    0 -0.30732842150E+02 -0.54172842914E+02  0.51032602736E+03  0.51411269066E+03  0.00000000000E+00 0. -1.
        -14    1    6    6    0    0 -0.50439212242E+02 -0.10985628786E+03  0.44475522749E+03  0.46089015014E+03  0.00000000000E+00 0.  1.
</event>
<event>
12    1  0.8196217E-002  0.1811478E+03  0.7818608E-02  0.1166793E+00
         21   -1    0    0  503  502  0.00000000000E+00  0.00000000000E+00  0.47768507904E+02  0.47768507904E+02  0.00000000000E+00 0.  1.
         21   -1    0    0  501  503 -0.00000000000E+00 -0.00000000000E+00 -0.10997295164E+04  0.10997295164E+04  0.00000000000E+00 0.  1.
          6    2    1    2  501    0  0.11090822100E+02  0.55286760713E+02 -0.87850302756E+03  0.89698499750E+03  0.17214785524E+03 0.  0.
         24    2    3    3    0    0  0.70785693076E+02  0.22446722265E+02 -0.62914787677E+03  0.63844674700E+03  0.79200556977E+02 0.  0.
         -6    2    1    2    0  502 -0.11090822100E+02 -0.55286760713E+02 -0.17345798096E+03  0.25051302683E+03  0.17172499296E+03 0.  0.
        -24    2    5    5    0    0 -0.69434240232E+02 -0.58369902672E+02 -0.98986390595E+02  0.15574189211E+03  0.78924471375E+02 0.  0.
          5    1    3    3  501    0 -0.59694870976E+02  0.32840038447E+02 -0.24935515078E+03  0.25853825049E+03  0.47000000000E+01 0. -1.
        -11    1    4    4    0    0  0.63614413191E+01 -0.61214321911E+00 -0.38054773388E+03  0.38060139308E+03  0.00000000000E+00 0.  1.
         12    1    4    4    0    0  0.64424251757E+02  0.23058865484E+02 -0.24860014289E+03  0.25784535392E+03  0.00000000000E+00 0. -1.
         -5    1    5    5    0  502  0.58343418132E+02  0.30831419593E+01 -0.74471590368E+02  0.94771134718E+02  0.47000000000E+01 0.  1.
         11    1    6    6    0    0 -0.30373087687E+02 -0.60566148712E+02 -0.25320967933E+02  0.72332110729E+02  0.00000000000E+00 0. -1.
        -12    1    6    6    0    0 -0.39061152545E+02  0.21962460402E+01 -0.73665422662E+02  0.83409781386E+02  0.00000000000E+00 0.  1.
</event>
<event>
12    1  0.8196217E-002  0.1915327E+03  0.7818608E-02  0.1157822E+00
         21   -1    0    0  501  502  0.00000000000E+00  0.00000000000E+00  0.25700345470E+02  0.25700345470E+02  0.00000000000E+00 0. -1.
         21   -1    0    0  502  503 -0.00000000000E+00 -0.00000000000E+00 -0.14159623623E+04  0.14159623623E+04  0.00000000000E+00 0. -1.
         -6    2    1    2    0  503 -0.68371206816E+02  0.30675254145E+02 -0.75773803658E+03  0.78077592032E+03  0.17270932960E+03 0.  0.
        -24    2    3    3    0    0 -0.39445584165E+01  0.53772150438E+02 -0.61101281986E+03  0.61880481529E+03  0.81705138705E+02 0.  0.
          6    2    1    2  501    0  0.68371206816E+02 -0.30675254145E+02 -0.63252398023E+03  0.66088678743E+03  0.17626448053E+03 0.  0.
         24    2    5    5    0    0 -0.16157079677E+02  0.30321002956E+02 -0.23711684861E+03  0.25194368095E+03  0.77915364560E+02 0.  0.
          5    1    5    5  501    0  0.84528286493E+02 -0.60996257101E+02 -0.39540713163E+03  0.40894310648E+03  0.47000000000E+01 0. -1.
        -11    1    6    6    0    0 -0.23785319523E+02  0.18053502008E+02 -0.23552503024E+03  0.23741042570E+03  0.00000000000E+00 0.  1.
         12    1    6    6    0    0  0.76282398464E+01  0.12267500949E+02 -0.15918183690E+01  0.14533255258E+02  0.00000000000E+00 0. -1.
         -5    1    3    3    0  503 -0.64426648399E+02 -0.23096896293E+02 -0.14672521672E+03  0.16197110503E+03  0.47000000000E+01 0.  1.
         13    1    4    4    0    0 -0.22584702556E+02 -0.11837179010E+02 -0.97373379819E+02  0.10065665747E+03  0.00000000000E+00 0. -1.
        -14    1    4    4    0    0  0.18640144139E+02  0.65609329448E+02 -0.51363944004E+03  0.51814815782E+03  0.00000000000E+00 0.  1.
</event>
<event>
12    1  0.8196217E-002  0.2866997E+03  0.7818608E-02  0.1092121E+00
         21   -1    0    0  501  502  0.00000000000E+00  0.00000000000E+00  0.41606858197E+03  0.41606858197E+03  0.00000000000E+00 0.  1.
         21   -1    0    0  502  503 -0.00000000000E+00 -0.00000000000E+00 -0.22335037201E+03  0.22335037201E+03  0.00000000000E+00 0.  1.
         -6    2    1    2    0  503  0.20846185798E+03 -0.95571104829E+02 -0.12641354855E+02  0.28697822573E+03  0.17206544069E+03 0.  0.
        -24    2    3    3    0    0  0.50863854638E+02 -0.86340116381E+02 -0.12508525018E+02  0.12904010668E+03  0.80331429266E+02 0.  0.
          6    2    1    2  501    0 -0.20846185798E+03  0.95571104829E+02  0.20535956482E+03  0.35244072825E+03  0.17161507438E+03 0.  0.
         24    2    5    5    0    0 -0.21246749991E+03  0.56188186076E+02  0.20715100238E+03  0.31253635875E+03  0.80423174402E+02 0.  0.
          5    1    5    5  501    0  0.40056419290E+01  0.39382918753E+02 -0.17914375545E+01  0.39904369501E+02  0.47000000000E+01 0. -1.
        -11    1    6    6    0    0 -0.13678651568E+03  0.58263709034E+02  0.17670960239E+03  0.23093612589E+03  0.00000000000E+00 0.  1.
         12    1    6    6    0    0 -0.75680984232E+02 -0.20755229577E+01  0.30441399982E+02  0.81600232860E+02  0.00000000000E+00 0. -1.
         -5    1    3    3    0  503  0.15759800335E+03 -0.92309884483E+01 -0.13282983699E+00  0.15793811905E+03  0.47000000000E+01 0.  1.
         13    1    4    4    0    0  0.12091717993E+02 -0.14549615574E+02  0.31193434388E+02  0.36481931230E+02  0.00000000000E+00 0. -1.
        -14    1    4    4    0    0  0.38772136645E+02 -0.71790500807E+02 -0.43701959407E+02  0.92558175448E+02  0.00000000000E+00 0.  1.
</event>
<event>
12    1  0.8196217E-002  0.1752537E+03  0.7818608E-02  0.1172720E+00
         21   -1    0    0  501  502  0.00000000000E+00  0.00000000000E+00  0.18635351910E+02  0.18635351910E+02  0.00000000000E+00 0.  1.
         21   -1    0    0  502  503 -0.00000000000E+00 -0.00000000000E+00 -0.24818139921E+04  0.24818139921E+04  0.00000000000E+00 0.  1.
         -6    2    1    2    0  503 -0.21432782088E+02 -0.19062137904E+02 -0.19578720973E+04  0.19656142580E+04  0.17191140957E+03 0.  0.
        -24    2    3    3    0    0 -0.18909227562E+02 -0.30594653761E+02 -0.48848006283E+03  0.49616728444E+03  0.79218751786E+02 0.  0.
          6    2    1    2  501    0  0.21432782088E+02  0.19062137904E+02 -0.50530654297E+03  0.53483508606E+03  0.17289053665E+03 0.  0.
         24    2    5    5    0    0  0.74700143809E+02  0.37644528575E+02 -0.40710927209E+03  0.42148822427E+03  0.70122334288E+02 0.  0.
          5    1    5    5  501    0 -0.53267361721E+02 -0.18582390671E+02 -0.98197270881E+02  0.11334686178E+03  0.47000000000E+01 0. -1.
        -13    1    6    6    0    0  0.44960766857E+02 -0.12171627150E+02 -0.12319503778E+03  0.13170663005E+03  0.00000000000E+00 0.  1.
         14    1    6    6    0    0  0.29739376951E+02  0.49816155725E+02 -0.28391423430E+03  0.28978159423E+03  0.00000000000E+00 0. -1.
         -5    1    3    3    0  503 -0.25235545261E+01  0.11532515858E+02 -0.14693920344E+04  0.14694469736E+04  0.47000000000E+01 0.  1.
         11    1    4    4    0    0 -0.36063910285E+02 -0.28035585815E+02 -0.14016350474E+03  0.14741915669E+03  0.00000000000E+00 0. -1.
        -12    1    4    4    0    0  0.17154682723E+02 -0.25590679459E+01 -0.34831655809E+03  0.34874812775E+03  0.00000000000E+00 0.  1.
</event>
<event>
12    1  0.8196217E-002  0.2046908E+03  0.7818608E-02  0.1149170E+00
         21   -1    0    0  503  502  0.00000000000E+00  0.00000000000E+00  0.47981797553E+03  0.47981797553E+03  0.00000000000E+00 0.  1.
         21   -1    0    0  501  503 -0.00000000000E+00 -0.00000000000E+00 -0.18279070583E+03  0.18279070583E+03  0.00000000000E+00 0.  1.
          6    2    1    2  501    0 -0.90780043690E+02  0.65008633655E+02 -0.96280573274E+02  0.22620405710E+03  0.17155520359E+03 0.  0.
         24    2    3    3    0    0 -0.23650813989E+02 -0.28859089578E+02 -0.55070816025E+02  0.10357527974E+03  0.79390400816E+02 0.  0.
         -6    2    1    2    0  502  0.90780043690E+02 -0.65008633655E+02  0.39330784297E+03  0.43640462426E+03  0.15261322994E+03 0.  0.
        -24    2    5    5    0    0 -0.19955835872E+00 -0.49682743295E+02  0.15654760536E+03  0.18225964395E+03  0.79012722163E+02 0.  0.
          5    1    3    3  501    0 -0.67129229701E+02  0.93867723233E+02 -0.41209757249E+02  0.12262877736E+03  0.47000000000E+01 0. -1.
        -11    1    4    4    0    0  0.54529999962E+01  0.24929046551E+02 -0.91967602334E+01  0.27125135386E+02  0.00000000000E+00 0.  1.
         12    1    4    4    0    0 -0.29103813986E+02 -0.53788136130E+02 -0.45874055792E+02  0.76450144353E+02  0.00000000000E+00 0. -1.
         -5    1    5    5    0  502  0.90979602049E+02 -0.15325890360E+02  0.23676023762E+03  0.25414498032E+03  0.47000000000E+01 0.  1.
         13    1    6    6    0    0  0.18266100906E+02  0.16475809324E+02  0.38718038310E+02  0.45871442378E+02  0.00000000000E+00 0. -1.
        -14    1    6    6    0    0 -0.18465659265E+02 -0.66158552619E+02  0.11782956705E+03  0.13638820157E+03  0.00000000000E+00 0.  1.
</event>
<event>
12    1  0.8196217E-002  0.2036515E+03  0.7818608E-02  0.1146836E+00
         21   -1    0    0  503  502  0.00000000000E+00  0.00000000000E+00  0.93507084129E+03  0.93507084129E+03  0.00000000000E+00 0. -1.
         21   -1    0    0  501  503 -0.00000000000E+00 -0.00000000000E+00 -0.65570750269E+02  0.65570750269E+02  0.00000000000E+00 0. -1.
          6    2    1    2  501    0  0.10756115635E+03 -0.10994165383E+02  0.14865932720E+03  0.25158528065E+03  0.17177102157E+03 0.  0.
         24    2    3    3    0    0  0.14052083123E+03  0.64411575002E+00  0.96489852300E+02  0.18861279565E+03  0.80733984120E+02 0.  0.
         -6    2    1    2    0  502 -0.10756115635E+03  0.10994165383E+02  0.72084076382E+03  0.74905631090E+03  0.17257947760E+03 0.  0.
        -24    2    5    5    0    0 -0.30757071601E+02 -0.11962520887E+02  0.58759202201E+03  0.59348255324E+03  0.76603246087E+02 0.  0.
          5    1    3    3  501    0 -0.32959674879E+02 -0.11638281133E+02  0.52169474900E+02  0.62972485001E+02  0.47000000000E+01 0. -1.
        -13    1    4    4    0    0  0.27672310925E+02  0.42068790097E+00  0.66226391447E+02  0.71776519102E+02  0.00000000000E+00 0.  1.
         14    1    4    4    0    0  0.11284852031E+03  0.22342784905E+00  0.30263460853E+02  0.11683627655E+03  0.00000000000E+00 0. -1.
         -5    1    5    5    0  502 -0.76804084753E+02  0.22956686270E+02  0.13324874181E+03  0.15557375766E+03  0.47000000000E+01 0.  1.
         13    1    6    6    0    0 -0.53723790126E+02 -0.10097796695E+02  0.29777649454E+03  0.30275245965E+03  0.00000000000E+00 0. -1.
        -14    1    6    6    0    0  0.22966718525E+02 -0.18647241913E+01  0.28981552746E+03  0.29073009358E+03  0.00000000000E+00 0.  1.
</event>
<event>
12    1  0.8196217E-002  0.2227305E+03  0.7818608E-02  0.1131918E+00
         21   -1    0    0  503  502  0.00000000000E+00  0.00000000000E+00  0.19539876769E+04  0.19539876769E+04  0.00000000000E+00 0.  1.
         21   -1    0    0  501  503 -0.00000000000E+00 -0.00000000000E+00 -0.86037604909E+02  0.86037604909E+02  0.00000000000E+00 0.  1.
          6    2    1    2  501    0 -0.14111971476E+03  0.10939669417E+02  0.77155916715E+02  0.23543320141E+03  0.17158469216E+03 0.  0.
         24    2    3    3    0    0 -0.12132143041E+03 -0.35507836787E+01  0.11855665844E+03  0.18707974539E+03  0.78814036393E+02 0.  0.
         -6    2    1    2    0  502  0.14111971476E+03 -0.10939669417E+02  0.17907941553E+04  0.18045920804E+04  0.17197214833E+03 0.  0.
        -24    2    5    5    0    0  0.17287449162E+03 -0.34579022013E+01  0.15312558019E+04  0.15429690891E+04  0.78177568215E+02 0.  0.
          5    1    3    3  501    0 -0.19798284342E+02  0.14490453096E+02 -0.41400741725E+02  0.48353456021E+02  0.47000000000E+01 0. -1.
        -11    1    4    4    0    0 -0.96353947688E+02  0.18561183283E+02  0.48429577899E+02  0.10942588714E+03  0.00000000000E+00 0.  1.
         12    1    4    4    0    0 -0.24967482725E+02 -0.22111966961E+02  0.70127080542E+02  0.77653858255E+02  0.00000000000E+00 0. -1.
         -5    1    5    5    0  502 -0.31754776862E+02 -0.74817672157E+01  0.25953835341E+03  0.26162299132E+03  0.47000000000E+01 0.  1.
         11    1    6    6    0    0  0.52404314856E+02  0.34724624212E+02  0.56385311315E+03  0.56734675901E+03  0.00000000000E+00 0. -1.
        -12    1    6    6    0    0  0.12047017676E+03 -0.38182526414E+02  0.96740268872E+03  0.97562233008E+03  0.00000000000E+00 0.  1.
</event>
<event>
12    1  0.8196217E-002  0.2900566E+03  0.7818608E-02  0.1090505E+00
         21   -1    0    0  501  502  0.00000000000E+00  0.00000000000E+00  0.72997242487E+03  0.72997242487E+03  0.00000000000E+00 0. -1.
         21   -1    0    0  502  503 -0.00000000000E+00 -0.00000000000E+00 -0.19363188688E+03  0.19363188688E+03  0.00000000000E+00 0.  1.
         -6    2    1    2    0  503 -0.45883297118E+02 -0.22935454724E+03 -0.26300770221E+02  0.29124656301E+03  0.17153438331E+03 0.  0.
        -24    2    3    3    0    0 -0.20032841321E+01 -0.19633090390E+03  0.27127598804E+02  0.21448265759E+03  0.81957713575E+02 0.  0.
          6    2    1    2  501    0  0.45883297118E+02  0.22935454724E+03  0.56264130822E+03  0.63235774874E+03  0.16912213157E+03 0.  0.
         24    2    5    5    0    0  0.10254241139E+02  0.10522408321E+03  0.41563013957E+03  0.43662278651E+03  0.81937705846E+02 0.  0.
          5    1    5    5  501    0  0.35629055979E+02  0.12413046403E+03  0.14701116865E+03  0.19573496223E+03  0.47000000000E+01 0. -1.
        -13    1    6    6    0    0 -0.31429832389E+02  0.54021588507E+02  0.14210391312E+03  0.15524074372E+03  0.00000000000E+00 0.  1.
         14    1    6    6    0    0  0.41684073528E+02  0.51202494706E+02  0.27352622645E+03  0.28138204279E+03  0.00000000000E+00 0. -1.
         -5    1    3    3    0  503 -0.43880012986E+02 -0.33023643337E+02 -0.53428369025E+02  0.76763905421E+02  0.47000000000E+01 0.  1.
         13    1    4    4    0    0  0.16440013125E+02 -0.97958370548E+02 -0.23864581447E+02  0.10215495406E+03  0.00000000000E+00 0. -1.
        -14    1    4    4    0    0 -0.18443297257E+02 -0.98372533354E+02  0.50992180251E+02  0.11232770352E+03  0.00000000000E+00 0.  1.
</event>
<event>
12    1  0.8196217E-002  0.1783048E+03  0.7818608E-02  0.1169467E+00
         21   -1    0    0  501  502  0.00000000000E+00  0.00000000000E+00  0.24407530872E+03  0.24407530872E+03  0.00000000000E+00 0. -1.
         21   -1    0    0  502  503 -0.00000000000E+00 -0.00000000000E+00 -0.14094069013E+03  0.14094069013E+03  0.00000000000E+00 0. -1.
         -6    2    1    2    0  503 -0.43085194236E+02 -0.17464809334E+02 -0.15213468036E+01  0.17831125554E+03  0.17213725869E+03 0.  0.
        -24    2    3    3    0    0 -0.17565873095E+02 -0.75749496931E+02 -0.17125908952E+02  0.11263071870E+03  0.79660754802E+02 0.  0.
          6    2    1    2  501    0  0.43085194236E+02  0.17464809334E+02  0.10465596539E+03  0.20670474330E+03  0.17208319582E+03 0.  0.
         24    2    5    5    0    0  0.35715550403E+02 -0.54209083725E+02  0.82437213863E+02  0.13115858843E+03  0.78692158376E+02 0.  0.
          5    1    5    5  501    0  0.73696438325E+01  0.71673893060E+02  0.22218751529E+02  0.75546154873E+02  0.47000000000E+01 0. -1.
        -11    1    6    6    0    0  0.40872687706E+01 -0.57210065128E+02  0.19365210424E+02  0.60536837485E+02  0.00000000000E+00 0.  1.
         12    1    6    6    0    0  0.31628281633E+02  0.30009814022E+01  0.63072003440E+02  0.70621750943E+02  0.00000000000E+00 0. -1.
         -5    1    3    3    0  503 -0.25519321141E+02  0.58284687596E+02  0.15604562149E+02  0.65680536840E+02  0.47000000000E+01 0.  1.
         13    1    4    4    0    0 -0.40429472821E+01  0.10348268245E+02 -0.22727449745E+02  0.25297609577E+02  0.00000000000E+00 0. -1.
        -14    1    4    4    0    0 -0.13522925812E+02 -0.86097765175E+02  0.56015407924E+01  0.87333109128E+02  0.00000000000E+00 0.  1.
</event>
<event>
12    1  0.8196217E-002  0.2014029E+03  0.7818608E-02  0.1149099E+00
         21   -1    0    0  501  502  0.00000000000E+00  0.00000000000E+00  0.43077583792E+03  0.43077583792E+03  0.00000000000E+00 0. -1.
         21   -1    0    0  502  503 -0.00000000000E+00 -0.00000000000E+00 -0.11671435098E+03  0.11671435098E+03  0.00000000000E+00 0. -1.
         -6    2    1    2    0  503  0.17115427492E+02 -0.10412000115E+03  0.34363540474E+02  0.20431344290E+03  0.17154946090E+03 0.  0.
        -24    2    3    3    0    0 -0.50928589988E+02 -0.37760416277E+02 -0.24687265136E+01  0.10227282005E+03  0.80212622417E+02 0.  0.
          6    2    1    2  501    0 -0.17115427492E+02  0.10412000115E+03  0.27969794646E+03  0.34317674600E+03  0.16853909115E+03 0.  0.
         24    2    5    5    0    0 -0.69051856446E+02  0.89370127068E+02  0.23570863717E+03  0.27337631069E+03  0.80130313367E+02 0.  0.
          5    1    5    5  501    0  0.51936428955E+02  0.14749874079E+02  0.43989309292E+02  0.69800435313E+02  0.47000000000E+01 0. -1.
        -13    1    6    6    0    0 -0.19442917752E+02  0.67490286164E+02  0.18963860343E+03  0.20222701522E+03  0.00000000000E+00 0.  1.
         14    1    6    6    0    0 -0.49608938695E+02  0.21879840904E+02  0.46070033744E+02  0.71149295468E+02  0.00000000000E+00 0. -1.
         -5    1    3    3    0  503  0.68044017480E+02 -0.66359584870E+02  0.36832266987E+02  0.10204062284E+03  0.47000000000E+01 0.  1.
         13    1    4    4    0    0 -0.17009055435E+02 -0.43756800680E+02  0.29361747141E+02  0.55372175031E+02  0.00000000000E+00 0. -1.
        -14    1    4    4    0    0 -0.33919534554E+02  0.59963844036E+01 -0.31830473654E+02  0.46900645020E+02  0.00000000000E+00 0.  1.
</event>
<event>
12    1  0.8196217E-002  0.2295814E+03  0.7818608E-02  0.1127076E+00
         21   -1    0    0  501  502  0.00000000000E+00  0.00000000000E+00  0.96729950351E+03  0.96729950351E+03  0.00000000000E+00 0. -1.
         21   -1    0    0  502  503 -0.00000000000E+00 -0.00000000000E+00 -0.88547356951E+02  0.88547356951E+02  0.00000000000E+00 0.  1.
         -6    2    1    2    0  503 -0.15149736074E+03  0.12471346132E+02  0.76722499737E+03  0.80060987435E+03  0.17098242461E+03 0.  0.
        -24    2    3    3    0    0 -0.13908818693E+03  0.12252596970E+02  0.77005665974E+03  0.78703991644E+03  0.83360188184E+02 0.  0.
          6    2    1    2  501    0  0.15149736074E+03 -0.12471346132E+02  0.11152714919E+03  0.25523698611E+03  0.17204833416E+03 0.  0.
         24    2    5    5    0    0  0.75128026161E+02  0.68369258768E+01  0.13480568664E+03  0.17296265878E+03  0.77798099658E+02 0.  0.
          5    1    5    5  501    0  0.76369334580E+02 -0.19308272008E+02 -0.23278537455E+02  0.82274327334E+02  0.47000000000E+01 0. -1.
        -13    1    6    6    0    0  0.17995801715E+02 -0.50734443464E+01 -0.67262894512E+01  0.19870372082E+02  0.00000000000E+00 0.  1.
         14    1    6    6    0    0  0.57132224446E+02  0.11910370223E+02  0.14153197609E+03  0.15309228670E+03  0.00000000000E+00 0. -1.
         -5    1    3    3    0  503 -0.12409173816E+02  0.21874916117E+00 -0.28316623707E+01  0.13569957913E+02  0.47000000000E+01 0.  1.
         13    1    4    4    0    0 -0.10327641605E+03  0.38634312745E+02  0.64386142961E+03  0.65323515580E+03  0.00000000000E+00 0. -1.
        -14    1    4    4    0    0 -0.35811770878E+02 -0.26381715775E+02  0.12619523013E+03  0.13380476064E+03  0.00000000000E+00 0.  1.
</event>
<event>
12    1  0.8196217E-002  0.1927303E+03  0.7818608E-02  0.1156496E+00
         21   -1    0    0  501  502  0.00000000000E+00  0.00000000000E+00  0.45741527646E+03  0.45741527646E+03  0.00000000000E+00 0.  1.
         21   -1    0    0  502  503 -0.00000000000E+00 -0.00000000000E+00 -0.34798543141E+03  0.34798543141E+03  0.00000000000E+00 0.  1.
         -6    2    1    2    0  503 -0.29802504358E+02 -0.71917133238E+02 -0.29854177255E+03  0.35419585526E+03  0.17397485626E+03 0.  0.
        -24    2    3    3    0    0 -0.79765532677E+02 -0.86390881084E+01 -0.20601176682E+03  0.23137766787E+03  0.68246634158E+02 0.  0.
          6    2    1    2  501    0  0.29802504358E+02  0.71917133238E+02  0.40797161760E+03  0.45120485260E+03  0.17630857871E+03 0.  0.
         24    2    5    5    0    0  0.81482537157E+02  0.32918422527E+02  0.19006480814E+03  0.22383468561E+03  0.79084187973E+02 0.  0.
          5    1    5    5  501    0 -0.51680032800E+02  0.38998710710E+02  0.21790680946E+03  0.22737016699E+03  0.47000000000E+01 0. -1.
        -11    1    6    6    0    0  0.50218126693E+01  0.36703180660E+02  0.93735960143E+02  0.10079073517E+03  0.00000000000E+00 0.  1.
         12    1    6    6    0    0  0.76460724488E+02 -0.37847581328E+01  0.96328847995E+02  0.12304395044E+03  0.00000000000E+00 0. -1.
         -5    1    3    3    0  503  0.49963028319E+02 -0.63278045129E+02 -0.92530005730E+02  0.12281818739E+03  0.47000000000E+01 0.  1.
         11    1    4    4    0    0 -0.43003882058E+02 -0.36751163269E+01 -0.32723248652E+02  0.54163191878E+02  0.00000000000E+00 0. -1.
        -12    1    4    4    0    0 -0.36761650619E+02 -0.49639717816E+01 -0.17328851817E+03  0.17721447599E+03  0.00000000000E+00 0.  1.
</event>
<event>
12    1  0.8196217E-002  0.1914200E+03  0.7818608E-02  0.1157458E+00
         21   -1    0    0  501  502  0.00000000000E+00  0.00000000000E+00  0.26446509359E+03  0.26446509359E+03  0.00000000000E+00 0. -1.
         21   -1    0    0  502  503 -0.00000000000E+00 -0.00000000000E+00 -0.16346462505E+03  0.16346462505E+03  0.00000000000E+00 0. -1.
         -6    2    1    2    0  503 -0.70156498958E+02  0.43103750523E+02 -0.34350199141E+02  0.19447767619E+03  0.17280556328E+03 0.  0.
        -24    2    3    3    0    0  0.28781451787E+02  0.36217813164E+02 -0.15470500859E+02  0.93410039243E+02  0.79661766721E+02 0.  0.
          6    2    1    2  501    0  0.70156498958E+02 -0.43103750523E+02  0.13535066769E+03  0.23345204245E+03  0.17146482212E+03 0.  0.
         24    2    5    5    0    0  0.10436859694E+03 -0.62413186330E+02  0.12803184004E+03  0.19321552673E+03  0.78433907522E+02 0.  0.
          5    1    5    5  501    0 -0.34212097977E+02  0.19309435807E+02  0.73188276445E+01  0.40236515720E+02  0.47000000000E+01 0. -1.
        -13    1    6    6    0    0 -0.66850431142E+01 -0.15843181730E+02 -0.34283822173E+00  0.17199236809E+02  0.00000000000E+00 0.  1.
         14    1    6    6    0    0  0.11105364005E+03 -0.46570004600E+02  0.12837467826E+03  0.17601628992E+03  0.00000000000E+00 0. -1.
         -5    1    3    3    0  503 -0.98937950745E+02  0.68859373587E+01 -0.18879698282E+02  0.10106763695E+03  0.47000000000E+01 0.  1.
         13    1    4    4    0    0 -0.24383453540E+02  0.44047465131E+01 -0.19192957544E+02  0.31342051906E+02  0.00000000000E+00 0. -1.
        -14    1    4    4    0    0  0.53164905328E+02  0.31813066651E+02  0.37224566846E+01  0.62067987337E+02  0.00000000000E+00 0.  1.
</event>
<event>
12    1  0.8196217E-002  0.2053962E+03  0.7818608E-02  0.1145370E+00
         21   -1    0    0  503  502  0.00000000000E+00  0.00000000000E+00  0.11162623370E+03  0.11162623370E+03  0.00000000000E+00 0. -1.
         21   -1    0    0  501  503 -0.00000000000E+00 -0.00000000000E+00 -0.41556755125E+03  0.41556755125E+03  0.00000000000E+00 0. -1.
          6    2    1    2  501    0 -0.10982806348E+03 -0.17439563445E+02 -0.23211299217E+03  0.30960030794E+03  0.17207430849E+03 0.  0.
         24    2    3    3    0    0 -0.96557861588E+02 -0.66178501141E+01 -0.25278431605E+03  0.28234959477E+03  0.80337828257E+02 0.  0.
         -6    2    1    2    0  502  0.10982806348E+03  0.17439563445E+02 -0.71828325384E+02  0.21759347701E+03  0.17268836385E+03 0.  0.
        -24    2    5    5    0    0 -0.12686421114E+01  0.29833351573E+02  0.86308053841E+01  0.79782571418E+02  0.73478769597E+02 0.  0.
          5    1    3    3  501    0 -0.13270201889E+02 -0.10821713331E+02  0.20671323880E+02  0.27250713175E+02  0.47000000000E+01 0. -1.
        -11    1    4    4    0    0 -0.52882148010E+02  0.35867149628E+02 -0.14670358645E+03  0.16001536263E+03  0.00000000000E+00 0.  1.
         12    1    4    4    0    0 -0.43675713578E+02 -0.42484999742E+02 -0.10608072960E+03  0.12233423213E+03  0.00000000000E+00 0. -1.
         -5    1    5    5    0  502  0.11109670559E+03 -0.12393788128E+02 -0.80459130768E+02  0.13781090559E+03  0.47000000000E+01 0.  1.
         11    1    6    6    0    0  0.24849142348E+02  0.43194332915E+02  0.30959028828E+01  0.49928097160E+02  0.00000000000E+00 0. -1.
        -12    1    6    6    0    0 -0.26117784459E+02 -0.13360981342E+02  0.55349025013E+01  0.29854474257E+02  0.00000000000E+00 0.  1.
</event>
<event>
12    1  0.8196217E-002  0.1912958E+03  0.7818608E-02  0.1159971E+00
         21   -1    0    0  501  502  0.00000000000E+00  0.00000000000E+00  0.17283580493E+03  0.17283580493E+03  0.00000000000E+00 0.  1.
         21   -1    0    0  502  503 -0.00000000000E+00 -0.00000000000E+00 -0.25313213662E+03  0.25313213662E+03  0.00000000000E+00 0.  1.
         -6    2    1    2    0  503  0.33859992477E+02 -0.45785948335E+02 -0.13947978606E+03  0.23674608222E+03  0.18262323120E+03 0.  0.
        -24    2    3    3    0    0  0.79640537632E+02  0.16300286847E+02 -0.77442236796E+02  0.13764357755E+03  0.79624994923E+02 0.  0.
          6    2    1    2  501    0 -0.33859992477E+02  0.45785948335E+02  0.59183454363E+02  0.18922185933E+03  0.17046811614E+03 0.  0.
         24    2    5    5    0    0 -0.27445312072E+02  0.89111695044E+02  0.72352301624E+02  0.14324602882E+03  0.81181462623E+02 0.  0.
          5    1    5    5  501    0 -0.64146804055E+01 -0.43325746710E+02 -0.13168847261E+02  0.45975830507E+02  0.47000000000E+01 0. -1.
        -13    1    6    6    0    0 -0.11326994195E+02  0.48211101047E+02  0.84227687733E+02  0.97708313068E+02  0.00000000000E+00 0.  1.
         14    1    6    6    0    0 -0.16118317877E+02  0.40900593997E+02 -0.11875386109E+02  0.45537715750E+02  0.00000000000E+00 0. -1.
         -5    1    3    3    0  503 -0.45780545154E+02 -0.62086235181E+02 -0.62037549259E+02  0.99102504669E+02  0.47000000000E+01 0.  1.
         11    1    4    4    0    0 -0.14463473562E+02  0.11501718371E+02 -0.20269575177E+02  0.27428767213E+02  0.00000000000E+00 0. -1.
        -12    1    4    4    0    0  0.94104011193E+02  0.47985684755E+01 -0.57172661620E+02  0.11021481034E+03  0.00000000000E+00 0.  1.
</event>
<event>
12    1  0.8196217E-002  0.1920502E+03  0.7818608E-02  0.1157901E+00
         21   -1    0    0  503  502  0.00000000000E+00  0.00000000000E+00  0.10259696379E+03  0.10259696379E+03  0.00000000000E+00 0.  1.
         21   -1    0    0  501  503 -0.00000000000E+00 -0.00000000000E+00 -0.35976130274E+03  0.35976130274E+03  0.00000000000E+00 0.  1.
          6    2    1    2  501    0 -0.72921913375E+02  0.50272847251E+02 -0.17042028918E+03  0.25676130928E+03  0.17040636831E+03 0.  0.
         24    2    3    3    0    0 -0.62302839232E+02  0.11126856900E+02 -0.18828038249E+03  0.21219398685E+03  0.74641375269E+02 0.  0.
         -6    2    1    2    0  502  0.72921913375E+02 -0.50272847251E+02 -0.86744049770E+02  0.20559695725E+03  0.16401406659E+03 0.  0.
        -24    2    5    5    0    0  0.16282493245E+02 -0.72440553244E+02 -0.10743051315E+02  0.10814095247E+03  0.77886450097E+02 0.  0.
          5    1    3    3  501    0 -0.10619074143E+02  0.39145990352E+02  0.17860093309E+02  0.44567322438E+02  0.47000000000E+01 0. -1.
        -13    1    4    4    0    0  0.92763442110E+00 -0.22398824267E+02 -0.23170842454E+02  0.32240592026E+02  0.00000000000E+00 0.  1.
         14    1    4    4    0    0 -0.63230473653E+02  0.33525681167E+02 -0.16510954004E+03  0.17995339482E+03  0.00000000000E+00 0. -1.
         -5    1    5    5    0  502  0.56639420130E+02  0.22167705993E+02 -0.76000998455E+02  0.97456004781E+02  0.47000000000E+01 0.  1.
         11    1    6    6    0    0  0.16189423290E+02 -0.59128038787E+01 -0.33627569024E+02  0.37787194585E+02  0.00000000000E+00 0. -1.
        -12    1    6    6    0    0  0.93069955018E-01 -0.66527749365E+02  0.22884517709E+02  0.70353757884E+02  0.00000000000E+00 0.  1.
</event>
<event>
12    1  0.8196217E-002  0.2775307E+03  0.7818608E-02  0.1097090E+00
         21   -1    0    0  503  502  0.00000000000E+00  0.00000000000E+00  0.20063640573E+04  0.20063640573E+04  0.00000000000E+00 0. -1.
         21   -1    0    0  501  503 -0.00000000000E+00 -0.00000000000E+00 -0.51168860129E+02  0.51168860129E+02  0.00000000000E+00 0. -1.
          6    2    1    2  501    0 -0.18372304504E+03 -0.11393585897E+03  0.46300119735E+03  0.53980864519E+03  0.17403369629E+03 0.  0.
         24    2    3    3    0    0 -0.17246969978E+03 -0.76135379984E+02  0.44945161647E+03  0.49784204975E+03  0.10147688174E+03 0.  0.
         -6    2    1    2    0  502  0.18372304504E+03  0.11393585897E+03  0.14921939998E+04  0.15177242722E+04  0.17351799960E+03 0.  0.
        -24    2    5    5    0    0  0.20719255971E+03  0.90215008441E+02  0.13727392741E+04  0.13936073179E+04  0.81613339304E+02 0.  0.
          5    1    3    3  501    0 -0.11253345256E+02 -0.37800478986E+02  0.13549580879E+02  0.41966595442E+02  0.47000000000E+01 0. -1.
        -13    1    4    4    0    0 -0.55177088780E+02 -0.75402051336E+01  0.25248756554E+03  0.25855625417E+03  0.00000000000E+00 0.  1.
         14    1    4    4    0    0 -0.11729261100E+03 -0.68595174851E+02  0.19696405093E+03  0.23928579558E+03  0.00000000000E+00 0. -1.
         -5    1    5    5    0  502 -0.23469514671E+02  0.23720850529E+02  0.11945472569E+03  0.12411695436E+03  0.47000000000E+01 0.  1.
         11    1    6    6    0    0  0.13669473629E+03  0.99559514655E+02  0.95401280098E+03  0.96888491180E+03  0.00000000000E+00 0. -1.
        -12    1    6    6    0    0  0.70497823414E+02 -0.93445062145E+01  0.41872647313E+03  0.42472240605E+03  0.00000000000E+00 0.  1.
</event>
<event>
12    1  0.8196217E-002  0.1879750E+03  0.7818608E-02  0.1160305E+00
         21   -1    0    0  503  502  0.00000000000E+00  0.00000000000E+00  0.10210828210E+04  0.10210828210E+04  0.00000000000E+00 0. -1.
         21   -1    0    0  501  503 -0.00000000000E+00 -0.00000000000E+00 -0.37334356726E+02  0.37334356726E+02  0.00000000000E+00 0. -1.
          6    2    1    2  501    0  0.16670250683E+02 -0.73555529731E+02  0.34870932857E+03  0.39614741929E+03  0.17218091870E+03 0.  0.
         24    2    3    3    0    0  0.47220828576E+02  0.17621307864E+02  0.16065371500E+03  0.18488086415E+03  0.76360989024E+02 0.  0.
         -6    2    1    2    0  502 -0.16670250683E+02  0.73555529731E+02  0.63503913575E+03  0.66226975848E+03  0.17215753209E+03 0.  0.
        -24    2    5    5    0    0 -0.21837091807E+01  0.11282903528E+03  0.38809849424E+03  0.41176219662E+03  0.78692474509E+02 0.  0.
          5    1    3    3  501    0 -0.30550577893E+02 -0.91176837595E+02  0.18805561357E+03  0.21126655514E+03  0.47000000000E+01 0. -1.
        -11    1    4    4    0    0 -0.17557316460E+02  0.18789199221E+02  0.34127827584E+02  0.42731744456E+02  0.00000000000E+00 0.  1.
         12    1    4    4    0    0  0.64778145036E+02 -0.11678913567E+01  0.12652588741E+03  0.14214911969E+03  0.00000000000E+00 0. -1.
         -5    1    5    5    0  502 -0.14486541502E+02 -0.39273505546E+02  0.24694064151E+03  0.25050756186E+03  0.47000000000E+01 0.  1.
         11    1    6    6    0    0 -0.12696570342E+02  0.66592136028E+02  0.10682508289E+03  0.12652001349E+03  0.00000000000E+00 0. -1.
        -12    1    6    6    0    0  0.10512861162E+02  0.46236899249E+02  0.28127341136E+03  0.28524218313E+03  0.00000000000E+00 0.  1.
</event>
<event>
12    1  0.8196217E-002  0.2047587E+03  0.7818608E-02  0.1145878E+00
         21   -1    0    0  501  502  0.00000000000E+00  0.00000000000E+00  0.39834287305E+03  0.39834287305E+03  0.00000000000E+00 0. -1.
         21   -1    0    0  502  503 -0.00000000000E+00 -0.00000000000E+00 -0.20409623368E+03  0.20409623368E+03  0.00000000000E+00 0. -1.
         -6    2    1    2    0  503  0.11000107498E+03 -0.94230237611E+01 -0.11280285803E+03  0.23337876403E+03  0.17190733797E+03 0.  0.
        -24    2    3    3    0    0  0.75087512530E+02  0.12057477835E+01 -0.14893339637E+03  0.18180906916E+03  0.72344956356E+02 0.  0.
          6    2    1    2  501    0 -0.11000107498E+03  0.94230237611E+01  0.30704949740E+03  0.36906034270E+03  0.17244452100E+03 0.  0.
         24    2    5    5    0    0 -0.25905672568E+02  0.54708705459E+02  0.10121913270E+03  0.14209986441E+03  0.79264823948E+02 0.  0.
          5    1    5    5  501    0 -0.84095402415E+02 -0.45285681698E+02  0.20583036470E+03  0.22696047829E+03  0.47000000000E+01 0. -1.
        -11    1    6    6    0    0  0.39912572459E+01  0.46895385509E+01  0.79765953325E+02  0.80003307532E+02  0.00000000000E+00 0.  1.
         12    1    6    6    0    0 -0.29896929813E+02  0.50019166909E+02  0.21453179379E+02  0.62096556877E+02  0.00000000000E+00 0. -1.
         -5    1    3    3    0  503  0.34913562453E+02 -0.10628771545E+02  0.36130538344E+02  0.51569694867E+02  0.47000000000E+01 0.  1.
         11    1    4    4    0    0  0.45762302916E+02  0.29944431166E+02 -0.47708810119E+02  0.72574016625E+02  0.00000000000E+00 0. -1.
        -12    1    4    4    0    0  0.29325209613E+02 -0.28738683383E+02 -0.10122458625E+03  0.10923505254E+03  0.00000000000E+00 0.  1.
</event>
<event>
12    1  0.8196217E-002  0.2124961E+03  0.7818608E-02  0.1139625E+00
         21   -1    0    0  501  502  0.00000000000E+00  0.00000000000E+00  0.11308434024E+03  0.11308434024E+03  0.00000000000E+00 0.  1.
         21   -1    0    0  502  503 -0.00000000000E+00 -0.00000000000E+00 -0.44395304598E+03  0.44395304598E+03  0.00000000000E+00 0.  1.
         -6    2    1    2    0  503  0.29630366721E+02 -0.12084170675E+03 -0.25399886880E+03  0.33116466253E+03  0.17226123078E+03 0.  0.
        -24    2    3    3    0    0  0.93669733860E+01 -0.10228630130E+03 -0.26951383316E+03  0.29926305911E+03  0.79815065396E+02 0.  0.
          6    2    1    2  501    0 -0.29630366721E+02  0.12084170675E+03 -0.76869836945E+02  0.22587272370E+03  0.17213029586E+03 0.  0.
         24    2    5    5    0    0  0.25636722485E+02  0.64160888326E+01 -0.59311773172E+01  0.80263463633E+02  0.75555522593E+02 0.  0.
          5    1    5    5  501    0 -0.55267089206E+02  0.11442561792E+03 -0.70938659628E+02  0.14560926006E+03  0.47000000000E+01 0. -1.
        -11    1    6    6    0    0 -0.23067651049E+02  0.17758905222E+02  0.36705626836E+01  0.29342260819E+02  0.00000000000E+00 0.  1.
         12    1    6    6    0    0  0.48704373533E+02 -0.11342816389E+02 -0.96017400009E+01  0.50921202813E+02  0.00000000000E+00 0. -1.
         -5    1    3    3    0  503  0.20263393335E+02 -0.18555405458E+02  0.15514964358E+02  0.31901603411E+02  0.47000000000E+01 0.  1.
         13    1    4    4    0    0 -0.17253702610E+02 -0.54933997512E+01 -0.10492239279E+03  0.10647335912E+03  0.00000000000E+00 0. -1.
        -14    1    4    4    0    0  0.26620675996E+02 -0.96792901546E+02 -0.16459144037E+03  0.19278969999E+03  0.00000000000E+00 0.  1.
</event>
<event>
12    1  0.8196217E-002  0.2441505E+03  0.7818608E-02  0.1117367E+00
         21   -1    0    0  503  502  0.00000000000E+00  0.00000000000E+00  0.27890950380E+03  0.27890950380E+03  0.00000000000E+00 0. -1.
         21   -1    0    0  501  503 -0.00000000000E+00 -0.00000000000E+00 -0.30079410200E+03  0.30079410200E+03  0.00000000000E+00 0.  1.
          6    2    1    2  501    0  0.29890528768E+02  0.16870919742E+03 -0.16833007471E+03  0.29500066380E+03  0.17127212436E+03 0.  0.
         24    2    3    3    0    0 -0.36864112811E+01  0.17932004311E+03 -0.10467466917E+03  0.22210277902E+03  0.78762875722E+02 0.  0.
         -6    2    1    2    0  502 -0.29890528768E+02 -0.16870919742E+03  0.14644547652E+03  0.28470294201E+03  0.17393461586E+03 0.  0.
        -24    2    5    5    0    0 -0.85216146971E+02 -0.10340293084E+03  0.87259168692E+02  0.18053508940E+03  0.83814069068E+02 0.  0.
          5    1    3    3  501    0  0.33576940049E+02 -0.10610845698E+02 -0.63655405547E+02  0.72897884777E+02  0.47000000000E+01 0. -1.
        -13    1    4    4    0    0 -0.25135461883E+02  0.12975735354E+03 -0.10385601252E+03  0.16809174155E+03  0.00000000000E+00 0.  1.
         14    1    4    4    0    0  0.21449050602E+02  0.49562689574E+02 -0.81865664914E+00  0.54011037467E+02  0.00000000000E+00 0. -1.
         -5    1    5    5    0  502  0.55325618203E+02 -0.65306266578E+02  0.59186307823E+02  0.10416785261E+03  0.47000000000E+01 0.  1.
         11    1    6    6    0    0 -0.95149235326E+02 -0.10903444376E+03  0.87507977746E+02  0.16911396476E+03  0.00000000000E+00 0. -1.
        -12    1    6    6    0    0  0.99330883550E+01  0.56315129202E+01 -0.24880905455E+00  0.11421124637E+02  0.00000000000E+00 0.  1.
</event>
<event>
12    1  0.8196217E-002  0.2021585E+03  0.7818608E-02  0.1148328E+00
         21   -1    0    0  503  502  0.00000000000E+00  0.00000000000E+00  0.78475597323E+02  0.78475597323E+02  0.00000000000E+00 0. -1.
         21   -1    0    0  501  503 -0.00000000000E+00 -0.00000000000E+00 -0.53450334770E+03  0.53450334770E+03  0.00000000000E+00 0. -1.
          6    2    1    2  501    0 -0.24525128014E+02  0.10094030348E+03 -0.17185722380E+03  0.26533554867E+03  0.17342900924E+03 0.  0.
         24    2    3    3    0    0  0.41111608986E+01 -0.15259564208E+02 -0.70279255580E+02  0.10829217911E+03  0.80859547046E+02 0.  0.
         -6    2    1    2    0  502  0.24525128014E+02 -0.10094030348E+03 -0.28417052658E+03  0.34764339636E+03  0.17120927569E+03 0.  0.
        -24    2    5    5    0    0 -0.28874722836E+02  0.89420957797E+00 -0.10351298765E+03  0.13344477710E+03  0.79107652553E+02 0.  0.
          5    1    3    3  501    0 -0.28636288912E+02  0.11619986769E+03 -0.10157796822E+03  0.15704336955E+03  0.47000000000E+01 0. -1.
        -13    1    4    4    0    0 -0.32227051482E+02 -0.28909994706E+02 -0.32605258101E+02  0.54198463972E+02  0.00000000000E+00 0.  1.
         14    1    4    4    0    0  0.36338212380E+02  0.13650430498E+02 -0.37673997478E+02  0.54093715141E+02  0.00000000000E+00 0. -1.
         -5    1    5    5    0  502  0.53399850849E+02 -0.10183451306E+03 -0.18065753894E+03  0.21419861926E+03  0.47000000000E+01 0.  1.
         13    1    6    6    0    0  0.11400873886E+02 -0.25349263431E+02 -0.12415547299E+02  0.30441926624E+02  0.00000000000E+00 0. -1.
        -14    1    6    6    0    0 -0.40275596722E+02  0.26243473009E+02 -0.91097440350E+02  0.10300285047E+03  0.00000000000E+00 0.  1.
</event>
<event>
12    1  0.8196217E-002  0.2136336E+03  0.7818608E-02  0.1139119E+00
         21   -1    0    0  501  502  0.00000000000E+00  0.00000000000E+00  0.11455751963E+04  0.11455751963E+04  0.00000000000E+00 0. -1.
         21   -1    0    0  502  503 -0.00000000000E+00 -0.00000000000E+00 -0.40299011827E+02  0.40299011827E+02  0.00000000000E+00 0.  1.
         -6    2    1    2    0  503  0.39547607616E+02  0.11747791997E+03  0.64086496995E+03  0.67553478301E+03  0.17399499533E+03 0.  0.
        -24    2    3    3    0    0  0.83374065008E+01  0.14819237854E+03  0.46655655978E+03  0.49574889236E+03  0.77855297868E+02 0.  0.
          6    2    1    2  501    0 -0.39547607616E+02 -0.11747791997E+03  0.46441121455E+03  0.51033942514E+03  0.17147442289E+03 0.  0.
         24    2    5    5    0    0 -0.41301836801E+02 -0.14126701887E+02  0.31539080095E+03  0.32891802268E+03  0.82524559335E+02 0.  0.
          5    1    5    5  501    0  0.17542291841E+01 -0.10335121809E+03  0.14902041360E+03  0.18142140246E+03  0.47000000000E+01 0. -1.
        -13    1    6    6    0    0 -0.21905387708E+02 -0.39859957012E+02  0.86109750948E+02  0.97383527313E+02  0.00000000000E+00 0.  1.
         14    1    6    6    0    0 -0.19396449092E+02  0.25733255125E+02  0.22928105000E+03  0.23153449537E+03  0.00000000000E+00 0. -1.
         -5    1    3    3    0  503  0.31210201116E+02 -0.30714458566E+02  0.17430841017E+03  0.17978589065E+03  0.47000000000E+01 0.  1.
         11    1    4    4    0    0  0.83713699756E+01  0.13938683407E+03  0.46649197232E+03  0.48694304553E+03  0.00000000000E+00 0. -1.
        -12    1    4    4    0    0 -0.33963474801E-01  0.88055444726E+01  0.64587453807E-01  0.88058468369E+01  0.00000000000E+00 0.  1.
</event>
<event>
12    1  0.8196217E-002  0.4560936E+03  0.7818608E-02  0.1026089E+00
         21   -1    0    0  503  502  0.00000000000E+00  0.00000000000E+00  0.97453539973E+03  0.97453539973E+03  0.00000000000E+00 0.  1.
         21   -1    0    0  501  503 -0.00000000000E+00 -0.00000000000E+00 -0.23312345420E+03  0.23312345420E+03  0.00000000000E+00 0. -1.
          6    2    1    2  501    0  0.34990494484E+03 -0.23503760392E+03  0.19145543009E+03  0.49464790075E+03  0.17419878968E+03 0.  0.
         24    2    3    3    0    0  0.12835372978E+03 -0.11187130823E+03  0.20228362673E+02  0.18871379689E+03  0.78827919711E+02 0.  0.
         -6    2    1    2    0  502 -0.34990494484E+03  0.23503760392E+03  0.54995651543E+03  0.71301095317E+03  0.16809611773E+03 0.  0.
        -24    2    5    5    0    0 -0.88554299772E+02  0.60779605908E+02  0.11950954740E+03  0.18011631834E+03  0.81383854103E+02 0.  0.
          5    1    3    3  501    0  0.22155121507E+03 -0.12316629568E+03  0.17122706742E+03  0.30593410386E+03  0.47000000000E+01 0. -1.
        -13    1    4    4    0    0 -0.10777212579E+02 -0.37530479091E+01  0.70065476071E+00  0.11433485762E+02  0.00000000000E+00 0.  1.
         14    1    4    4    0    0  0.13913094236E+03 -0.10811826032E+03  0.19527707912E+02  0.17728031112E+03  0.00000000000E+00 0. -1.
         -5    1    5    5    0  502 -0.26135064507E+03  0.17425799801E+03  0.43044696803E+03  0.53289463484E+03  0.47000000000E+01 0.  1.
         13    1    6    6    0    0 -0.47030222457E+02  0.23648261167E+01  0.91995096888E+02  0.10334665973E+03  0.00000000000E+00 0. -1.
        -14    1    6    6    0    0 -0.41524077314E+02  0.58414779791E+02  0.27514450516E+02  0.76769658603E+02  0.00000000000E+00 0.  1.
</event>
<event>
12    1  0.8196217E-002  0.1780509E+03  0.7818608E-02  0.1170068E+00
         21   -1    0    0  501  502  0.00000000000E+00  0.00000000000E+00  0.59764054708E+02  0.59764054708E+02  0.00000000000E+00 0.  1.
         21   -1    0    0  502  503 -0.00000000000E+00 -0.00000000000E+00 -0.54259701063E+03  0.54259701063E+03  0.00000000000E+00 0.  1.
         -6    2    1    2    0  503  0.38755556257E+02  0.20850942842E+02 -0.29498855984E+03  0.34455821538E+03  0.17252639911E+03 0.  0.
        -24    2    3    3    0    0 -0.68615266210E+00  0.41535192011E+02 -0.28493280929E+03  0.29865947155E+03  0.79278819068E+02 0.  0.
          6    2    1    2  501    0 -0.38755556257E+02 -0.20850942842E+02 -0.18784439608E+03  0.25780284996E+03  0.17099718521E+03 0.  0.
         24    2    5    5    0    0  0.87260954867E+01 -0.68609184751E+02 -0.14086937400E+03  0.17555870353E+03  0.78697604027E+02 0.  0.
          5    1    5    5  501    0 -0.47481651744E+02  0.47758241909E+02 -0.46975022084E+02  0.82244146432E+02  0.47000000000E+01 0. -1.
        -13    1    6    6    0    0  0.12661960522E+02 -0.58617382785E+02 -0.35594081922E+02  0.69737088243E+02  0.00000000000E+00 0.  1.
         14    1    6    6    0    0 -0.39358650352E+01 -0.99918019660E+01 -0.10527529207E+03  0.10582161528E+03  0.00000000000E+00 0. -1.
         -5    1    3    3    0  503  0.39441708919E+02 -0.20684249170E+02 -0.10055750551E+02  0.45898743832E+02  0.47000000000E+01 0.  1.
         13    1    4    4    0    0  0.29384824965E+01 -0.21741757421E+02 -0.11957471221E+03  0.12157076332E+03  0.00000000000E+00 0. -1.
        -14    1    4    4    0    0 -0.36246351586E+01  0.63276949432E+02 -0.16535809708E+03  0.17708870822E+03  0.00000000000E+00 0.  1.
</event>
<event>
12    1  0.8196217E-002  0.1985701E+03  0.7818608E-02  0.1151006E+00
         21   -1    0    0  503  502  0.00000000000E+00  0.00000000000E+00  0.17973356969E+04  0.17973356969E+04  0.00000000000E+00 0. -1.
         21   -1    0    0  501  503 -0.00000000000E+00 -0.00000000000E+00 -0.44728535291E+02  0.44728535291E+02  0.00000000000E+00 0. -1.
          6    2    1    2  501    0  0.36811857008E+02 -0.91505580204E+02  0.21872848196E+03  0.29541873530E+03  0.17234180084E+03 0.  0.
         24    2    3    3    0    0 -0.18836304260E+02  0.20706567152E+01  0.13212978831E+03  0.15622587014E+03  0.81173564444E+02 0.  0.
         -6    2    1    2    0  502 -0.36811857008E+02  0.91505580204E+02  0.15338786796E+04  0.15466454969E+04  0.17204681097E+03 0.  0.
        -24    2    5    5    0    0 -0.68181062277E+02  0.52299806248E+01  0.75452537399E+03  0.76189001194E+03  0.80571957625E+02 0.  0.
          5    1    3    3  501    0  0.55648161268E+02 -0.93576236919E+02  0.86598693655E+02  0.13919286516E+03  0.47000000000E+01 0. -1.
        -13    1    4    4    0    0 -0.27227662530E+00 -0.26337233348E+02  0.11544293632E+03  0.11840944026E+03  0.00000000000E+00 0.  1.
         14    1    4    4    0    0 -0.18564027634E+02  0.28407890064E+02  0.16686851988E+02  0.37816429884E+02  0.00000000000E+00 0. -1.
         -5    1    5    5    0  502  0.31369205269E+02  0.86275599579E+02  0.77935330562E+03  0.78475548491E+03  0.47000000000E+01 0.  1.
         13    1    6    6    0    0 -0.74331896629E+02 -0.13497950221E+02  0.69697234705E+03  0.70105483243E+03  0.00000000000E+00 0. -1.
        -14    1    6    6    0    0  0.61508343512E+01  0.18727930846E+02  0.57553026938E+02  0.60835179516E+02  0.00000000000E+00 0.  1.
</event>
<event>
12    1  0.8196217E-002  0.2011432E+03  0.7818608E-02  0.1150431E+00
         21   -1    0    0  501  502  0.00000000000E+00  0.00000000000E+00  0.65889308445E+03  0.65889308445E+03  0.00000000000E+00 0.  1.
         21   -1    0    0  502  503 -0.00000000000E+00 -0.00000000000E+00 -0.60318091658E+02  0.60318091658E+02  0.00000000000E+00 0.  1.
         -6    2    1    2    0  503 -0.90363883645E+02 -0.31483007136E+01  0.35682521721E+03  0.40961301173E+03  0.17967481869E+03 0.  0.
        -24    2    3    3    0    0 -0.76480981969E+02  0.12802708024E+02  0.36970046489E+03  0.38441317757E+03  0.71286796917E+02 0.  0.
          6    2    1    2  501    0  0.90363883645E+02  0.31483007136E+01  0.24174977558E+03  0.30959816438E+03  0.17097522081E+03 0.  0.
         24    2    5    5    0    0  0.94140921523E+02  0.26937133139E-01  0.26090671382E+03  0.28927361745E+03  0.82124287543E+02 0.  0.
          5    1    5    5  501    0 -0.37770378783E+01  0.31213635804E+01 -0.19156938235E+02  0.20324546939E+02  0.47000000000E+01 0. -1.
        -11    1    6    6    0    0  0.99459072562E+02  0.16352456034E+02  0.24828270344E+03  0.26796233086E+03  0.00000000000E+00 0.  1.
         12    1    6    6    0    0 -0.53181510388E+01 -0.16325518901E+02  0.12624010377E+02  0.21311286584E+02  0.00000000000E+00 0. -1.
         -5    1    3    3    0  503 -0.13882901675E+02 -0.15951008737E+02 -0.12875247678E+02  0.25199834155E+02  0.47000000000E+01 0.  1.
         11    1    4    4    0    0 -0.59899565738E+02  0.26190041589E+02  0.14931249731E+03  0.16299723343E+03  0.00000000000E+00 0. -1.
        -12    1    4    4    0    0 -0.16581416232E+02 -0.13387333565E+02  0.22038796758E+03  0.22141594414E+03  0.00000000000E+00 0.  1.
</event>
<event>
12    1  0.8196217E-002  0.1866247E+03  0.7818608E-02  0.1161817E+00
         21   -1    0    0  501  502  0.00000000000E+00  0.00000000000E+00  0.13173307103E+03  0.13173307103E+03  0.00000000000E+00 0.  1.
         21   -1    0    0  502  503 -0.00000000000E+00 -0.00000000000E+00 -0.80493092833E+03  0.80493092833E+03  0.00000000000E+00 0.  1.
         -6    2    1    2    0  503 -0.47415371616E+02 -0.47786523196E+02 -0.72062970633E+03  0.74410608384E+03  0.17278576645E+03 0.  0.
        -24    2    3    3    0    0  0.15937826368E+02 -0.66939788442E+00 -0.20913644950E+03  0.22653377683E+03  0.85586419093E+02 0.  0.
          6    2    1    2  501    0  0.47415371616E+02  0.47786523196E+02  0.47431849033E+02  0.19255791553E+03  0.17406033800E+03 0.  0.
         24    2    5    5    0    0 -0.15884600649E+02 -0.30509290067E+02  0.19955860066E+02  0.88087150081E+02  0.78600078501E+02 0.  0.
          5    1    5    5  501    0  0.63299972265E+02  0.78295813263E+02  0.27475988967E+02  0.10447076545E+03  0.47000000000E+01 0. -1.
        -11    1    6    6    0    0  0.21853916343E+01  0.22564351720E+02  0.22531721395E+02  0.31962546428E+02  0.00000000000E+00 0.  1.
         12    1    6    6    0    0 -0.18069992283E+02 -0.53073641787E+02 -0.25758613292E+01  0.56124603653E+02  0.00000000000E+00 0. -1.
         -5    1    3    3    0  503 -0.63353197985E+02 -0.47117125312E+02 -0.51149325684E+03  0.51757230701E+03  0.47000000000E+01 0.  1.
         11    1    4    4    0    0 -0.22013074261E+02  0.29670204609E+02 -0.11176799918E+03  0.11771568341E+03  0.00000000000E+00 0. -1.
        -12    1    4    4    0    0  0.37950900629E+02 -0.30339602494E+02 -0.97368450313E+02  0.10881809341E+03  0.00000000000E+00 0.  1.
</event>
<event>
12    1  0.8196217E-002  0.1975310E+03  0.7818608E-02  0.1152125E+00
         21   -1    0    0  503  502  0.00000000000E+00  0.00000000000E+00  0.10433223409E+04  0.10433223409E+04  0.00000000000E+00 0. -1.
         21   -1    0    0  501  503 -0.00000000000E+00 -0.00000000000E+00 -0.91785991508E+02  0.91785991508E+02  0.00000000000E+00 0. -1.
          6    2    1    2  501    0 -0.73086944561E+02  0.57582527716E+02  0.37223030689E+02  0.19970074395E+03  0.17273501139E+03 0.  0.
         24    2    3    3    0    0 -0.77793793339E+02  0.64847920120E+02 -0.29806800813E+02  0.13195099367E+03  0.79154862956E+02 0.  0.
         -6    2    1    2    0  502  0.73086944561E+02 -0.57582527716E+02  0.91431331872E+03  0.93540758847E+03  0.17424426194E+03 0.  0.
        -24    2    5    5    0    0  0.86533266267E+02 -0.59658612356E+02  0.40176833568E+03  0.42266051306E+03  0.78593622856E+02 0.  0.
          5    1    3    3  501    0  0.47068487785E+01 -0.72653924040E+01  0.67029831503E+02  0.67749750284E+02  0.47000000000E+01 0. -1.
        -13    1    4    4    0    0  0.53959794507E+01 -0.12843392144E+02  0.11838493700E+01  0.13981087774E+02  0.00000000000E+00 0.  1.
         14    1    4    4    0    0 -0.83189772790E+02  0.77691312265E+02 -0.30990650183E+02  0.11796990590E+03  0.00000000000E+00 0. -1.
         -5    1    5    5    0  502 -0.13446321707E+02  0.20760846397E+01  0.51254498304E+03  0.51274707540E+03  0.47000000000E+01 0.  1.
         13    1    6    6    0    0  0.83351431421E+02 -0.65105909038E+02  0.40263334735E+03  0.41629298927E+03  0.00000000000E+00 0. -1.
        -14    1    6    6    0    0  0.31818348462E+01  0.54472966822E+01 -0.86501167678E+00  0.63675237992E+01  0.00000000000E+00 0.  1.
</event>
<event>
12    1  0.8196217E-002  0.1991000E+03  0.7818608E-02  0.1150835E+00
         21   -1    0    0  501  502  0.00000000000E+00  0.00000000000E+00  0.47367670540E+03  0.47367670540E+03  0.00000000000E+00 0.  1.
         21   -1    0    0  502  503 -0.00000000000E+00 -0.00000000000E+00 -0.91047675923E+02  0.91047675923E+02  0.00000000000E+00 0.  1.
         -6    2    1    2    0  503  0.34139507782E+02 -0.94011073438E+02  0.27580526050E+03  0.34016078811E+03  0.17215467501E+03 0.  0.
        -24    2    3    3    0    0 -0.38298632115E+01 -0.12278546810E+03  0.16989978159E+03  0.22393815958E+03  0.78685605420E+02 0.  0.
          6    2    1    2  501    0 -0.34139507782E+02  0.94011073438E+02  0.10682376898E+03  0.22456359322E+03  0.17033467603E+03 0.  0.
         24    2    5    5    0    0 -0.45776668071E+02  0.84731902754E+02  0.86206115175E+01  0.12512780165E+03  0.79420734820E+02 0.  0.
          5    1    5    5  501    0  0.11637160289E+02  0.92791706835E+01  0.98203157467E+02  0.99435791567E+02  0.47000000000E+01 0. -1.
        -11    1    6    6    0    0 -0.62717254619E+02  0.36313990594E+02  0.13063536156E+02  0.73639771297E+02  0.00000000000E+00 0.  1.
         12    1    6    6    0    0  0.16940586548E+02  0.48417912160E+02 -0.44429246380E+01  0.51488030355E+02  0.00000000000E+00 0. -1.
         -5    1    3    3    0  503  0.37969370994E+02  0.28774394657E+02  0.10590547890E+03  0.11622262853E+03  0.47000000000E+01 0.  1.
         13    1    4    4    0    0 -0.35885778781E+02 -0.31344157262E+02  0.42280530949E+02  0.63701558933E+02  0.00000000000E+00 0. -1.
        -14    1    4    4    0    0  0.32055915569E+02 -0.91441310833E+02  0.12761925065E+03  0.16023660064E+03  0.00000000000E+00 0.  1.
</event>
<event>
12    1  0.8196217E-002  0.2457303E+03  0.7818608E-02  0.1116056E+00
         21   -1    0    0  503  502  0.00000000000E+00  0.00000000000E+00  0.34326974091E+03  0.34326974091E+03  0.00000000000E+00 0. -1.
         21   -1    0    0  501  503 -0.00000000000E+00 -0.00000000000E+00 -0.17705488764E+03  0.17705488764E+03  0.00000000000E+00 0.  1.
          6    2    1    2  501    0  0.14434873578E+03 -0.99930140563E+02  0.10498883217E+03  0.26721903556E+03  0.17193245061E+03 0.  0.
         24    2    3    3    0    0  0.15434470161E+03 -0.12297554299E+03  0.10967555485E+03  0.24123701726E+03  0.84978232942E+02 0.  0.
         -6    2    1    2    0  502 -0.14434873578E+03  0.99930140563E+02  0.61226021107E+02  0.25310559298E+03  0.17173009353E+03 0.  0.
        -24    2    5    5    0    0 -0.27588367813E+02  0.32282932743E+02 -0.24779810650E+02  0.93017425555E+02  0.78961361791E+02 0.  0.
          5    1    3    3  501    0 -0.99959658232E+01  0.23045402426E+02 -0.46867226890E+01  0.25982018306E+02  0.47000000000E+01 0. -1.
        -11    1    4    4    0    0  0.10065480745E+02  0.16668612739E+01 -0.11463143155E+02  0.15345878278E+02  0.00000000000E+00 0.  1.
         12    1    4    4    0    0  0.14427922086E+03 -0.12464240426E+03  0.12113869801E+03  0.22589113898E+03  0.00000000000E+00 0. -1.
         -5    1    5    5    0  502 -0.11676036797E+03  0.67647207820E+02  0.86005831757E+02  0.16008816743E+03  0.47000000000E+01 0.  1.
         13    1    6    6    0    0  0.20950482830E+01  0.29977296589E+02  0.22225473387E+02  0.37376452552E+02  0.00000000000E+00 0. -1.
        -14    1    6    6    0    0 -0.29683416096E+02  0.23056361544E+01 -0.47005284038E+02  0.55640973002E+02  0.00000000000E+00 0.  1.
</event>
<event>
12    1  0.8196217E-002  0.2337541E+03  0.7818608E-02  0.1124056E+00
         21   -1    0    0  501  502  0.00000000000E+00  0.00000000000E+00  0.20006015117E+03  0.20006015117E+03  0.00000000000E+00 0. -1.
         21   -1    0    0  502  503 -0.00000000000E+00 -0.00000000000E+00 -0.48126015301E+03  0.48126015301E+03  0.00000000000E+00 0. -1.
         -6    2    1    2    0  503  0.15658496823E+03  0.32825875403E+02 -0.36471250105E+03  0.43309601550E+03  0.17017802399E+03 0.  0.
        -24    2    3    3    0    0  0.83512388930E+02  0.64802465910E+02 -0.21726877463E+03  0.26539435586E+03  0.10979419384E+03 0.  0.
          6    2    1    2  501    0 -0.15658496823E+03 -0.32825875403E+02  0.83512499210E+02  0.24822428867E+03  0.17042467424E+03 0.  0.
         24    2    5    5    0    0 -0.14814273262E+03 -0.50403290293E+02  0.14525509638E+02  0.17638048875E+03  0.80076997219E+02 0.  0.
          5    1    5    5  501    0 -0.84422356164E+01  0.17577414890E+02  0.68986989572E+02  0.71843799918E+02  0.47000000000E+01 0. -1.
        -11    1    6    6    0    0 -0.15305163767E+03 -0.36259651801E+02  0.27152273443E+01  0.15731159716E+03  0.00000000000E+00 0.  1.
         12    1    6    6    0    0  0.49089050554E+01 -0.14143638492E+02  0.11810282294E+02  0.19068891591E+02  0.00000000000E+00 0. -1.
         -5    1    3    3    0  503  0.73072579301E+02 -0.31976590506E+02 -0.14744372642E+03  0.16770165964E+03  0.47000000000E+01 0.  1.
         11    1    4    4    0    0  0.20521876806E+02 -0.49188070285E+00 -0.15261284600E+03  0.15398724018E+03  0.00000000000E+00 0. -1.
        -12    1    4    4    0    0  0.62990512125E+02  0.65294346613E+02 -0.64655928636E+02  0.11140711568E+03  0.00000000000E+00 0.  1.
</event>
<event>
12    1  0.8196217E-002  0.2029128E+03  0.7818608E-02  0.1147312E+00
         21   -1    0    0  503  502  0.00000000000E+00  0.00000000000E+00  0.42325100719E+03  0.42325100719E+03  0.00000000000E+00 0.  1.
         21   -1    0    0  501  503 -0.00000000000E+00 -0.00000000000E+00 -0.11575132306E+03  0.11575132306E+03  0.00000000000E+00 0.  1.
          6    2    1    2  501    0 -0.22419351301E+02 -0.10350132331E+03  0.26144993353E+03  0.33092982580E+03  0.17304141303E+03 0.  0.
         24    2    3    3    0    0 -0.40645110757E+02 -0.82487545339E+02  0.27357494492E+03  0.30022375028E+03  0.82673028132E+02 0.  0.
         -6    2    1    2    0  502  0.22419351301E+02  0.10350132331E+03  0.46049750601E+02  0.20807250445E+03  0.17308505520E+03 0.  0.
        -24    2    5    5    0    0 -0.46566825731E+02  0.91933241817E+02  0.83364902369E+01  0.12846538706E+03  0.76247415652E+02 0.  0.
          5    1    3    3  501    0  0.18225759456E+02 -0.21013777976E+02 -0.12125011392E+02  0.30706075520E+02  0.47000000000E+01 0. -1.
        -11    1    4    4    0    0 -0.23404027528E+02 -0.90320358878E+02  0.16112288627E+03  0.18618834607E+03  0.00000000000E+00 0.  1.
         12    1    4    4    0    0 -0.17241083229E+02  0.78328135395E+01  0.11245205865E+03  0.11403540421E+03  0.00000000000E+00 0. -1.
         -5    1    5    5    0  502  0.68986177032E+02  0.11568081498E+02  0.37713260364E+02  0.79607117385E+02  0.47000000000E+01 0.  1.
         13    1    6    6    0    0 -0.21455947738E+02  0.71511179695E+01  0.29862573841E+02  0.37460238893E+02  0.00000000000E+00 0. -1.
        -14    1    6    6    0    0 -0.25110877993E+02  0.84782123847E+02 -0.21526083604E+02  0.91005148167E+02  0.00000000000E+00 0.  1.
</event>
<event>
12    1  0.8196217E-002  0.1830678E+03  0.7818608E-02  0.1165304E+00
         21   -1    0    0  503  502  0.00000000000E+00  0.00000000000E+00  0.85437279140E+02  0.85437279140E+02  0.00000000000E+00 0.  1.
         21   -1    0    0  501  503 -0.00000000000E+00 -0.00000000000E+00 -0.52050516094E+03  0.52050516094E+03  0.00000000000E+00 0.  1.
          6    2    1    2  501    0  0.43266020597E+02  0.41194497581E+02 -0.37102612569E+03  0.41373206169E+03  0.17304594118E+03 0.  0.
         24    2    3    3    0    0  0.64825762448E+02  0.20303775834E+02 -0.36842988964E+03  0.38323492796E+03  0.80708138644E+02 0.  0.
         -6    2    1    2    0  502 -0.43266020597E+02 -0.41194497581E+02 -0.64041756118E+02  0.19221037839E+03  0.17109806506E+03 0.  0.
        -24    2    5    5    0    0 -0.65956490789E+02 -0.68742162053E+02 -0.84812409785E+02  0.15065028565E+03  0.80166203546E+02 0.  0.
          5    1    3    3  501    0 -0.21559741851E+02  0.20890721747E+02 -0.25962360491E+01  0.30497133725E+02  0.47000000000E+01 0. -1.
        -13    1    4    4    0    0  0.27145900012E+02  0.16799365883E+02 -0.32088190110E+03  0.32246598741E+03  0.00000000000E+00 0.  1.
         14    1    4    4    0    0  0.37679862436E+02  0.35044099510E+01 -0.47547988535E+02  0.60768940554E+02  0.00000000000E+00 0. -1.
         -5    1    5    5    0  502  0.22690470193E+02  0.27547664472E+02  0.20770653668E+02  0.41560092748E+02  0.47000000000E+01 0.  1.
         11    1    6    6    0    0 -0.14062636761E+02  0.10995774803E+02 -0.43328816131E+02  0.46862043527E+02  0.00000000000E+00 0. -1.
        -12    1    6    6    0    0 -0.51893854028E+02 -0.79737936856E+02 -0.41483593654E+02  0.10378824212E+03  0.00000000000E+00 0.  1.
</event>
<event>
12    1  0.8196217E-002  0.2319052E+03  0.7818608E-02  0.1126948E+00
         21   -1    0    0  503  502  0.00000000000E+00  0.00000000000E+00  0.73295534285E+03  0.73295534285E+03  0.00000000000E+00 0.  1.
         21   -1    0    0  501  503 -0.00000000000E+00 -0.00000000000E+00 -0.21825487604E+03  0.21825487604E+03  0.00000000000E+00 0. -1.
          6    2    1    2  501    0 -0.12062151208E+03  0.97965987904E+02 -0.13228152043E+03  0.26698019016E+03  0.17214278180E+03 0.  0.
         24    2    3    3    0    0 -0.21157622128E+02  0.16432894274E+02 -0.10543617874E+03  0.13551356652E+03  0.80805036562E+02 0.  0.
         -6    2    1    2    0  502  0.12062151208E+03 -0.97965987904E+02  0.64698198725E+03  0.68423002873E+03  0.15949343697E+03 0.  0.
        -24    2    5    5    0    0  0.65274593223E+02 -0.72772818773E+01  0.42949118554E+03  0.44213074816E+03  0.81873003235E+02 0.  0.
          5    1    3    3  501    0 -0.99463889950E+02  0.81533093631E+02 -0.26845341689E+02  0.13146662364E+03  0.47000000000E+01 0. -1.
        -11    1    4    4    0    0 -0.49399936685E+01 -0.21450836835E+02  0.31743295240E+00  0.22014602019E+02  0.00000000000E+00 0.  1.
         12    1    4    4    0    0 -0.16217628460E+02  0.37883731109E+02 -0.10575361169E+03  0.11349896450E+03  0.00000000000E+00 0. -1.
         -5    1    5    5    0  502  0.55346918855E+02 -0.90688706027E+02  0.21749080171E+03  0.24209928057E+03  0.47000000000E+01 0.  1.
         11    1    6    6    0    0 -0.17455325243E+02 -0.88353109380E+01  0.49310535337E+02  0.53049787878E+02  0.00000000000E+00 0. -1.
        -12    1    6    6    0    0  0.82729918466E+02  0.15580290607E+01  0.38018065020E+03  0.38908096028E+03  0.00000000000E+00 0.  1.
</event>
<event>
12    1  0.8196217E-002  0.1820079E+03  0.7818608E-02  0.1167203E+00
         21   -1    0    0  503  502  0.00000000000E+00  0.00000000000E+00  0.15770363296E+03  0.15770363296E+03  0.00000000000E+00 0.  1.
         21   -1    0    0  501  503 -0.00000000000E+00 -0.00000000000E+00 -0.20382842397E+03  0.20382842397E+03  0.00000000000E+00 0.  1.
          6    2    1    2  501    0 -0.13982540260E+02 -0.35898913008E+02 -0.26292108627E+02  0.18389708228E+03  0.17788372187E+03 0.  0.
         24    2    3    3    0    0  0.65643451551E+02 -0.12973943420E+02  0.10382437934E+02  0.93161393775E+02  0.63983312928E+02 0.  0.
         -6    2    1    2    0  502  0.13982540260E+02  0.35898913008E+02 -0.19832682382E+02  0.17763497465E+03  0.17226899181E+03 0.  0.
        -24    2    5    5    0    0 -0.34522373825E+02 -0.19097805120E+02 -0.44976547148E+02  0.99971150180E+02  0.80092575311E+02 0.  0.
          5    1    3    3  501    0 -0.79625991811E+02 -0.22924969588E+02 -0.36674546561E+02  0.90735688502E+02  0.47000000000E+01 0. -1.
        -11    1    4    4    0    0 -0.17757315367E+01  0.81420832480E+01  0.20183414551E+02  0.21836138969E+02  0.00000000000E+00 0.  1.
         12    1    4    4    0    0  0.67419183088E+02 -0.21116026668E+02 -0.98009766175E+01  0.71325254806E+02  0.00000000000E+00 0. -1.
         -5    1    5    5    0  502  0.48504914085E+02  0.54996718128E+02  0.25143864766E+02  0.77663824466E+02  0.47000000000E+01 0.  1.
         13    1    6    6    0    0 -0.37778286880E+02 -0.43189645534E+02 -0.11375042018E+02  0.58497316364E+02  0.00000000000E+00 0. -1.
        -14    1    6    6    0    0  0.32559130543E+01  0.24091840414E+02 -0.33601505130E+02  0.41473833816E+02  0.00000000000E+00 0.  1.
</event>
<event>
12    1  0.8196217E-002  0.2005636E+03  0.7818608E-02  0.1152248E+00
         21   -1    0    0  501  502  0.00000000000E+00  0.00000000000E+00  0.16665661073E+03  0.16665661073E+03  0.00000000000E+00 0. -1.
         21   -1    0    0  502  503 -0.00000000000E+00 -0.00000000000E+00 -0.25930160605E+03  0.25930160605E+03  0.00000000000E+00 0.  1.
         -6    2    1    2    0  503  0.85042772459E+02 -0.56888519759E+02  0.32294246193E+02  0.18966271013E+03  0.15639836459E+03 0.  0.
        -24    2    3    3    0    0  0.22272458746E+02  0.23289529965E+02  0.14972501298E+02  0.86266555520E+02  0.78608384932E+02 0.  0.
          6    2    1    2  501    0 -0.85042772459E+02  0.56888519759E+02 -0.12493924151E+03  0.23629550665E+03  0.17250268278E+03 0.  0.
         24    2    5    5    0    0 -0.41515564241E+02  0.75843818962E+02 -0.14252891476E+03  0.18544860086E+03  0.81245708007E+02 0.  0.
          5    1    5    5  501    0 -0.43527208218E+02 -0.18955299203E+02  0.17589673249E+02  0.50846905788E+02  0.47000000000E+01 0. -1.
        -13    1    6    6    0    0 -0.45746349489E+02  0.23671006453E+02 -0.25988491112E+02  0.57692691984E+02  0.00000000000E+00 0.  1.
         14    1    6    6    0    0  0.42307852485E+01  0.52172812509E+02 -0.11654042365E+03  0.12775590888E+03  0.00000000000E+00 0. -1.
         -5    1    3    3    0  503  0.62770313713E+02 -0.80178049724E+02  0.17321744895E+02  0.10339615461E+03  0.47000000000E+01 0.  1.
         11    1    4    4    0    0  0.34745986659E+02  0.30036280968E+02  0.37738763911E+02  0.59444731178E+02  0.00000000000E+00 0. -1.
        -12    1    4    4    0    0 -0.12473527913E+02 -0.67467510027E+01 -0.22766262613E+02  0.26821824343E+02  0.00000000000E+00 0.  1.
</event>
<event>
12    1  0.8196217E-002  0.2706561E+03  0.7818608E-02  0.1101238E+00
         21   -1    0    0  501  502  0.00000000000E+00  0.00000000000E+00  0.14607034177E+03  0.14607034177E+03  0.00000000000E+00 0. -1.
         21   -1    0    0  502  503 -0.00000000000E+00 -0.00000000000E+00 -0.58347714723E+03  0.58347714723E+03  0.00000000000E+00 0.  1.
         -6    2    1    2    0  503  0.16211654710E+03 -0.13154255545E+03 -0.35977108871E+03  0.45021103214E+03  0.17224842075E+03 0.  0.
        -24    2    3    3    0    0  0.74741965832E+02 -0.53749187775E+01 -0.20496255502E+03  0.23217350762E+03  0.79244163650E+02 0.  0.
          6    2    1    2  501    0 -0.16211654710E+03  0.13154255545E+03 -0.77635716747E+02  0.27933645686E+03  0.16857144740E+03 0.  0.
         24    2    5    5    0    0 -0.15388401657E+03  0.15539267815E+03 -0.93139629952E+02  0.24935205698E+03  0.75327834661E+02 0.  0.
          5    1    5    5  501    0 -0.82325305268E+01 -0.23850122697E+02  0.15503913205E+02  0.29984399881E+02  0.47000000000E+01 0. -1.
        -13    1    6    6    0    0 -0.61197558965E+02  0.82999899841E+02 -0.80979855146E+02  0.13111773921E+03  0.00000000000E+00 0.  1.
         14    1    6    6    0    0 -0.92686457606E+02  0.72392778306E+02 -0.12159774806E+02  0.11823431777E+03  0.00000000000E+00 0. -1.
         -5    1    3    3    0  503  0.87374581266E+02 -0.12616763667E+03 -0.15480853368E+03  0.21803752451E+03  0.47000000000E+01 0.  1.
         11    1    4    4    0    0  0.91079775485E+02  0.20842632314E+01 -0.17126225746E+03  0.19398616055E+03  0.00000000000E+00 0. -1.
        -12    1    4    4    0    0 -0.16337809653E+02 -0.74591820089E+01 -0.33700297564E+02  0.38187347072E+02  0.00000000000E+00 0.  1.
</event>
<event>
12    1  0.8196217E-002  0.1894604E+03  0.7818608E-02  0.1159330E+00
         21   -1    0    0  501  502  0.00000000000E+00  0.00000000000E+00  0.29882264642E+02  0.29882264642E+02  0.00000000000E+00 0.  1.
         21   -1    0    0  502  503 -0.00000000000E+00 -0.00000000000E+00 -0.14251580227E+04  0.14251580227E+04  0.00000000000E+00 0.  1.
         -6    2    1    2    0  503  0.74681792637E+02  0.16147992615E+02 -0.99017715915E+03  0.10078265637E+04  0.17153847415E+03 0.  0.
        -24    2    3    3    0    0  0.41747430494E+02  0.37243465497E+02 -0.93508247464E+03  0.94009765221E+03  0.79211347895E+02 0.  0.
          6    2    1    2  501    0 -0.74681792637E+02 -0.16147992615E+02 -0.40509859890E+03  0.44721372366E+03  0.17336987047E+03 0.  0.
         24    2    5    5    0    0  0.10265316123E+02 -0.37617745390E+02 -0.28860785674E+03  0.30137427571E+03  0.77533783633E+02 0.  0.
          5    1    5    5  501    0 -0.84947108760E+02  0.21469752776E+02 -0.11649074215E+03  0.14583944795E+03  0.47000000000E+01 0. -1.
        -13    1    6    6    0    0 -0.31434879093E+02 -0.16617682750E+01 -0.11613414689E+03  0.12032478203E+03  0.00000000000E+00 0.  1.
         14    1    6    6    0    0  0.41700195216E+02 -0.35955977115E+02 -0.17247370986E+03  0.18104949368E+03  0.00000000000E+00 0. -1.
         -5    1    3    3    0  503  0.32934362144E+02 -0.21095472883E+02 -0.55094684507E+02  0.67728911455E+02  0.47000000000E+01 0.  1.
         13    1    4    4    0    0 -0.75352907498E-01 -0.22970033073E+02 -0.27449913750E+03  0.27545853515E+03  0.00000000000E+00 0. -1.
        -14    1    4    4    0    0  0.41822783401E+02  0.60213498570E+02 -0.66058333714E+03  0.66463911706E+03  0.00000000000E+00 0.  1.
</event>
<event>
12    1  0.8196217E-002  0.1859305E+03  0.7818608E-02  0.1162439E+00
         21   -1    0    0  503  502  0.00000000000E+00  0.00000000000E+00  0.16365950883E+03  0.16365950883E+03  0.00000000000E+00 0. -1.
         21   -1    0    0  501  503 -0.00000000000E+00 -0.00000000000E+00 -0.21178452706E+03  0.21178452706E+03  0.00000000000E+00 0. -1.
          6    2    1    2  501    0  0.32923408577E+02 -0.58714782216E+02 -0.41432511144E+02  0.19049099894E+03  0.17331702517E+03 0.  0.
         24    2    3    3    0    0 -0.26529021188E+02  0.18757076127E+02 -0.28141442821E+02  0.91823766602E+02  0.81142137259E+02 0.  0.
         -6    2    1    2    0  502 -0.32923408577E+02  0.58714782216E+02 -0.66925070828E+01  0.18495303695E+03  0.17213790908E+03 0.  0.
        -24    2    5    5    0    0  0.22945488758E+02 -0.20762123318E+02 -0.91093456196E+01  0.87660471399E+02  0.81509612005E+02 0.  0.
          5    1    3    3  501    0  0.59452429765E+02 -0.77471858343E+02 -0.13291068323E+02  0.98667232338E+02  0.47000000000E+01 0. -1.
        -11    1    4    4    0    0 -0.37086214878E+02 -0.16625208200E+02 -0.35745622319E+02  0.54125173410E+02  0.00000000000E+00 0.  1.
         12    1    4    4    0    0  0.10557193690E+02  0.35382284327E+02  0.76041794980E+01  0.37698593192E+02  0.00000000000E+00 0. -1.
         -5    1    5    5    0  502 -0.55868897336E+02  0.79476905534E+02  0.24168385369E+01  0.97292565550E+02  0.47000000000E+01 0.  1.
         11    1    6    6    0    0 -0.27252057601E+02 -0.74485162549E+01 -0.19978759364E+02  0.34602107792E+02  0.00000000000E+00 0. -1.
        -12    1    6    6    0    0  0.50197546359E+02 -0.13313607063E+02  0.10869413745E+02  0.53058363607E+02  0.00000000000E+00 0.  1.
</event>
<event>
12    1  0.8196217E-002  0.2334429E+03  0.7818608E-02  0.1125116E+00
         21   -1    0    0  503  502  0.00000000000E+00  0.00000000000E+00  0.64106212238E+02  0.64106212238E+02  0.00000000000E+00 0.  1.
         21   -1    0    0  501  503 -0.00000000000E+00 -0.00000000000E+00 -0.86056335727E+03  0.86056335727E+03  0.00000000000E+00 0.  1.
          6    2    1    2  501    0  0.11143709252E+03  0.10697360475E+03 -0.47840069868E+03  0.53013759289E+03  0.16827673993E+03 0.  0.
         24    2    3    3    0    0  0.16233861939E+02  0.14403725987E+00 -0.18675237014E+03  0.20524214950E+03  0.83572322902E+02 0.  0.
         -6    2    1    2    0  502 -0.11143709252E+03 -0.10697360475E+03 -0.31805644635E+03  0.39453197661E+03  0.17502571183E+03 0.  0.
        -24    2    5    5    0    0 -0.81643246032E+02  0.54584767544E+00 -0.11052106240E+03  0.15886031618E+03  0.79723128705E+02 0.  0.
          5    1    3    3  501    0  0.95203230578E+02  0.10682956749E+03 -0.29164832854E+03  0.32489544340E+03  0.47000000000E+01 0. -1.
        -11    1    4    4    0    0 -0.81977260007E+01  0.34448749105E+02 -0.44406268916E+02  0.56796441310E+02  0.00000000000E+00 0.  1.
         12    1    4    4    0    0  0.24431587939E+02 -0.34304711845E+02 -0.14234610123E+03  0.14844570818E+03  0.00000000000E+00 0. -1.
         -5    1    5    5    0  502 -0.29793846485E+02 -0.10751945243E+03 -0.20753538395E+03  0.23567166043E+03  0.47000000000E+01 0.  1.
         11    1    6    6    0    0 -0.45459996455E+01 -0.44300802621E+01 -0.72457385737E+02  0.72734891708E+02  0.00000000000E+00 0. -1.
        -12    1    6    6    0    0 -0.77097246387E+02  0.49759279375E+01 -0.38063676659E+02  0.86125424469E+02  0.00000000000E+00 0.  1.
</event>
<event>
12    1  0.8196217E-002  0.1734094E+03  0.7818608E-02  0.1174654E+00
         21   -1    0    0  501  502  0.00000000000E+00  0.00000000000E+00  0.16223663087E+04  0.16223663087E+04  0.00000000000E+00 0. -1.
         21   -1    0    0  502  503 -0.00000000000E+00 -0.00000000000E+00 -0.25592941657E+02  0.25592941657E+02  0.00000000000E+00 0. -1.
         -6    2    1    2    0  503  0.18632357097E+02  0.21784116645E+01  0.35960742425E+03  0.39869931627E+03  0.17114828370E+03 0.  0.
        -24    2    3    3    0    0 -0.20394996901E+02  0.54966346390E+02  0.27322334747E+03  0.29009913610E+03  0.77905430033E+02 0.  0.
          6    2    1    2  501    0 -0.18632357097E+02 -0.21784116645E+01  0.12371659428E+04  0.12492599341E+04  0.17239171294E+03 0.  0.
         24    2    5    5    0    0 -0.32722602615E+02 -0.55996622005E+02  0.52443077486E+03  0.53434144614E+03  0.79289047497E+02 0.  0.
          5    1    5    5  501    0  0.14090245518E+02  0.53818210341E+02  0.71273516792E+03  0.71491848792E+03  0.47000000000E+01 0. -1.
        -13    1    6    6    0    0 -0.55083895866E+02 -0.29184733115E+02  0.40972810554E+03  0.41444312601E+03  0.00000000000E+00 0.  1.
         14    1    6    6    0    0  0.22361293251E+02 -0.26811888890E+02  0.11470266931E+03  0.11989832013E+03  0.00000000000E+00 0. -1.
         -5    1    3    3    0  503  0.39027353998E+02 -0.52787934725E+02  0.86384076773E+02  0.10860018017E+03  0.47000000000E+01 0.  1.
         13    1    4    4    0    0 -0.63301471401E+01  0.14903418050E+02  0.28855011172E+01  0.16447150181E+02  0.00000000000E+00 0. -1.
        -14    1    4    4    0    0 -0.14064849761E+02  0.40062928340E+02  0.27033784636E+03  0.27365198592E+03  0.00000000000E+00 0.  1.
</event>
<event>
12    1  0.8196217E-002  0.1918512E+03  0.7818608E-02  0.1157259E+00
         21   -1    0    0  503  502  0.00000000000E+00  0.00000000000E+00  0.23179440650E+02  0.23179440650E+02  0.00000000000E+00 0.  1.
         21   -1    0    0  501  503 -0.00000000000E+00 -0.00000000000E+00 -0.15967890842E+04  0.15967890842E+04  0.00000000000E+00 0.  1.
          6    2    1    2  501    0  0.41958918284E+02 -0.72563650314E+02 -0.67989187461E+03  0.70589065745E+03  0.17030157057E+03 0.  0.
         24    2    3    3    0    0  0.60962471873E+02 -0.49996529992E+02 -0.24799142839E+03  0.27295821998E+03  0.82403672917E+02 0.  0.
         -6    2    1    2    0  502 -0.41958918284E+02  0.72563650314E+02 -0.89371776896E+03  0.91407786743E+03  0.17257132725E+03 0.  0.
        -24    2    5    5    0    0  0.41917750186E+01 -0.32358556532E+02 -0.22413272152E+03  0.23473643505E+03  0.61652817667E+02 0.  0.
          5    1    3    3  501    0 -0.19003553590E+02 -0.22567120322E+02 -0.43190044622E+03  0.43293243747E+03  0.47000000000E+01 0. -1.
        -11    1    4    4    0    0 -0.49252880228E+01 -0.72034270984E+01 -0.13531363296E+03  0.13559471630E+03  0.00000000000E+00 0.  1.
         12    1    4    4    0    0  0.65887759896E+02 -0.42793102893E+02 -0.11267779544E+03  0.13736350368E+03  0.00000000000E+00 0. -1.
         -5    1    5    5    0  502 -0.46150693302E+02  0.10492220685E+03 -0.66958504745E+03  0.67934143238E+03  0.47000000000E+01 0.  1.
         11    1    6    6    0    0  0.58131358703E+01 -0.47139479587E+02 -0.20539729691E+03  0.21081739175E+03  0.00000000000E+00 0. -1.
        -12    1    6    6    0    0 -0.16213608517E+01  0.14780923055E+02 -0.18735424606E+02  0.23919043302E+02  0.00000000000E+00 0.  1.
</event>
<event>
12    1  0.8196217E-002  0.2812585E+03  0.7818608E-02  0.1095043E+00
         21   -1    0    0  503  502  0.00000000000E+00  0.00000000000E+00  0.15541347650E+03  0.15541347650E+03  0.00000000000E+00 0.  1.
         21   -1    0    0  501  503 -0.00000000000E+00 -0.00000000000E+00 -0.73995794801E+03  0.73995794801E+03  0.00000000000E+00 0. -1.
          6    2    1    2  501    0 -0.17394883411E+03  0.13839217418E+03 -0.54256131197E+03  0.61099678900E+03  0.17185374063E+03 0.  0.
         24    2    3    3    0    0 -0.17570230606E+03  0.16175406290E+03 -0.52095149374E+03  0.57877991839E+03  0.80994184245E+02 0.  0.
         -6    2    1    2    0  502  0.17394883411E+03 -0.13839217418E+03 -0.41983159543E+02  0.28437463551E+03  0.17232456839E+03 0.  0.
        -24    2    5    5    0    0  0.12308174214E+03 -0.50445340375E+02 -0.83207999013E+02  0.17463091582E+03  0.76671624775E+02 0.  0.
          5    1    3    3  501    0  0.17534719554E+01 -0.23361888718E+02 -0.21609818222E+02  0.32216870610E+02  0.47000000000E+01 0. -1.
        -13    1    4    4    0    0  0.51189227640E+01  0.11504889732E+02 -0.91542835391E+01  0.15568133001E+02  0.00000000000E+00 0.  1.
         14    1    4    4    0    0 -0.18082122883E+03  0.15024917317E+03 -0.51179721020E+03  0.56321178539E+03  0.00000000000E+00 0. -1.
         -5    1    5    5    0  502  0.50867091970E+02 -0.87946833807E+02  0.41224839470E+02  0.10974371969E+03  0.47000000000E+01 0.  1.
         13    1    6    6    0    0  0.16565293549E+02  0.18248686999E+02 -0.25174523085E+02  0.35230386601E+02  0.00000000000E+00 0. -1.
        -14    1    6    6    0    0  0.10651644859E+03 -0.68694027373E+02 -0.58033475928E+02  0.13940052921E+03  0.00000000000E+00 0.  1.
</event>
<event>
12    1  0.8196217E-002  0.2197032E+03  0.7818608E-02  0.1134867E+00
         21   -1    0    0  503  502  0.00000000000E+00  0.00000000000E+00  0.88848794409E+02  0.88848794409E+02  0.00000000000E+00 0.  1.
         21   -1    0    0  501  503 -0.00000000000E+00 -0.00000000000E+00 -0.66294431827E+03  0.66294431827E+03  0.00000000000E+00 0.  1.
          6    2    1    2  501    0  0.37033765100E+02  0.12441762672E+03 -0.45111055777E+03  0.50000984807E+03  0.17221459646E+03 0.  0.
         24    2    3    3    0    0  0.53630423044E+02  0.15368936143E+03 -0.36914122724E+03  0.41127797861E+03  0.79923012668E+02 0.  0.
         -6    2    1    2    0  502 -0.37033765100E+02 -0.12441762672E+03 -0.12298496609E+03  0.25178326461E+03  0.17725198126E+03 0.  0.
        -24    2    5    5    0    0 -0.95351346398E+01  0.61337769640E+01 -0.73721677672E+02  0.10948496783E+03  0.80146930133E+02 0.  0.
          5    1    3    3  501    0 -0.16596657944E+02 -0.29271734711E+02 -0.81969330535E+02  0.88731869451E+02  0.47000000000E+01 0. -1.
        -11    1    4    4    0    0 -0.20333478305E+02  0.34406437558E+02 -0.64819999967E+02  0.76150414845E+02  0.00000000000E+00 0.  1.
         12    1    4    4    0    0  0.73963901349E+02  0.11928292388E+03 -0.30432122727E+03  0.33512756377E+03  0.00000000000E+00 0. -1.
         -5    1    5    5    0  502 -0.27498630460E+02 -0.13055140369E+03 -0.49263288420E+02  0.14229829678E+03  0.47000000000E+01 0.  1.
         11    1    6    6    0    0 -0.36293720035E+02 -0.46432433048E+01 -0.76364264600E+01  0.37377919036E+02  0.00000000000E+00 0. -1.
        -12    1    6    6    0    0  0.26758585395E+02  0.10777020269E+02 -0.66085251212E+02  0.72107048796E+02  0.00000000000E+00 0.  1.
</event>
<event>
12    1  0.8196217E-002  0.2869059E+03  0.7818608E-02  0.1092945E+00
         21   -1    0    0  501  502  0.00000000000E+00  0.00000000000E+00  0.77651648299E+02  0.77651648299E+02  0.00000000000E+00 0.  1.
         21   -1    0    0  502  503 -0.00000000000E+00 -0.00000000000E+00 -0.13168575085E+04  0.13168575085E+04  0.00000000000E+00 0. -1.
         -6    2    1    2    0  503  0.19650282687E+03  0.11676402473E+03 -0.93679758530E+03  0.97765693414E+03  0.16117123379E+03 0.  0.
        -24    2    3    3    0    0  0.17546475009E+03  0.54462154828E+02 -0.62765011948E+03  0.66155826396E+03  0.99803102610E+02 0.  0.
          6    2    1    2  501    0 -0.19650282687E+03 -0.11676402473E+03 -0.30240827490E+03  0.41685222266E+03  0.17340072771E+03 0.  0.
         24    2    5    5    0    0 -0.19403170615E+03 -0.51373857847E+02 -0.18493489370E+03  0.28230087316E+03  0.72147708327E+02 0.  0.
          5    1    5    5  501    0 -0.24711207184E+01 -0.65390166883E+02 -0.11747338120E+03  0.13455134950E+03  0.47000000000E+01 0. -1.
        -11    1    6    6    0    0 -0.93706248248E+02  0.12175194112E+02 -0.84588480836E+02  0.12682392283E+03  0.00000000000E+00 0.  1.
         12    1    6    6    0    0 -0.10032545790E+03 -0.63549051959E+02 -0.10034641286E+03  0.15547695032E+03  0.00000000000E+00 0. -1.
         -5    1    3    3    0  503  0.21038076776E+02  0.62301869902E+02 -0.30914746582E+03  0.31609867018E+03  0.47000000000E+01 0.  1.
         11    1    4    4    0    0  0.63463323030E+02  0.71704281054E+02 -0.28957100608E+03  0.30499256524E+03  0.00000000000E+00 0. -1.
        -12    1    4    4    0    0  0.11200142706E+03 -0.17242126225E+02 -0.33807911340E+03  0.35656569871E+03  0.00000000000E+00 0.  1.
</event>
<event>
12    1  0.8196217E-002  0.1818055E+03  0.7818608E-02  0.1166384E+00
         21   -1    0    0  503  502  0.00000000000E+00  0.00000000000E+00  0.78695190381E+03  0.78695190381E+03  0.00000000000E+00 0.  1.
         21   -1    0    0  501  503 -0.00000000000E+00 -0.00000000000E+00 -0.23615370482E+03  0.23615370482E+03  0.00000000000E+00 0.  1.
          6    2    1    2  501    0 -0.41298949963E+02  0.35362854926E+02 -0.18897823635E+03  0.26131665008E+03  0.17209730682E+03 0.  0.
         24    2    3    3    0    0 -0.88401203605E+01  0.38211770979E+02 -0.20613272292E+03  0.22419444175E+03  0.78956703841E+02 0.  0.
         -6    2    1    2    0  502  0.41298949963E+02 -0.35362854926E+02  0.73977643534E+03  0.76178895855E+03  0.17348518178E+03 0.  0.
        -24    2    5    5    0    0  0.22119941228E+02  0.47566566838E+02  0.38694721001E+03  0.39880731215E+03  0.81038625427E+02 0.  0.
          5    1    3    3  501    0 -0.32458829602E+02 -0.28489160522E+01  0.17154486570E+02  0.37122208330E+02  0.47000000000E+01 0. -1.
        -11    1    4    4    0    0 -0.11299455263E+02  0.62539091491E+02 -0.14267321060E+03  0.15618726157E+03  0.00000000000E+00 0.  1.
         12    1    4    4    0    0  0.24593349025E+01 -0.24327320512E+02 -0.63459512327E+02  0.68007180181E+02  0.00000000000E+00 0. -1.
         -5    1    5    5    0  502  0.19179008734E+02 -0.82929421764E+02  0.35282922534E+03  0.36298164640E+03  0.47000000000E+01 0.  1.
         13    1    6    6    0    0  0.49137183528E+02  0.44430232876E+02  0.31500354307E+03  0.32189398961E+03  0.00000000000E+00 0. -1.
        -14    1    6    6    0    0 -0.27017242300E+02  0.31363339616E+01  0.71943666938E+02  0.76913322543E+02  0.00000000000E+00 0.  1.
</event>
<event>
12    1  0.8196217E-002  0.1942005E+03  0.7818608E-02  0.1154955E+00
         21   -1    0    0  503  502  0.00000000000E+00  0.00000000000E+00  0.76701133590E+03  0.76701133590E+03  0.00000000000E+00 0.  1.
         21   -1    0    0  501  503 -0.00000000000E+00 -0.00000000000E+00 -0.50244564206E+02  0.50244564206E+02  0.00000000000E+00 0.  1.
          6    2    1    2  501    0  0.38811887972E+02  0.80120319757E+02  0.42599266599E+03  0.46817046571E+03  0.17259259893E+03 0.  0.
         24    2    3    3    0    0  0.13270717511E+02  0.50766332648E+02  0.92918825647E+02  0.13279861080E+03  0.79045748762E+02 0.  0.
         -6    2    1    2    0  502 -0.38811887972E+02 -0.80120319757E+02  0.29077410570E+03  0.34908543439E+03  0.17142179462E+03 0.  0.
        -24    2    5    5    0    0 -0.16337176255E+02  0.66091953908E+01  0.22041206118E+03  0.23506776570E+03  0.79779652568E+02 0.  0.
          5    1    3    3  501    0  0.25541170461E+02  0.29353987109E+02  0.33307384034E+03  0.33537185491E+03  0.47000000000E+01 0. -1.
        -13    1    4    4    0    0 -0.39683410355E+01  0.66612067722E+02  0.85034681356E+02  0.10809168483E+03  0.00000000000E+00 0.  1.
         14    1    4    4    0    0  0.17239058546E+02 -0.15845735074E+02  0.78841442908E+01  0.24706925968E+02  0.00000000000E+00 0. -1.
         -5    1    5    5    0  502 -0.22474711717E+02 -0.86729515148E+02  0.70362044518E+02  0.11401766869E+03  0.47000000000E+01 0.  1.
         13    1    6    6    0    0  0.16077510501E+02  0.31910852373E+02  0.63562595257E+02  0.72917709501E+02  0.00000000000E+00 0. -1.
        -14    1    6    6    0    0 -0.32414686756E+02 -0.25301656982E+02  0.15684946593E+03  0.16215005620E+03  0.00000000000E+00 0.  1.
</event>
<event>
12    1  0.8196217E-002  0.2360999E+03  0.7818608E-02  0.1122643E+00
         21   -1    0    0  501  502  0.00000000000E+00  0.00000000000E+00  0.13759538801E+03  0.13759538801E+03  0.00000000000E+00 0.  1.
         21   -1    0    0  502  503 -0.00000000000E+00 -0.00000000000E+00 -0.45068525071E+03  0.45068525071E+03  0.00000000000E+00 0. -1.
         -6    2    1    2    0  503 -0.11861455767E+03  0.10751239577E+03 -0.25195980931E+03  0.34439532446E+03  0.17174418613E+03 0.  0.
        -24    2    3    3    0    0 -0.74683893954E+02  0.12518530758E+03 -0.12212448784E+03  0.20611468327E+03  0.79497338824E+02 0.  0.
          6    2    1    2  501    0  0.11861455767E+03 -0.10751239577E+03 -0.61130053397E+02  0.24388531425E+03  0.17353626291E+03 0.  0.
         24    2    5    5    0    0  0.22782173261E+02 -0.11234455509E+03 -0.28271116718E+02  0.14235209119E+03  0.79526947325E+02 0.  0.
          5    1    5    5  501    0  0.95832384408E+02  0.48321593217E+01 -0.32858936678E+02  0.10153322306E+03  0.47000000000E+01 0. -1.
        -13    1    6    6    0    0  0.44866135308E+02 -0.10670490944E+03 -0.17240467491E+02  0.11703051531E+03  0.00000000000E+00 0.  1.
         14    1    6    6    0    0 -0.22083962046E+02 -0.56396456504E+01 -0.11030649227E+02  0.25321575881E+02  0.00000000000E+00 0. -1.
         -5    1    3    3    0  503 -0.43930663716E+02 -0.17672911818E+02 -0.12983532147E+03  0.13828064119E+03  0.47000000000E+01 0.  1.
         11    1    4    4    0    0 -0.27536746749E+02  0.81307130948E+02 -0.11169133640E+03  0.14086900508E+03  0.00000000000E+00 0. -1.
        -12    1    4    4    0    0 -0.47147147204E+02  0.43878176636E+02 -0.10433151438E+02  0.65245678196E+02  0.00000000000E+00 0.  1.
</event>
<event>
12    1  0.8196217E-002  0.1992417E+03  0.7818608E-02  0.1150770E+00
         21   -1    0    0  501  502  0.00000000000E+00  0.00000000000E+00  0.56879135174E+03  0.56879135174E+03  0.00000000000E+00 0. -1.
         21   -1    0    0  502  503 -0.00000000000E+00 -0.00000000000E+00 -0.98805242826E+02  0.98805242826E+02  0.00000000000E+00 0. -1.
         -6    2    1    2    0  503  0.38356132709E+02  0.89770719228E+02  0.52892740688E+02  0.20614286274E+03  0.17368725599E+03 0.  0.
        -24    2    3    3    0    0 -0.17426778803E+02 -0.93832277097E+01  0.38728576182E+02  0.91399880530E+02  0.80388419353E+02 0.  0.
          6    2    1    2  501    0 -0.38356132709E+02 -0.89770719228E+02  0.41709336822E+03  0.46145373182E+03  0.17158873463E+03 0.  0.
         24    2    5    5    0    0 -0.24420678745E+02  0.22388212858E+02  0.15304717592E+03  0.17419721825E+03  0.76312719528E+02 0.  0.
          5    1    5    5  501    0 -0.13935453964E+02 -0.11215893209E+03  0.26404619230E+03  0.28725651358E+03  0.47000000000E+01 0. -1.
        -13    1    6    6    0    0  0.12722851535E+02  0.57404874498E+01  0.12253389617E+03  0.12332631454E+03  0.00000000000E+00 0.  1.
         14    1    6    6    0    0 -0.37143530280E+02  0.16647725408E+02  0.30513279757E+02  0.50870903712E+02  0.00000000000E+00 0. -1.
         -5    1    3    3    0  503  0.55782911512E+02  0.99153946938E+02  0.14164164505E+02  0.11474298221E+03  0.47000000000E+01 0.  1.
         11    1    4    4    0    0  0.27176657188E+02  0.15843628944E+02  0.12693851928E+02  0.33922339996E+02  0.00000000000E+00 0. -1.
        -12    1    4    4    0    0 -0.44603435991E+02 -0.25226856653E+02  0.26034724254E+02  0.57477540534E+02  0.00000000000E+00 0.  1.
</event>
<event>
12    1  0.8196217E-002  0.2242725E+03  0.7818608E-02  0.1132410E+00
         21   -1    0    0  501  502  0.00000000000E+00  0.00000000000E+00  0.19768328200E+03  0.19768328200E+03  0.00000000000E+00 0. -1.
         21   -1    0    0  502  503 -0.00000000000E+00 -0.00000000000E+00 -0.31366122044E+03  0.31366122044E+03  0.00000000000E+00 0.  1.
         -6    2    1    2    0  503 -0.10352339754E+03 -0.97307143695E+02 -0.17910188655E+03  0.28701153008E+03  0.17352912891E+03 0.  0.
        -24    2    3    3    0    0  0.33581312255E+01 -0.79706132854E+02 -0.75083858540E+02  0.13676074996E+03  0.81863131246E+02 0.  0.
          6    2    1    2  501    0  0.10352339754E+03  0.97307143695E+02  0.63123948117E+02  0.22433297236E+03  0.16172469079E+03 0.  0.
         24    2    5    5    0    0  0.13305184702E+03  0.57664044851E+02  0.47450719855E+02  0.17226335839E+03  0.79969730309E+02 0.  0.
          5    1    5    5  501    0 -0.29528449484E+02  0.39643098843E+02  0.15673228262E+02  0.52069613970E+02  0.47000000000E+01 0. -1.
        -13    1    6    6    0    0  0.11310900653E+03  0.31845756824E+02  0.35398148836E+01  0.11755989910E+03  0.00000000000E+00 0.  1.
         14    1    6    6    0    0  0.19942840487E+02  0.25818288028E+02  0.43910904971E+02  0.54703459294E+02  0.00000000000E+00 0. -1.
         -5    1    3    3    0  503 -0.10688152876E+03 -0.17601010840E+02 -0.10401802801E+03  0.15025078011E+03  0.47000000000E+01 0.  1.
         13    1    4    4    0    0 -0.18577310450E+02 -0.49423050050E+02 -0.83160110151E+02  0.98505625525E+02  0.00000000000E+00 0. -1.
        -14    1    4    4    0    0  0.21935441676E+02 -0.30283082805E+02  0.80762516114E+01  0.38255124438E+02  0.00000000000E+00 0.  1.
</event>
<event>
12    1  0.8196217E-002  0.2391414E+03  0.7818608E-02  0.1120459E+00
         21   -1    0    0  501  502  0.00000000000E+00  0.00000000000E+00  0.56717240766E+03  0.56717240766E+03  0.00000000000E+00 0. -1.
         21   -1    0    0  502  503 -0.00000000000E+00 -0.00000000000E+00 -0.15721853818E+03  0.15721853818E+03  0.00000000000E+00 0. -1.
         -6    2    1    2    0  503  0.14490824643E+03  0.81425149057E+02 -0.12231157720E+02  0.23945396485E+03  0.17193064090E+03 0.  0.
        -24    2    3    3    0    0  0.40764753726E+02  0.22427151635E+02 -0.74034930451E+02  0.10466365698E+03  0.57520152019E+02 0.  0.
          6    2    1    2  501    0 -0.14490824643E+03 -0.81425149057E+02  0.42218502720E+03  0.48493698100E+03  0.17115847499E+03 0.  0.
         24    2    5    5    0    0 -0.41604167054E+02  0.30605744120E+01  0.84579890304E+02  0.12188204198E+03  0.77208810899E+02 0.  0.
          5    1    5    5  501    0 -0.10330407938E+03 -0.84485723469E+02  0.33760513690E+03  0.36305493902E+03  0.47000000000E+01 0. -1.
        -11    1    6    6    0    0 -0.34500246500E+01  0.15169933787E+02  0.80106491271E+02  0.81603183179E+02  0.00000000000E+00 0.  1.
         12    1    6    6    0    0 -0.38154142404E+02 -0.12109359375E+02  0.44733990333E+01  0.40278858797E+02  0.00000000000E+00 0. -1.
         -5    1    3    3    0  503  0.10414349271E+03  0.58997997422E+02  0.61803772731E+02  0.13479030787E+03  0.47000000000E+01 0.  1.
         13    1    4    4    0    0  0.20998735553E+02 -0.10999699543E+01  0.34495539014E+01  0.21308595704E+02  0.00000000000E+00 0. -1.
        -14    1    4    4    0    0  0.19766018172E+02  0.23527121590E+02 -0.77484484353E+02  0.83355061275E+02  0.00000000000E+00 0.  1.
</event>
<event>
12    1  0.8196217E-002  0.2252883E+03  0.7818608E-02  0.1130243E+00
         21   -1    0    0  501  502  0.00000000000E+00  0.00000000000E+00  0.10193285422E+04  0.10193285422E+04  0.00000000000E+00 0. -1.
         21   -1    0    0  502  503 -0.00000000000E+00 -0.00000000000E+00 -0.65730530856E+02  0.65730530856E+02  0.00000000000E+00 0. -1.
         -6    2    1    2    0  503 -0.63016015670E+02  0.13048658140E+03  0.74747281242E+03  0.78068586591E+03  0.17250231816E+03 0.  0.
        -24    2    3    3    0    0  0.21661471061E+02  0.67981390906E+02  0.23022133887E+03  0.25281433562E+03  0.76305534449E+02 0.  0.
          6    2    1    2  501    0  0.63016015670E+02 -0.13048658140E+03  0.20612519891E+03  0.30437320714E+03  0.17075621639E+03 0.  0.
         24    2    5    5    0    0  0.15157631502E+02 -0.30818433977E+02  0.67498198338E+02  0.12699310725E+03  0.10193975105E+03 0.  0.
          5    1    5    5  501    0  0.47858384168E+02 -0.99668147427E+02  0.13862700058E+03  0.17738009989E+03  0.47000000000E+01 0. -1.
        -11    1    6    6    0    0  0.56393678254E+02 -0.23895044393E+01  0.26934648863E+02  0.62541442163E+02  0.00000000000E+00 0.  1.
         12    1    6    6    0    0 -0.41236046752E+02 -0.28428929538E+02  0.40563549475E+02  0.64451665087E+02  0.00000000000E+00 0. -1.
         -5    1    3    3    0  503 -0.84677486731E+02  0.62505190497E+02  0.51725147356E+03  0.52787153029E+03  0.47000000000E+01 0.  1.
         11    1    4    4    0    0  0.39126487618E+02  0.68360647373E+02  0.21715677230E+03  0.23100026818E+03  0.00000000000E+00 0. -1.
        -12    1    4    4    0    0 -0.17465016557E+02 -0.37925646698E+00  0.13064566568E+02  0.21814067443E+02  0.00000000000E+00 0.  1.
</event>
<event>
12    1  0.8196217E-002  0.2312385E+03  0.7818608E-02  0.1126022E+00
         21   -1    0    0  501  502  0.00000000000E+00  0.00000000000E+00  0.23247426271E+03  0.23247426271E+03  0.00000000000E+00 0. -1.
         21   -1    0    0  502  503 -0.00000000000E+00 -0.00000000000E+00 -0.28578606754E+03  0.28578606754E+03  0.00000000000E+00 0.  1.
         -6    2    1    2    0  503 -0.38599319347E+02 -0.14822384547E+03 -0.14265053098E+03  0.27169911150E+03  0.17323688228E+03 0.  0.
        -24    2    3    3    0    0  0.14517239640E+02 -0.13545784717E+02 -0.23607902471E+02  0.84208348293E+02  0.78354797765E+02 0.  0.
          6    2    1    2  501    0  0.38599319347E+02  0.14822384547E+03  0.89338726155E+02  0.24656121875E+03  0.17132078327E+03 0.  0.
         24    2    5    5    0    0 -0.95134466038E+01  0.27609602377E+02  0.79264964221E+02  0.11623008447E+03  0.79835469387E+02 0.  0.
          5    1    5    5  501    0  0.48112765951E+02  0.12061424309E+03  0.10073761934E+02  0.13033113428E+03  0.47000000000E+01 0. -1.
        -13    1    6    6    0    0 -0.16529215361E+01 -0.10543380008E+02 -0.12561385411E+02  0.16482821817E+02  0.00000000000E+00 0.  1.
         14    1    6    6    0    0 -0.78605250677E+01  0.38152982384E+02  0.91826349632E+02  0.99747262649E+02  0.00000000000E+00 0. -1.
         -5    1    3    3    0  503 -0.53116558987E+02 -0.13467806075E+03 -0.11904262851E+03  0.18749076321E+03  0.47000000000E+01 0.  1.
         11    1    4    4    0    0 -0.24261657788E+02  0.11875904289E+02 -0.26380064387E+02  0.37756760168E+02  0.00000000000E+00 0. -1.
        -12    1    4    4    0    0  0.38778897428E+02 -0.25421689006E+02  0.27721619155E+01  0.46451588125E+02  0.00000000000E+00 0.  1.
</event>
<event>
12    1  0.8196217E-002  0.1788899E+03  0.7818608E-02  0.1169275E+00
         21   -1    0    0  501  502  0.00000000000E+00  0.00000000000E+00  0.38877832219E+02  0.38877832219E+02  0.00000000000E+00 0.  1.
         21   -1    0    0  502  503 -0.00000000000E+00 -0.00000000000E+00 -0.81581153443E+03  0.81581153443E+03  0.00000000000E+00 0.  1.
         -6    2    1    2    0  503 -0.45299611165E+02  0.55270780757E+01 -0.38383270675E+03  0.42279817958E+03  0.17131301912E+03 0.  0.
        -24    2    3    3    0    0 -0.30175033655E+02  0.70370467349E+02 -0.24590368223E+03  0.26956657780E+03  0.79592610230E+02 0.  0.
          6    2    1    2  501    0  0.45299611165E+02 -0.55270780757E+01 -0.39310099545E+03  0.43189118706E+03  0.17297110011E+03 0.  0.
         24    2    5    5    0    0 -0.12880309376E+02 -0.49754980819E+01 -0.35146604578E+03  0.36019204879E+03  0.77583972097E+02 0.  0.
          5    1    5    5  501    0  0.58179920540E+02 -0.55157999374E+00 -0.41634949675E+02  0.71699138272E+02  0.47000000000E+01 0. -1.
        -13    1    6    6    0    0 -0.13878334721E+02  0.33174686063E+02 -0.23222398961E+03  0.23499180692E+03  0.00000000000E+00 0.  1.
         14    1    6    6    0    0  0.99802534556E+00 -0.38150184145E+02 -0.11924205617E+03  0.12520024187E+03  0.00000000000E+00 0. -1.
         -5    1    3    3    0  503 -0.15124577510E+02 -0.64843389274E+02 -0.13792902452E+03  0.15323160178E+03  0.47000000000E+01 0.  1.
         11    1    4    4    0    0 -0.20147772115E+02  0.21911636492E+02 -0.19956320531E+03  0.20177097276E+03  0.00000000000E+00 0. -1.
        -12    1    4    4    0    0 -0.10027261539E+02  0.48458830857E+02 -0.46340476922E+02  0.67795605045E+02  0.00000000000E+00 0.  1.
</event>
<event>
12    1  0.8196217E-002  0.2134792E+03  0.7818608E-02  0.1139121E+00
         21   -1    0    0  501  502  0.00000000000E+00  0.00000000000E+00  0.12490571020E+03  0.12490571020E+03  0.00000000000E+00 0. -1.
         21   -1    0    0  502  503 -0.00000000000E+00 -0.00000000000E+00 -0.69339104355E+03  0.69339104355E+03  0.00000000000E+00 0. -1.
         -6    2    1    2    0  503 -0.96399524397E+02  0.78433719502E+02 -0.56642064847E+03  0.60480754355E+03  0.17179958399E+03 0.  0.
        -24    2    3    3    0    0 -0.25495642518E+02 -0.19952911597E+02 -0.30778963331E+03  0.31911648375E+03  0.77799263241E+02 0.  0.
          6    2    1    2  501    0  0.96399524397E+02 -0.78433719502E+02 -0.20646848782E+01  0.21348921019E+03  0.17357610229E+03 0.  0.
         24    2    5    5    0    0  0.57409849320E+02 -0.25738130209E+01 -0.55162788809E+02  0.11290880049E+03  0.80018426923E+02 0.  0.
          5    1    5    5  501    0  0.38989675077E+02 -0.75859906481E+02  0.53098103931E+02  0.10058040970E+03  0.47000000000E+01 0. -1.
        -11    1    6    6    0    0  0.56598989412E+02  0.16432468054E+02 -0.48684486636E+01  0.59136903886E+02  0.00000000000E+00 0.  1.
         12    1    6    6    0    0  0.81085990819E+00 -0.19006281075E+02 -0.50294340146E+02  0.53771896608E+02  0.00000000000E+00 0. -1.
         -5    1    3    3    0  503 -0.70903881879E+02  0.98386631099E+02 -0.25863101516E+03  0.28569105980E+03  0.47000000000E+01 0.  1.
         11    1    4    4    0    0 -0.38526261502E+02 -0.95281119712E+01 -0.67904572092E+02  0.78651691997E+02  0.00000000000E+00 0. -1.
        -12    1    4    4    0    0  0.13030618984E+02 -0.10424799626E+02 -0.23988506122E+03  0.24046479175E+03  0.00000000000E+00 0.  1.
</event>
<event>
12    1  0.8196217E-002  0.2086729E+03  0.7818608E-02  0.1142731E+00
         21   -1    0    0  503  502  0.00000000000E+00  0.00000000000E+00  0.10803379190E+03  0.10803379190E+03  0.00000000000E+00 0. -1.
         21   -1    0    0  501  503 -0.00000000000E+00 -0.00000000000E+00 -0.48819451686E+03  0.48819451686E+03  0.00000000000E+00 0. -1.
          6    2    1    2  501    0 -0.11689240981E+03  0.12000971014E+02 -0.31554713872E+03  0.37830458665E+03  0.17244275791E+03 0.  0.
         24    2    3    3    0    0 -0.14772586872E+03  0.28030492390E+02 -0.23792536386E+03  0.29312901694E+03  0.81899334624E+02 0.  0.
         -6    2    1    2    0  502  0.11689240981E+03 -0.12000971014E+02 -0.64613586243E+02  0.21792372211E+03  0.17177885305E+03 0.  0.
        -24    2    5    5    0    0  0.90967098460E+02 -0.74282034840E+02 -0.39171545462E+02  0.14567110888E+03  0.76764759397E+02 0.  0.
          5    1    3    3  501    0  0.30833458912E+02 -0.16029521376E+02 -0.77621774854E+02  0.85175569710E+02  0.47000000000E+01 0. -1.
        -11    1    4    4    0    0 -0.13571723750E+03  0.51087339620E+02 -0.19635215388E+03  0.24409681104E+03  0.00000000000E+00 0.  1.
         12    1    4    4    0    0 -0.12008631221E+02 -0.23056847230E+02 -0.41573209976E+02  0.49032205903E+02  0.00000000000E+00 0. -1.
         -5    1    5    5    0  502  0.25925311348E+02  0.62281063826E+02 -0.25442040781E+02  0.72252613232E+02  0.47000000000E+01 0.  1.
         13    1    6    6    0    0 -0.13007453671E+02 -0.13761028945E+01 -0.61848163428E+01  0.14468568118E+02  0.00000000000E+00 0. -1.
        -14    1    6    6    0    0  0.10397455213E+03 -0.72905931945E+02 -0.32986729119E+02  0.13120254076E+03  0.00000000000E+00 0.  1.
</event>
<event>
12    1  0.8196217E-002  0.1737186E+03  0.7818608E-02  0.1174034E+00
         21   -1    0    0  501  502  0.00000000000E+00  0.00000000000E+00  0.10646462316E+03  0.10646462316E+03  0.00000000000E+00 0.  1.
         21   -1    0    0  502  503 -0.00000000000E+00 -0.00000000000E+00 -0.55570798685E+03  0.55570798685E+03  0.00000000000E+00 0.  1.
         -6    2    1    2    0  503 -0.33152571464E+02 -0.32856067266E+01 -0.45640223475E+03  0.48834530419E+03  0.17049412902E+03 0.  0.
        -24    2    3    3    0    0  0.86236243892E+01 -0.58947083105E+02 -0.33277715042E+03  0.34639918072E+03  0.75515793416E+02 0.  0.
          6    2    1    2  501    0  0.33152571464E+02  0.32856067266E+01  0.71588710639E+01  0.17382730582E+03  0.17045467024E+03 0.  0.
         24    2    5    5    0    0 -0.20107900516E+02 -0.38940883709E+02  0.58744533179E+02  0.88370153364E+02  0.49372499835E+02 0.  0.
          5    1    5    5  501    0  0.53260471980E+02  0.42226490436E+02 -0.51585662115E+02  0.85457152456E+02  0.47000000000E+01 0. -1.
        -13    1    6    6    0    0  0.11023544640E+02 -0.84328907900E-01  0.27403392781E+02  0.29537629961E+02  0.00000000000E+00 0.  1.
         14    1    6    6    0    0 -0.31131445156E+02 -0.38856554802E+02  0.31341140397E+02  0.58832523403E+02  0.00000000000E+00 0. -1.
         -5    1    3    3    0  503 -0.41776195853E+02  0.55661476378E+02 -0.12362508433E+03  0.14194612347E+03  0.47000000000E+01 0.  1.
         13    1    4    4    0    0  0.30105174924E+02  0.32329063889E+01 -0.11313843425E+03  0.11711993231E+03  0.00000000000E+00 0. -1.
        -14    1    4    4    0    0 -0.21481550535E+02 -0.62179989494E+02 -0.21963871617E+03  0.22927924840E+03  0.00000000000E+00 0.  1.
</event>
<event>
12    1  0.8196217E-002  0.3446036E+03  0.7818608E-02  0.1064889E+00
         21   -1    0    0  503  502  0.00000000000E+00  0.00000000000E+00  0.57776437867E+03  0.57776437867E+03  0.00000000000E+00 0.  1.
         21   -1    0    0  501  503 -0.00000000000E+00 -0.00000000000E+00 -0.28957341567E+03  0.28957341567E+03  0.00000000000E+00 0.  1.
          6    2    1    2  501    0 -0.19288359264E+03 -0.22756968869E+03 -0.89872942898E+02  0.35578725508E+03  0.17180041180E+03 0.  0.
         24    2    3    3    0    0 -0.14099808258E+03 -0.20569636649E+03 -0.12425973356E+03  0.28964279386E+03  0.79126557967E+02 0.  0.
         -6    2    1    2    0  502  0.19288359264E+03  0.22756968869E+03  0.37806390590E+03  0.51155053926E+03  0.17250969179E+03 0.  0.
        -24    2    5    5    0    0  0.13275713263E+03  0.12359590644E+03  0.32081068901E+03  0.37841241764E+03  0.85883964059E+02 0.  0.
          5    1    3    3  501    0 -0.51885510051E+02 -0.21873322201E+02  0.34386790661E+02  0.66144461215E+02  0.47000000000E+01 0. -1.
        -11    1    4    4    0    0 -0.86950000421E+01 -0.17165892867E+02 -0.40009128208E+02  0.44395959767E+02  0.00000000000E+00 0.  1.
         12    1    4    4    0    0 -0.13230308254E+03 -0.18853047362E+03 -0.84250605351E+02  0.24524683410E+03  0.00000000000E+00 0. -1.
         -5    1    5    5    0  502  0.60126460004E+02  0.10397378225E+03  0.57253216884E+02  0.13313812163E+03  0.47000000000E+01 0.  1.
         13    1    6    6    0    0  0.31425638962E+02 -0.21884932119E+01  0.21000510180E+02  0.37860027926E+02  0.00000000000E+00 0. -1.
        -14    1    6    6    0    0  0.10133149367E+03  0.12578439965E+03  0.29981017883E+03  0.34055238971E+03  0.00000000000E+00 0.  1.
</event>
<event>
12    1  0.8196217E-002  0.1868246E+03  0.7818608E-02  0.1161934E+00
         21   -1    0    0  501  502  0.00000000000E+00  0.00000000000E+00  0.71964112972E+02  0.71964112972E+02  0.00000000000E+00 0. -1.
         21   -1    0    0  502  503 -0.00000000000E+00 -0.00000000000E+00 -0.73544640275E+03  0.73544640275E+03  0.00000000000E+00 0. -1.
         -6    2    1    2    0  503  0.51441820933E+02  0.40133145990E+02 -0.57176843036E+03  0.60151688331E+03  0.17506139665E+03 0.  0.
        -24    2    3    3    0    0  0.53115087978E+02 -0.40737777385E+02 -0.39701774259E+03  0.40889601490E+03  0.71358839616E+02 0.  0.
          6    2    1    2  501    0 -0.51441820933E+02 -0.40133145990E+02 -0.91713859412E+02  0.20589363241E+03  0.17240599036E+03 0.  0.
         24    2    5    5    0    0 -0.76922408245E+02 -0.15480919339E+02 -0.11666532731E+03  0.16228562444E+03  0.81050043486E+02 0.  0.
          5    1    5    5  501    0  0.25480587312E+02 -0.24652226651E+02  0.24951467902E+02  0.43608007970E+02  0.47000000000E+01 0. -1.
        -11    1    6    6    0    0 -0.24687248681E+01  0.22445448373E+02 -0.51794932767E+02  0.56503166420E+02  0.00000000000E+00 0.  1.
         12    1    6    6    0    0 -0.74453683377E+02 -0.37926367712E+02 -0.64870394547E+02  0.10578245802E+03  0.00000000000E+00 0. -1.
         -5    1    3    3    0  503 -0.16732670448E+01  0.80870923375E+02 -0.17475068777E+03  0.19262086841E+03  0.47000000000E+01 0.  1.
         11    1    4    4    0    0 -0.79448182678E+01 -0.46864356504E+01 -0.18706724550E+03  0.18729451983E+03  0.00000000000E+00 0. -1.
        -12    1    4    4    0    0  0.61059906246E+02 -0.36051341735E+02 -0.20995049709E+03  0.22160149507E+03  0.00000000000E+00 0.  1.
</event>
<event>
12    1  0.8196217E-002  0.2165482E+03  0.7818608E-02  0.1137018E+00
         21   -1    0    0  503  502  0.00000000000E+00  0.00000000000E+00  0.46145599194E+03  0.46145599194E+03  0.00000000000E+00 0.  1.
         21   -1    0    0  501  503 -0.00000000000E+00 -0.00000000000E+00 -0.13117729634E+03  0.13117729634E+03  0.00000000000E+00 0.  1.
          6    2    1    2  501    0 -0.23471064853E+02  0.12896245705E+03  0.20590952891E+02  0.21474490596E+03  0.16884661999E+03 0.  0.
         24    2    3    3    0    0  0.17321062821E+01  0.62110077714E+02 -0.53962758176E+02  0.11137766602E+03  0.75048939186E+02 0.  0.
         -6    2    1    2    0  502  0.23471064853E+02 -0.12896245705E+03  0.30968774272E+03  0.37788838232E+03  0.17236857396E+03 0.  0.
        -24    2    5    5    0    0  0.27955959315E+02 -0.81705320709E+02  0.77462371351E+02  0.14081441851E+03  0.79818458958E+02 0.  0.
          5    1    3    3  501    0 -0.25203171135E+02  0.66852379339E+02  0.74553711067E+02  0.10336723994E+03  0.47000000000E+01 0. -1.
        -11    1    4    4    0    0 -0.59874427693E+01  0.66816311537E+02 -0.11623149624E+02  0.68083526388E+02  0.00000000000E+00 0.  1.
         12    1    4    4    0    0  0.77195490514E+01 -0.47062338226E+01 -0.42339608552E+02  0.43294139635E+02  0.00000000000E+00 0. -1.
         -5    1    5    5    0  502 -0.44848944623E+01 -0.47257136344E+02  0.23222537136E+03  0.23707396382E+03  0.47000000000E+01 0.  1.
         11    1    6    6    0    0  0.15782603758E+02 -0.51017787539E+02  0.90693122266E+02  0.10524802921E+03  0.00000000000E+00 0. -1.
        -12    1    6    6    0    0  0.12173355557E+02 -0.30687533170E+02 -0.13230750915E+02  0.35566389293E+02  0.00000000000E+00 0.  1.
</event>
<event>
12    1  0.8196217E-002  0.1885656E+03  0.7818608E-02  0.1162215E+00
         21   -1    0    0  503  502  0.00000000000E+00  0.00000000000E+00  0.13609154507E+03  0.13609154507E+03  0.00000000000E+00 0.  1.
         21   -1    0    0  501  503 -0.00000000000E+00 -0.00000000000E+00 -0.54198731154E+03  0.54198731154E+03  0.00000000000E+00 0.  1.
          6    2    1    2  501    0 -0.12273242550E+02 -0.53710707848E+02 -0.45566487812E+03  0.49314040718E+03  0.18033720475E+03 0.  0.
         24    2    3    3    0    0  0.32658245250E+02  0.29872425534E+02 -0.26147320272E+03  0.27695188857E+03  0.79844787263E+02 0.  0.
         -6    2    1    2    0  502  0.12273242550E+02  0.53710707848E+02  0.49769111655E+02  0.18493844944E+03  0.16938061573E+03 0.  0.
        -24    2    5    5    0    0  0.48294504749E+02  0.39891521325E+02  0.81631919641E+02  0.13468081540E+03  0.86899131576E+02 0.  0.
          5    1    3    3  501    0 -0.44931487801E+02 -0.83583133382E+02 -0.19419167540E+03  0.21618851861E+03  0.47000000000E+01 0. -1.
        -11    1    4    4    0    0 -0.21558844993E+02  0.18796296959E+02 -0.14759205888E+03  0.15033795402E+03  0.00000000000E+00 0.  1.
         12    1    4    4    0    0  0.54217090244E+02  0.11076128575E+02 -0.11388114385E+03  0.12661393455E+03  0.00000000000E+00 0. -1.
         -5    1    5    5    0  502 -0.36021262199E+02  0.13819186523E+02 -0.31862807986E+02  0.50257634040E+02  0.47000000000E+01 0.  1.
         13    1    6    6    0    0  0.28976618341E+02 -0.75490440070E+01 -0.83979202345E+01  0.31099156583E+02  0.00000000000E+00 0. -1.
        -14    1    6    6    0    0  0.19317886408E+02  0.47440565332E+02  0.90029839876E+02  0.10358165881E+03  0.00000000000E+00 0.  1.
</event>
<event>
12    1  0.8196217E-002  0.2469176E+03  0.7818608E-02  0.1115893E+00
         21   -1    0    0  501  502  0.00000000000E+00  0.00000000000E+00  0.20172705365E+03  0.20172705365E+03  0.00000000000E+00 0. -1.
         21   -1    0    0  502  503 -0.00000000000E+00 -0.00000000000E+00 -0.32843078529E+03  0.32843078529E+03  0.00000000000E+00 0. -1.
         -6    2    1    2    0  503  0.15975192269E+03  0.65612508323E+02 -0.14420506207E+03  0.28262080570E+03  0.17103725277E+03 0.  0.
        -24    2    3    3    0    0  0.13898883938E+03  0.10644315807E+03 -0.92484282701E+02  0.21337214790E+03  0.79537963150E+02 0.  0.
          6    2    1    2  501    0 -0.15975192269E+03 -0.65612508323E+02  0.17501330435E+02  0.24753703325E+03  0.17647268404E+03 0.  0.
         24    2    5    5    0    0 -0.38357721778E+02 -0.54132501010E+02 -0.41487021152E+02  0.11200084544E+03  0.80133475959E+02 0.  0.
          5    1    5    5  501    0 -0.12139420091E+03 -0.11480007313E+02  0.58988351587E+02  0.13553618781E+03  0.47000000000E+01 0. -1.
        -13    1    6    6    0    0 -0.48333812885E+02 -0.68676309888E+02 -0.24419240151E+02  0.87457945879E+02  0.00000000000E+00 0.  1.
         14    1    6    6    0    0  0.99760911071E+01  0.14543808878E+02 -0.17067781001E+02  0.24542899559E+02  0.00000000000E+00 0. -1.
         -5    1    3    3    0  503  0.20763083316E+02 -0.40830649750E+02 -0.51720779372E+02  0.69248657797E+02  0.47000000000E+01 0.  1.
         11    1    4    4    0    0  0.10894785686E+03  0.34665778325E+02 -0.50926720471E+02  0.12515942857E+03  0.00000000000E+00 0. -1.
        -12    1    4    4    0    0  0.30040982516E+02  0.71777379748E+02 -0.41557562230E+02  0.88212719335E+02  0.00000000000E+00 0.  1.
</event>
<event>
12    1  0.8196217E-002  0.2220533E+03  0.7818608E-02  0.1132497E+00
         21   -1    0    0  501  502  0.00000000000E+00  0.00000000000E+00  0.21386901659E+03  0.21386901659E+03  0.00000000000E+00 0.  1.
         21   -1    0    0  502  503 -0.00000000000E+00 -0.00000000000E+00 -0.45799202771E+03  0.45799202771E+03  0.00000000000E+00 0.  1.
         -6    2    1    2    0  503  0.18813009325E+02  0.13754832294E+03 -0.35908654610E+03  0.42181245100E+03  0.17236335390E+03 0.  0.
        -24    2    3    3    0    0  0.36228582227E+02  0.16103354324E+03 -0.25943106940E+03  0.31785014154E+03  0.80497953319E+02 0.  0.
          6    2    1    2  501    0 -0.18813009325E+02 -0.13754832294E+03  0.11496353498E+03  0.25004859330E+03  0.17330382042E+03 0.  0.
         24    2    5    5    0    0 -0.22903445923E+02 -0.20285031977E+02  0.99731327442E+02  0.13163608878E+03  0.80284941547E+02 0.  0.
          5    1    5    5  501    0  0.40904365987E+01 -0.11726329096E+03  0.15232207539E+02  0.11841250451E+03  0.47000000000E+01 0. -1.
        -11    1    6    6    0    0 -0.32966519965E+02 -0.39710436278E+02  0.32635704790E+02  0.61063896167E+02  0.00000000000E+00 0.  1.
         12    1    6    6    0    0  0.10063074042E+02  0.19425404302E+02  0.67095622652E+02  0.70572192615E+02  0.00000000000E+00 0. -1.
         -5    1    3    3    0  503 -0.17415572903E+02 -0.23485220303E+02 -0.99655476694E+02  0.10396230946E+03  0.47000000000E+01 0.  1.
         13    1    4    4    0    0 -0.45022176560E+01  0.82834652908E+02 -0.68644603733E+02  0.10767511926E+03  0.00000000000E+00 0. -1.
        -14    1    4    4    0    0  0.40730799883E+02  0.78198890332E+02 -0.19078646567E+03  0.21017502228E+03  0.00000000000E+00 0.  1.
</event>
<event>
12    1  0.8196217E-002  0.2128991E+03  0.7818608E-02  0.1140715E+00
         21   -1    0    0  501  502  0.00000000000E+00  0.00000000000E+00  0.34851779084E+03  0.34851779084E+03  0.00000000000E+00 0. -1.
         21   -1    0    0  502  503 -0.00000000000E+00 -0.00000000000E+00 -0.13236932200E+03  0.13236932200E+03  0.00000000000E+00 0. -1.
         -6    2    1    2    0  503  0.12185231928E+03  0.28164863338E+02  0.52336819876E+02  0.21226041437E+03  0.16332205471E+03 0.  0.
        -24    2    3    3    0    0 -0.92280813256E+00  0.23403792109E+01  0.26728502606E+02  0.84125673550E+02  0.79726953717E+02 0.  0.
          6    2    1    2  501    0 -0.12185231928E+03 -0.28164863338E+02  0.16381164897E+03  0.26862669846E+03  0.17229277277E+03 0.  0.
         24    2    5    5    0    0 -0.95203425654E+00 -0.40640050105E+01  0.47668537059E+02  0.99189268312E+02  0.86883824830E+02 0.  0.
          5    1    5    5  501    0 -0.12090028503E+03 -0.24100858327E+02  0.11614311191E+03  0.16943743015E+03  0.47000000000E+01 0. -1.
        -11    1    6    6    0    0  0.41267583575E+02 -0.31066562454E+01  0.37280081741E+02  0.55699813839E+02  0.00000000000E+00 0.  1.
         12    1    6    6    0    0 -0.42219617831E+02 -0.95734876510E+00  0.10388455318E+02  0.43489454473E+02  0.00000000000E+00 0. -1.
         -5    1    3    3    0  503  0.12277512742E+03  0.25824484127E+02  0.25608317270E+02  0.12813474082E+03  0.47000000000E+01 0.  1.
         13    1    4    4    0    0  0.28497702597E+02 -0.20400245191E+02 -0.47995293301E+01  0.35374065910E+02  0.00000000000E+00 0. -1.
        -14    1    4    4    0    0 -0.29420510730E+02  0.22740624402E+02  0.31528031936E+02  0.48751607641E+02  0.00000000000E+00 0.  1.
</event>
<event>
12    1  0.8196217E-002  0.2961618E+03  0.7818608E-02  0.1087189E+00
         21   -1    0    0  503  502  0.00000000000E+00  0.00000000000E+00  0.22648572067E+03  0.22648572067E+03  0.00000000000E+00 0.  1.
         21   -1    0    0  501  503 -0.00000000000E+00 -0.00000000000E+00 -0.43739771551E+03  0.43739771551E+03  0.00000000000E+00 0. -1.
          6    2    1    2  501    0 -0.23931046178E+03 -0.29043833779E+02 -0.21799619566E+03  0.36774200099E+03  0.17204300791E+03 0.  0.
         24    2    3    3    0    0 -0.10363304313E+03  0.26853460988E+02 -0.16567711686E+03  0.21188230286E+03  0.77358174874E+02 0.  0.
         -6    2    1    2    0  502  0.23931046178E+03  0.29043833779E+02  0.70842008177E+01  0.29614143518E+03  0.17186192811E+03 0.  0.
        -24    2    5    5    0    0  0.17317621451E+03  0.85972319953E+02  0.31535336661E+01  0.20866497352E+03  0.78421204596E+02 0.  0.
          5    1    3    3  501    0 -0.13567741865E+03 -0.55897294767E+02 -0.52319078798E+02  0.15585969813E+03  0.47000000000E+01 0. -1.
        -11    1    4    4    0    0  0.12396282231E+02  0.48193472002E+01 -0.23965652466E+02  0.27408874816E+02  0.00000000000E+00 0.  1.
         12    1    4    4    0    0 -0.11602932536E+03  0.22034113787E+02 -0.14171146440E+03  0.18447342805E+03  0.00000000000E+00 0. -1.
         -5    1    5    5    0  502  0.66134247273E+02 -0.56928486175E+02  0.39306671517E+01  0.87476461661E+02  0.47000000000E+01 0.  1.
         11    1    6    6    0    0  0.37267609254E+02  0.70708085493E+01 -0.29626515074E+02  0.48131085885E+02  0.00000000000E+00 0. -1.
        -12    1    6    6    0    0  0.13590860525E+03  0.78901511404E+02  0.32780048740E+02  0.16053388764E+03  0.00000000000E+00 0.  1.
</event>
<event>
12    1  0.8196217E-002  0.2968327E+03  0.7818608E-02  0.1086868E+00
         21   -1    0    0  501  502  0.00000000000E+00  0.00000000000E+00  0.11106686549E+04  0.11106686549E+04  0.00000000000E+00 0.  1.
         21   -1    0    0  502  503 -0.00000000000E+00 -0.00000000000E+00 -0.80750633596E+02  0.80750633596E+02  0.00000000000E+00 0.  1.
         -6    2    1    2    0  503  0.93956087027E+02  0.22378004236E+03  0.43424532666E+03  0.52600252994E+03  0.17089296103E+03 0.  0.
        -24    2    3    3    0    0  0.12084794972E+03  0.12902756472E+03  0.24481268287E+03  0.31244218524E+03  0.80215522260E+02 0.  0.
          6    2    1    2  501    0 -0.93956087027E+02 -0.22378004236E+03  0.59567269465E+03  0.66541675856E+03  0.17043547100E+03 0.  0.
         24    2    5    5    0    0 -0.86044562628E+02 -0.15680375308E+03  0.55019944661E+03  0.58394086132E+03  0.79223826809E+02 0.  0.
          5    1    5    5  501    0 -0.79115243989E+01 -0.66976289274E+02  0.45473248039E+02  0.81475897236E+02  0.47000000000E+01 0. -1.
        -11    1    6    6    0    0 -0.38971377720E+02 -0.16692967055E+02  0.18845053231E+03  0.19316062373E+03  0.00000000000E+00 0.  1.
         12    1    6    6    0    0 -0.47073184908E+02 -0.14011078603E+03  0.36174891430E+03  0.39078023759E+03  0.00000000000E+00 0. -1.
         -5    1    3    3    0  503 -0.26891862693E+02  0.94752477636E+02  0.18943264378E+03  0.21356034470E+03  0.47000000000E+01 0.  1.
         11    1    4    4    0    0  0.39047943729E+02  0.14142864143E+01  0.28747771364E+02  0.48509550337E+02  0.00000000000E+00 0. -1.
        -12    1    4    4    0    0  0.81800005992E+02  0.12761327831E+03  0.21606491151E+03  0.26393263490E+03  0.00000000000E+00 0.  1.
</event>
<event>
12    1  0.8196217E-002  0.3720783E+03  0.7818608E-02  0.1053955E+00
         21   -1    0    0  501  502  0.00000000000E+00  0.00000000000E+00  0.56002413566E+03  0.56002413566E+03  0.00000000000E+00 0.  1.
         21   -1    0    0  502  503 -0.00000000000E+00 -0.00000000000E+00 -0.24684649108E+03  0.24684649108E+03  0.00000000000E+00 0. -1.
         -6    2    1    2    0  503 -0.26505583170E+03  0.19617255604E+03  0.15959378186E+03  0.40434077300E+03  0.17112282091E+03 0.  0.
        -24    2    3    3    0    0 -0.23155826415E+03  0.13114292617E+03  0.17596457896E+03  0.32923396377E+03  0.81325107279E+02 0.  0.
          6    2    1    2  501    0  0.26505583170E+03 -0.19617255604E+03  0.15358386272E+03  0.40252985374E+03  0.17234852654E+03 0.  0.
         24    2    5    5    0    0  0.19119945707E+03 -0.10857559432E+03  0.16645503501E+03  0.28713596805E+03  0.79961824683E+02 0.  0.
          5    1    5    5  501    0  0.73856374637E+02 -0.87596961727E+02 -0.12871172286E+02  0.11539388569E+03  0.47000000000E+01 0. -1.
        -13    1    6    6    0    0  0.10731544064E+03 -0.10436223251E+03  0.11333857408E+03  0.18775971812E+03  0.00000000000E+00 0.  1.
         14    1    6    6    0    0  0.83884016427E+02 -0.42133618109E+01  0.53116460929E+02  0.99376249935E+02  0.00000000000E+00 0. -1.
         -5    1    3    3    0  503 -0.33497567560E+02  0.65029629878E+02 -0.16370797102E+02  0.75106809227E+02  0.47000000000E+01 0.  1.
         11    1    4    4    0    0 -0.22090470245E+03  0.13074617540E+03  0.14140616355E+03  0.29306851253E+03  0.00000000000E+00 0. -1.
        -12    1    4    4    0    0 -0.10653561697E+02  0.39675077083E+00  0.34558415411E+02  0.36165451245E+02  0.00000000000E+00 0.  1.
</event>
<event>
12    1  0.8196217E-002  0.2036646E+03  0.7818608E-02  0.1147538E+00
         21   -1    0    0  503  502  0.00000000000E+00  0.00000000000E+00  0.89511773390E+02  0.89511773390E+02  0.00000000000E+00 0. -1.
         21   -1    0    0  501  503 -0.00000000000E+00 -0.00000000000E+00 -0.59478239790E+03  0.59478239790E+03  0.00000000000E+00 0. -1.
          6    2    1    2  501    0 -0.83004700014E+02  0.58812677309E+02 -0.42098512998E+03  0.46766200356E+03  0.17643854080E+03 0.  0.
         24    2    3    3    0    0  0.59310562860E+01 -0.12758866101E+01 -0.94227816760E+02  0.12369596454E+03  0.79906225515E+02 0.  0.
         -6    2    1    2    0  502  0.83004700014E+02 -0.58812677309E+02 -0.84285494533E+02  0.21663216773E+03  0.17168791533E+03 0.  0.
        -24    2    5    5    0    0 -0.18369310182E+02 -0.90172819574E+01 -0.18814549528E+02  0.85999836425E+02  0.81383300872E+02 0.  0.
          5    1    3    3  501    0 -0.88935756300E+02  0.60088563919E+02 -0.32675731322E+03  0.34396603903E+03  0.47000000000E+01 0. -1.
        -13    1    4    4    0    0 -0.77634018604E+01 -0.37448264353E+02 -0.29530084937E+02  0.48318410858E+02  0.00000000000E+00 0.  1.
         14    1    4    4    0    0  0.13694458146E+02  0.36172377743E+02 -0.64697731824E+02  0.75377553679E+02  0.00000000000E+00 0. -1.
         -5    1    5    5    0  502  0.10137401020E+03 -0.49795395352E+02 -0.65470945005E+02  0.13063233130E+03  0.47000000000E+01 0.  1.
         13    1    6    6    0    0  0.24368868865E+02 -0.27039666590E+02 -0.15296819968E+02  0.39483895960E+02  0.00000000000E+00 0. -1.
        -14    1    6    6    0    0 -0.42738179047E+02  0.18022384633E+02 -0.35177295599E+01  0.46515940465E+02  0.00000000000E+00 0.  1.
</event>
<event>
12    1  0.8196217E-002  0.1735772E+03  0.7818608E-02  0.1174329E+00
         21   -1    0    0  503  502  0.00000000000E+00  0.00000000000E+00  0.66466427365E+02  0.66466427365E+02  0.00000000000E+00 0. -1.
         21   -1    0    0  501  503 -0.00000000000E+00 -0.00000000000E+00 -0.45165038175E+03  0.45165038175E+03  0.00000000000E+00 0. -1.
          6    2    1    2  501    0 -0.47007605635E+01 -0.20608876719E+02 -0.19358503807E+03  0.26000812926E+03  0.17228533706E+03 0.  0.
         24    2    3    3    0    0  0.47952534276E+02  0.19890282294E+02 -0.15783943418E+03  0.18442777774E+03  0.80032801691E+02 0.  0.
         -6    2    1    2    0  502  0.47007605635E+01  0.20608876719E+02 -0.19159891632E+03  0.25810867986E+03  0.17164825351E+03 0.  0.
        -24    2    5    5    0    0 -0.52065886018E+01 -0.41338919323E+02 -0.16973241315E+03  0.19150598500E+03  0.78290710822E+02 0.  0.
          5    1    3    3  501    0 -0.52653294839E+02 -0.40499159013E+02 -0.35745603884E+02  0.75580351516E+02  0.47000000000E+01 0. -1.
        -11    1    4    4    0    0  0.31505783053E+01 -0.93410060672E+01 -0.11625244972E+03  0.11666967302E+03  0.00000000000E+00 0.  1.
         12    1    4    4    0    0  0.44801955971E+02  0.29231288361E+02 -0.41586984462E+02  0.67758104716E+02  0.00000000000E+00 0. -1.
         -5    1    5    5    0  502  0.99073491652E+01  0.61947796042E+02 -0.21866503171E+02  0.66602694862E+02  0.47000000000E+01 0.  1.
         11    1    6    6    0    0 -0.15490627241E+02 -0.22314446404E+02 -0.16758631121E+03  0.16977357202E+03  0.00000000000E+00 0. -1.
        -12    1    6    6    0    0  0.10284038640E+02 -0.19024472919E+02 -0.21461019440E+01  0.21732412985E+02  0.00000000000E+00 0.  1.
</event>
<event>
12    1  0.8196217E-002  0.2226136E+03  0.7818608E-02  0.1133400E+00
         21   -1    0    0  503  502  0.00000000000E+00  0.00000000000E+00  0.70133861438E+03  0.70133861438E+03  0.00000000000E+00 0.  1.
         21   -1    0    0  501  503 -0.00000000000E+00 -0.00000000000E+00 -0.83788483607E+02  0.83788483607E+02  0.00000000000E+00 0.  1.
          6    2    1    2  501    0  0.50904454582E+02  0.12219405432E+03  0.13512336851E+03  0.25381514503E+03  0.16923697209E+03 0.  0.
         24    2    3    3    0    0  0.61972086001E+01  0.49148240569E+02  0.19463236795E+01  0.95408566821E+02  0.81517185314E+02 0.  0.
         -6    2    1    2    0  502 -0.50904454582E+02 -0.12219405432E+03  0.48242676227E+03  0.53131195296E+03  0.17898089283E+03 0.  0.
        -24    2    5    5    0    0 -0.10745304903E+02 -0.96552004093E+02  0.46298243708E+03  0.47963561577E+03  0.79119124128E+02 0.  0.
          5    1    3    3  501    0  0.44707245982E+02  0.73045813753E+02  0.13317704483E+03  0.15840657821E+03  0.47000000000E+01 0. -1.
        -11    1    4    4    0    0 -0.26490471314E+02 -0.42139612490E+01 -0.14790458159E+02  0.30631033159E+02  0.00000000000E+00 0.  1.
         12    1    4    4    0    0  0.32687679914E+02  0.53362201818E+02  0.16736781839E+02  0.64777533662E+02  0.00000000000E+00 0. -1.
         -5    1    5    5    0  502 -0.40159149679E+02 -0.25642050229E+02  0.19444325186E+02  0.51676337185E+02  0.47000000000E+01 0.  1.
         13    1    6    6    0    0  0.49077605120E+01  0.11493847259E+02  0.21631047997E+02  0.24981930981E+02  0.00000000000E+00 0. -1.
        -14    1    6    6    0    0 -0.15653065415E+02 -0.10804585135E+03  0.44135138908E+03  0.45465368479E+03  0.00000000000E+00 0.  1.
</event>
<event>
12    1  0.8196217E-002  0.2353639E+03  0.7818608E-02  0.1122941E+00
         21   -1    0    0  503  502  0.00000000000E+00  0.00000000000E+00  0.28539803805E+03  0.28539803805E+03  0.00000000000E+00 0. -1.
         21   -1    0    0  501  503 -0.00000000000E+00 -0.00000000000E+00 -0.20667747705E+03  0.20667747705E+03  0.00000000000E+00 0.  1.
          6    2    1    2  501    0  0.11690216379E+03  0.11048089928E+03 -0.21565462178E+02  0.23634984430E+03  0.17182559395E+03 0.  0.
         24    2    3    3    0    0  0.14309934270E+03  0.12522758012E+03 -0.14499448489E+02  0.20511244159E+03  0.75508350424E+02 0.  0.
         -6    2    1    2    0  502 -0.11690216379E+03 -0.11048089928E+03  0.10028602318E+03  0.25572567081E+03  0.17165717946E+03 0.  0.
        -24    2    5    5    0    0 -0.82912655362E+01 -0.25627733497E+00  0.45160903847E+02  0.91388629080E+02  0.79016223186E+02 0.  0.
          5    1    3    3  501    0 -0.26197178906E+02 -0.14746680848E+02 -0.70660136893E+01  0.31237402710E+02  0.47000000000E+01 0. -1.
        -11    1    4    4    0    0  0.12096418905E+03  0.87111369911E+02  0.18279478393E+02  0.15018277241E+03  0.00000000000E+00 0.  1.
         12    1    4    4    0    0  0.22135153650E+02  0.38116210213E+02 -0.32778926882E+02  0.54929669175E+02  0.00000000000E+00 0. -1.
         -5    1    5    5    0  502 -0.10861089825E+03 -0.11022462194E+03  0.55125119333E+02  0.16433704173E+03  0.47000000000E+01 0.  1.
         13    1    6    6    0    0 -0.13232052821E+02  0.13814918857E+02  0.64322856963E+02  0.67107146660E+02  0.00000000000E+00 0. -1.
        -14    1    6    6    0    0  0.49407872852E+01 -0.14071196192E+02 -0.19161953116E+02  0.24281482420E+02  0.00000000000E+00 0.  1.
</event>
<event>
12    1  0.8196217E-002  0.1747388E+03  0.7818608E-02  0.1173075E+00
         21   -1    0    0  501  502  0.00000000000E+00  0.00000000000E+00  0.97089774845E+03  0.97089774845E+03  0.00000000000E+00 0. -1.
         21   -1    0    0  502  503 -0.00000000000E+00 -0.00000000000E+00 -0.44134679363E+02  0.44134679363E+02  0.00000000000E+00 0.  1.
         -6    2    1    2    0  503 -0.20003736322E+02  0.20973583213E+02  0.19097399571E+03  0.25885270753E+03  0.17231835798E+03 0.  0.
        -24    2    3    3    0    0 -0.72961903945E+02 -0.69811733149E+01  0.14916467562E+03  0.18566701783E+03  0.82764514425E+02 0.  0.
          6    2    1    2  501    0  0.20003736322E+02 -0.20973583213E+02  0.73578907338E+03  0.75617972029E+03  0.17199467494E+03 0.  0.
         24    2    5    5    0    0 -0.64817703771E+01  0.45884405439E+02  0.49916315535E+03  0.50882291768E+03  0.87117816140E+02 0.  0.
          5    1    5    5  501    0  0.26485506699E+02 -0.66857988652E+02  0.23662591803E+03  0.24735680260E+03  0.47000000000E+01 0. -1.
        -11    1    6    6    0    0  0.40983290609E+01 -0.11423816204E+02  0.87565960798E+01  0.14965889638E+02  0.00000000000E+00 0.  1.
         12    1    6    6    0    0 -0.10580099438E+02  0.57308221644E+02  0.49040655927E+03  0.49385702805E+03  0.00000000000E+00 0. -1.
         -5    1    3    3    0  503  0.52958167623E+02  0.27954756528E+02  0.41809320086E+02  0.73185689698E+02  0.47000000000E+01 0.  1.
         11    1    4    4    0    0 -0.57873417367E+02 -0.22103869549E+01  0.15747895159E+03  0.16779105591E+03  0.00000000000E+00 0. -1.
        -12    1    4    4    0    0 -0.15088486578E+02 -0.47707863600E+01 -0.83142759698E+01  0.17875961921E+02  0.00000000000E+00 0.  1.
</event>
<event>
12    1  0.8196217E-002  0.1727308E+03  0.7818608E-02  0.1175328E+00
         21   -1    0    0  503  502  0.00000000000E+00  0.00000000000E+00  0.22527487822E+03  0.22527487822E+03  0.00000000000E+00 0. -1.
         21   -1    0    0  501  503 -0.00000000000E+00 -0.00000000000E+00 -0.37449804763E+03  0.37449804763E+03  0.00000000000E+00 0. -1.
          6    2    1    2  501    0  0.12885264818E+02  0.12872808732E+02 -0.31623934789E+03  0.36033770240E+03  0.17176785312E+03 0.  0.
         24    2    3    3    0    0  0.29151208502E+02 -0.49961491252E+02 -0.24080308627E+03  0.26071115099E+03  0.81475360271E+02 0.  0.
         -6    2    1    2    0  502 -0.12885264818E+02 -0.12872808732E+02  0.16701617848E+03  0.23943522344E+03  0.17059625757E+03 0.  0.
        -24    2    5    5    0    0  0.45327164374E+02  0.31982201358E+01  0.41212769550E+02  0.99808748234E+02  0.78730638304E+02 0.  0.
          5    1    3    3  501    0 -0.16265943684E+02  0.62834299984E+02 -0.75436261621E+02  0.99626551410E+02  0.47000000000E+01 0. -1.
        -13    1    4    4    0    0  0.28314139943E+02 -0.26840484580E+02 -0.31527606748E+02  0.50160663078E+02  0.00000000000E+00 0.  1.
         14    1    4    4    0    0  0.83706855872E+00 -0.23121006672E+02 -0.20927547952E+03  0.21055048792E+03  0.00000000000E+00 0. -1.
         -5    1    5    5    0  502 -0.58212429192E+02 -0.16071028868E+02  0.12580340893E+03  0.13962647521E+03  0.47000000000E+01 0.  1.
         11    1    6    6    0    0  0.62273162768E+02 -0.20378868359E+01  0.50118199779E+02  0.79962076842E+02  0.00000000000E+00 0. -1.
        -12    1    6    6    0    0 -0.16945998393E+02  0.52361069717E+01 -0.89054302284E+01  0.19846671391E+02  0.00000000000E+00 0.  1.
</event>
<event>
12    1  0.8196217E-002  0.2200184E+03  0.7818608E-02  0.1134056E+00
         21   -1    0    0  501  502  0.00000000000E+00  0.00000000000E+00  0.94799823117E+03  0.94799823117E+03  0.00000000000E+00 0.  1.
         21   -1    0    0  502  503 -0.00000000000E+00 -0.00000000000E+00 -0.54671215182E+02  0.54671215182E+02  0.00000000000E+00 0.  1.
         -6    2    1    2    0  503  0.48499373409E+02  0.12730096866E+03  0.31476010196E+03  0.38403387994E+03  0.17277260579E+03 0.  0.
        -24    2    3    3    0    0  0.47209995076E+02  0.79248663000E+02  0.31205653371E+03  0.33565944602E+03  0.82333767386E+02 0.  0.
          6    2    1    2  501    0 -0.48499373409E+02 -0.12730096866E+03  0.57856691402E+03  0.61863556641E+03  0.17150091597E+03 0.  0.
         24    2    5    5    0    0  0.16787564362E+02 -0.97207405764E+02  0.47274801011E+03  0.49062096882E+03  0.86528330183E+02 0.  0.
          5    1    5    5  501    0 -0.65286937771E+02 -0.30093562898E+02  0.10581890391E+03  0.12801459759E+03  0.47000000000E+01 0. -1.
        -13    1    6    6    0    0  0.23178957395E+02 -0.33016486837E+02  0.56611159291E+02  0.69513853477E+02  0.00000000000E+00 0.  1.
         14    1    6    6    0    0 -0.63913930322E+01 -0.64190918927E+02  0.41613685082E+03  0.42110711534E+03  0.00000000000E+00 0. -1.
         -5    1    3    3    0  503  0.12893783326E+01  0.48052305662E+02  0.27035682568E+01  0.48374433922E+02  0.47000000000E+01 0.  1.
         13    1    4    4    0    0  0.45494445688E+02  0.40043103084E+02  0.80303707944E+02  0.10060755540E+03  0.00000000000E+00 0. -1.
        -14    1    4    4    0    0  0.17155493880E+01  0.39205559917E+02  0.23175282576E+03  0.23505189062E+03  0.00000000000E+00 0.  1.
</event>
<event>
12    1  0.8196217E-002  0.1829510E+03  0.7818608E-02  0.1165310E+00
         21   -1    0    0  503  502  0.00000000000E+00  0.00000000000E+00  0.61457363652E+03  0.61457363652E+03  0.00000000000E+00 0. -1.
         21   -1    0    0  501  503 -0.00000000000E+00 -0.00000000000E+00 -0.81105059143E+02  0.81105059143E+02  0.00000000000E+00 0. -1.
          6    2    1    2  501    0 -0.45754723997E+01 -0.58127844735E+02  0.65143086080E+02  0.19288664252E+03  0.17193560980E+03 0.  0.
         24    2    3    3    0    0  0.46887499966E+02 -0.20208593735E+02 -0.93636554079E+01  0.94603115677E+02  0.79090116571E+02 0.  0.
         -6    2    1    2    0  502  0.45754723997E+01  0.58127844735E+02  0.46832549129E+03  0.50279205314E+03  0.17341078867E+03 0.  0.
        -24    2    5    5    0    0 -0.20746392097E+02  0.80118967410E+01  0.10136405478E+03  0.13152989381E+03  0.80813600895E+02 0.  0.
          5    1    3    3  501    0 -0.51462972366E+02 -0.37919251000E+02  0.74506741488E+02  0.98283526841E+02  0.47000000000E+01 0. -1.
        -13    1    4    4    0    0  0.33243032566E+01  0.27974727884E+02  0.34896483880E+01  0.28386863832E+02  0.00000000000E+00 0.  1.
         14    1    4    4    0    0  0.43563196709E+02 -0.48183321620E+02 -0.12853303796E+02  0.66216251844E+02  0.00000000000E+00 0. -1.
         -5    1    5    5    0  502  0.25321864497E+02  0.50115947994E+02  0.36696143651E+03  0.37126215933E+03  0.47000000000E+01 0.  1.
         11    1    6    6    0    0  0.25065126643E+02 -0.17297060699E+02  0.47514886693E+02  0.56436808378E+02  0.00000000000E+00 0. -1.
        -12    1    6    6    0    0 -0.45811518740E+02  0.25308957440E+02  0.53849168090E+02  0.75093085434E+02  0.00000000000E+00 0.  1.
</event>
<event>
12    1  0.8196217E-002  0.1786125E+03  0.7818608E-02  0.1169511E+00
         21   -1    0    0  503  502  0.00000000000E+00  0.00000000000E+00  0.20533720313E+03  0.20533720313E+03  0.00000000000E+00 0.  1.
         21   -1    0    0  501  503 -0.00000000000E+00 -0.00000000000E+00 -0.15891636439E+03  0.15891636439E+03  0.00000000000E+00 0.  1.
          6    2    1    2  501    0 -0.27473899614E+01 -0.45968164459E+02 -0.85873557317E+01  0.17736235709E+03  0.17106444031E+03 0.  0.
         24    2    3    3    0    0  0.64692860075E+02 -0.38842969317E+02 -0.18743392443E+02  0.10862960789E+03  0.75862603040E+02 0.  0.
         -6    2    1    2    0  502  0.27473899614E+01  0.45968164459E+02  0.55008194468E+02  0.18689121043E+03  0.17257405015E+03 0.  0.
        -24    2    5    5    0    0  0.12184314720E+02  0.93279348433E+02  0.16038892623E+02  0.12469715795E+03  0.80266062289E+02 0.  0.
          5    1    3    3  501    0 -0.67440250036E+02 -0.71251951428E+01  0.10156036712E+02  0.68732749199E+02  0.47000000000E+01 0. -1.
        -13    1    4    4    0    0  0.42464409990E+01 -0.17469598030E+02 -0.37703920362E+02  0.41770859785E+02  0.00000000000E+00 0.  1.
         14    1    4    4    0    0  0.60446419076E+02 -0.21373371287E+02  0.18960527919E+02  0.66858748105E+02  0.00000000000E+00 0. -1.
         -5    1    5    5    0  502 -0.94369247591E+01 -0.47311183974E+02  0.38969301845E+02  0.62194052482E+02  0.47000000000E+01 0.  1.
         13    1    6    6    0    0  0.83572677459E+01  0.35402006709E+02 -0.32717082598E+02  0.48923956268E+02  0.00000000000E+00 0. -1.
        -14    1    6    6    0    0  0.38270469746E+01  0.57877341724E+02  0.48755975221E+02  0.75773201684E+02  0.00000000000E+00 0.  1.
</event>
<event>
12    1  0.8196217E-002  0.1763020E+03  0.7818608E-02  0.1171505E+00
         21   -1    0    0  501  502  0.00000000000E+00  0.00000000000E+00  0.87913232166E+02  0.87913232166E+02  0.00000000000E+00 0.  1.
         21   -1    0    0  502  503 -0.00000000000E+00 -0.00000000000E+00 -0.52199237980E+03  0.52199237980E+03  0.00000000000E+00 0.  1.
         -6    2    1    2    0  503  0.73833651768E+01 -0.35162570616E+02 -0.39044942040E+03  0.42828524561E+03  0.17229794330E+03 0.  0.
        -24    2    3    3    0    0  0.16067187361E+01 -0.16575111033E+02 -0.39859408589E+03  0.40666838011E+03  0.78896199071E+02 0.  0.
          6    2    1    2  501    0 -0.73833651768E+01  0.35162570616E+02 -0.43629727235E+02  0.18162036635E+03  0.17260209710E+03 0.  0.
         24    2    5    5    0    0  0.58730191195E+02  0.39119915591E+02 -0.95187225672E+01  0.10697243567E+03  0.79830399980E+02 0.  0.
          5    1    5    5  501    0 -0.66113556372E+02 -0.39573449751E+01 -0.34111004667E+02  0.74647930680E+02  0.47000000000E+01 0. -1.
        -11    1    6    6    0    0 -0.44349748507E+01  0.42336670348E+02  0.23008875203E+01  0.42630467291E+02  0.00000000000E+00 0.  1.
         12    1    6    6    0    0  0.63165166046E+02 -0.32167547563E+01 -0.11819610088E+02  0.64341968383E+02  0.00000000000E+00 0. -1.
         -5    1    3    3    0  503  0.57766464408E+01 -0.18587459583E+02  0.81446654924E+01  0.21616865495E+02  0.47000000000E+01 0.  1.
         13    1    4    4    0    0 -0.28339794259E+02 -0.13184126042E+02 -0.69594360266E+02  0.76291153478E+02  0.00000000000E+00 0. -1.
        -14    1    4    4    0    0  0.29946512995E+02 -0.33909849906E+01 -0.32899972562E+03  0.33037722664E+03  0.00000000000E+00 0.  1.
</event>
<event>
12    1  0.8196217E-002  0.1860509E+03  0.7818608E-02  0.1163883E+00
         21   -1    0    0  503  502  0.00000000000E+00  0.00000000000E+00  0.88834160291E+03  0.88834160291E+03  0.00000000000E+00 0.  1.
         21   -1    0    0  501  503 -0.00000000000E+00 -0.00000000000E+00 -0.38028928435E+02  0.38028928435E+02  0.00000000000E+00 0.  1.
          6    2    1    2  501    0 -0.40349844663E+02  0.33888507845E+02  0.35600274839E+03  0.39820648634E+03  0.17045206945E+03 0.  0.
         24    2    3    3    0    0 -0.52160510279E+02  0.13115282058E+02  0.36073992604E+03  0.37339621460E+03  0.79991933249E+02 0.  0.
         -6    2    1    2    0  502  0.40349844663E+02 -0.33888507845E+02  0.49430992609E+03  0.52816404500E+03  0.17843322133E+03 0.  0.
        -24    2    5    5    0    0  0.17737528620E+01 -0.68540858578E+02  0.17317197917E+03  0.20283256601E+03  0.80321354390E+02 0.  0.
          5    1    3    3  501    0  0.11810665616E+02  0.20773225787E+02 -0.47371776528E+01  0.24810271743E+02  0.47000000000E+01 0. -1.
        -13    1    4    4    0    0 -0.93908093048E+01 -0.26619134076E+02  0.51825420939E+02  0.59013895431E+02  0.00000000000E+00 0.  1.
         14    1    4    4    0    0 -0.42769700974E+02  0.39734416134E+02  0.30891450510E+03  0.31438231917E+03  0.00000000000E+00 0. -1.
         -5    1    5    5    0  502  0.38576091801E+02  0.34652350733E+02  0.32113794693E+03  0.32533147900E+03  0.47000000000E+01 0.  1.
         11    1    6    6    0    0 -0.27677771381E+02 -0.68240516096E+02  0.14192603781E+03  0.15989317457E+03  0.00000000000E+00 0. -1.
        -12    1    6    6    0    0  0.29451524243E+02 -0.30034248185E+00  0.31245941362E+02  0.42939391442E+02  0.00000000000E+00 0.  1.
</event>
<event>
12    1  0.8196217E-002  0.2170246E+03  0.7818608E-02  0.1137237E+00
         21   -1    0    0  501  502  0.00000000000E+00  0.00000000000E+00  0.15587763304E+03  0.15587763304E+03  0.00000000000E+00 0.  1.
         21   -1    0    0  502  503 -0.00000000000E+00 -0.00000000000E+00 -0.36214113510E+03  0.36214113510E+03  0.00000000000E+00 0.  1.
         -6    2    1    2    0  503 -0.62525502960E+02  0.11749168792E+03 -0.21649208875E+03  0.30654279345E+03  0.17142323201E+03 0.  0.
        -24    2    3    3    0    0 -0.29102736159E+02  0.93002882535E+02 -0.47933537706E+02  0.13290276909E+03  0.76609507127E+02 0.  0.
          6    2    1    2  501    0  0.62525502960E+02 -0.11749168792E+03  0.10228586690E+02  0.21147597470E+03  0.16402356123E+03 0.  0.
         24    2    5    5    0    0  0.19196351234E+02 -0.79794127719E+02 -0.52126248865E+02  0.12657169359E+03  0.81041008615E+02 0.  0.
          5    1    5    5  501    0  0.43329151726E+02 -0.37697560204E+02  0.62354835555E+02  0.84904281115E+02  0.47000000000E+01 0. -1.
        -11    1    6    6    0    0 -0.24835213665E+01 -0.61932180503E+02  0.57405897150E+01  0.62247226689E+02  0.00000000000E+00 0.  1.
         12    1    6    6    0    0  0.21679872601E+02 -0.17861947216E+02 -0.57866838580E+02  0.64324466897E+02  0.00000000000E+00 0. -1.
         -5    1    3    3    0  503 -0.33422766801E+02  0.24488805388E+02 -0.16855855104E+03  0.17364002436E+03  0.47000000000E+01 0.  1.
         13    1    4    4    0    0  0.16835495016E+02  0.36315857190E+02  0.81813072231E+01  0.40855956283E+02  0.00000000000E+00 0. -1.
        -14    1    4    4    0    0 -0.45938231176E+02  0.56687025344E+02 -0.56114844930E+02  0.92046812804E+02  0.00000000000E+00 0.  1.
</event>
<event>
12    1  0.8196217E-002  0.2041311E+03  0.7818608E-02  0.1146487E+00
         21   -1    0    0  503  502  0.00000000000E+00  0.00000000000E+00  0.47186469491E+02  0.47186469491E+02  0.00000000000E+00 0.  1.
         21   -1    0    0  501  503 -0.00000000000E+00 -0.00000000000E+00 -0.11158987353E+04  0.11158987353E+04  0.00000000000E+00 0.  1.
          6    2    1    2  501    0  0.10475095620E+03  0.28978295837E+02 -0.80315790004E+03  0.82869300706E+03  0.17279173335E+03 0.  0.
         24    2    3    3    0    0  0.33679036032E+02 -0.18498074071E+02 -0.19324998714E+03  0.21280748544E+03  0.80405299056E+02 0.  0.
         -6    2    1    2    0  502 -0.10475095620E+03 -0.28978295837E+02 -0.26555436575E+03  0.33439219770E+03  0.17171638321E+03 0.  0.
        -24    2    5    5    0    0 -0.12248894230E+02 -0.45186765001E+02 -0.66075753429E+02  0.11386294179E+03  0.80043020809E+02 0.  0.
          5    1    3    3  501    0  0.71071920169E+02  0.47476369909E+02 -0.60990791290E+03  0.61588552163E+03  0.47000000000E+01 0. -1.
        -11    1    4    4    0    0  0.45585323656E+01 -0.95947949135E+01 -0.17877630886E+03  0.17909162157E+03  0.00000000000E+00 0.  1.
         12    1    4    4    0    0  0.29120503666E+02 -0.89032791578E+01 -0.14473678283E+02  0.33715863871E+02  0.00000000000E+00 0. -1.
         -5    1    5    5    0  502 -0.92502061971E+02  0.16208469164E+02 -0.19947861232E+03  0.22052925592E+03  0.47000000000E+01 0.  1.
         11    1    6    6    0    0 -0.11074518461E+02 -0.12975230855E+02 -0.77736047652E+02  0.79585769328E+02  0.00000000000E+00 0. -1.
        -12    1    6    6    0    0 -0.11743757694E+01 -0.32211534146E+02  0.11660294223E+02  0.34277172460E+02  0.00000000000E+00 0.  1.
</event>
<event>
12    1  0.8196217E-002  0.2200218E+03  0.7818608E-02  0.1134094E+00
         21   -1    0    0  503  502  0.00000000000E+00  0.00000000000E+00  0.40821658302E+03  0.40821658302E+03  0.00000000000E+00 0. -1.
         21   -1    0    0  501  503 -0.00000000000E+00 -0.00000000000E+00 -0.31418323246E+03  0.31418323246E+03  0.00000000000E+00 0.  1.
          6    2    1    2  501    0  0.11637866311E+03  0.72446888164E+02 -0.23850118169E+03  0.32366583026E+03  0.17054093697E+03 0.  0.
         24    2    3    3    0    0  0.22432977402E+02 -0.81019778575E+01 -0.14492273728E+03  0.16844686577E+03  0.82479490107E+02 0.  0.
         -6    2    1    2    0  502 -0.11637866311E+03 -0.72446888164E+02  0.33253453225E+03  0.39873398521E+03  0.17209599354E+03 0.  0.
        -24    2    5    5    0    0 -0.10401614241E+03 -0.53644613148E+02  0.12582443232E+03  0.19074957984E+03  0.82804058102E+02 0.  0.
          5    1    3    3  501    0  0.93945685704E+02  0.80548866021E+02 -0.93578444411E+02  0.15521896449E+03  0.47000000000E+01 0. -1.
        -13    1    4    4    0    0  0.36774678308E+02 -0.27355204249E+02 -0.13482413806E+03  0.14240165858E+03  0.00000000000E+00 0.  1.
         14    1    4    4    0    0 -0.14341700906E+02  0.19253226392E+02 -0.10098599219E+02  0.26045207190E+02  0.00000000000E+00 0. -1.
         -5    1    5    5    0  502 -0.12362520697E+02 -0.18802275016E+02  0.20671009994E+03  0.20798440538E+03  0.47000000000E+01 0.  1.
         13    1    6    6    0    0  0.67831048950E+01 -0.19831549114E+02  0.44563699542E+02  0.49246565049E+02  0.00000000000E+00 0. -1.
        -14    1    6    6    0    0 -0.11079924730E+03 -0.33813064034E+02  0.81260732775E+02  0.14150301479E+03  0.00000000000E+00 0.  1.
</event>
<event>
12    1  0.8196217E-002  0.2182105E+03  0.7818608E-02  0.1135388E+00
         21   -1    0    0  503  502  0.00000000000E+00  0.00000000000E+00  0.12447464934E+04  0.12447464934E+04  0.00000000000E+00 0.  1.
         21   -1    0    0  501  503 -0.00000000000E+00 -0.00000000000E+00 -0.13216580178E+03  0.13216580178E+03  0.00000000000E+00 0.  1.
          6    2    1    2  501    0  0.24212803413E+02  0.13160903407E+03 -0.24831489397E+02  0.21875759604E+03  0.17126320463E+03 0.  0.
         24    2    3    3    0    0  0.46360384474E+02  0.99145678812E+02 -0.74594197985E+02  0.15517456412E+03  0.80843676948E+02 0.  0.
         -6    2    1    2    0  502 -0.24212803413E+02 -0.13160903407E+03  0.11374121810E+04  0.11581546991E+04  0.17236194452E+03 0.  0.
        -24    2    5    5    0    0 -0.54279741726E+02 -0.14085353229E+03  0.73427426794E+03  0.75376411012E+03  0.78839236616E+02 0.  0.
          5    1    3    3  501    0 -0.22147581060E+02  0.32463355257E+02  0.49762708588E+02  0.63583031914E+02  0.47000000000E+01 0. -1.
        -11    1    4    4    0    0 -0.97259033635E+01  0.47233678201E+02  0.22326949498E+00  0.48225132471E+02  0.00000000000E+00 0.  1.
         12    1    4    4    0    0  0.56086287837E+02  0.51912000611E+02 -0.74817467480E+02  0.10694943165E+03  0.00000000000E+00 0. -1.
         -5    1    5    5    0  502  0.30066938312E+02  0.92444982198E+01  0.40313791307E+03  0.40439058901E+03  0.47000000000E+01 0.  1.
         13    1    6    6    0    0 -0.44523654733E+02 -0.21884478617E+02  0.17520989500E+03  0.18209830735E+03  0.00000000000E+00 0. -1.
        -14    1    6    6    0    0 -0.97560869931E+01 -0.11896905367E+03  0.55906437294E+03  0.57166580277E+03  0.00000000000E+00 0.  1.
</event>
<event>
12    1  0.8196217E-002  0.1766983E+03  0.7818608E-02  0.1171190E+00
         21   -1    0    0  503  502  0.00000000000E+00  0.00000000000E+00  0.63082922008E+03  0.63082922008E+03  0.00000000000E+00 0.  1.
         21   -1    0    0  501  503 -0.00000000000E+00 -0.00000000000E+00 -0.50173013059E+02  0.50173013059E+02  0.00000000000E+00 0.  1.
          6    2    1    2  501    0  0.40201425056E+02  0.51028908581E+01  0.24548358964E+03  0.30210518020E+03  0.17135680042E+03 0.  0.
         24    2    3    3    0    0 -0.67736920084E+01 -0.13749132778E+02  0.23718062718E+03  0.25059702935E+03  0.79431100044E+02 0.  0.
         -6    2    1    2    0  502 -0.40201425056E+02 -0.51028908581E+01  0.33517261737E+03  0.37889705293E+03  0.17198866013E+03 0.  0.
        -24    2    5    5    0    0 -0.42265959246E+01  0.30859131274E+02  0.76665089578E+02  0.11539053063E+03  0.80419453517E+02 0.  0.
          5    1    3    3  501    0  0.46975117064E+02  0.18852023637E+02  0.83029624629E+01  0.51508150851E+02  0.47000000000E+01 0. -1.
        -13    1    4    4    0    0  0.73320453559E+01  0.29539832878E+02  0.55492919734E+02  0.63291585193E+02  0.00000000000E+00 0.  1.
         14    1    4    4    0    0 -0.14105737364E+02 -0.43288965657E+02  0.18168770745E+03  0.18730544416E+03  0.00000000000E+00 0. -1.
         -5    1    5    5    0  502 -0.35974829131E+02 -0.35962022132E+02  0.25850752779E+03  0.26350652230E+03  0.47000000000E+01 0.  1.
         13    1    6    6    0    0  0.15448605514E+02  0.22079477300E+02  0.87299374609E+02  0.91363797739E+02  0.00000000000E+00 0. -1.
        -14    1    6    6    0    0 -0.19675201439E+02  0.87796539745E+01 -0.10634285030E+02  0.24026732896E+02  0.00000000000E+00 0.  1.
</event>
<event>
12    1  0.8196217E-002  0.2040249E+03  0.7818608E-02  0.1146952E+00
         21   -1    0    0  501  502  0.00000000000E+00  0.00000000000E+00  0.47869973230E+03  0.47869973230E+03  0.00000000000E+00 0. -1.
         21   -1    0    0  502  503 -0.00000000000E+00 -0.00000000000E+00 -0.16025993371E+03  0.16025993371E+03  0.00000000000E+00 0. -1.
         -6    2    1    2    0  503  0.90169070277E+02  0.54823693651E+02 -0.59121367196E+02  0.20979935159E+03  0.17141859073E+03 0.  0.
        -24    2    3    3    0    0  0.41641762263E+02  0.62584382558E+02 -0.97280396495E+02  0.14740280175E+03  0.81322008807E+02 0.  0.
          6    2    1    2  501    0 -0.90169070277E+02 -0.54823693651E+02  0.37756116579E+03  0.42916031441E+03  0.17461398264E+03 0.  0.
         24    2    5    5    0    0 -0.12734137723E+02  0.28043639932E+02  0.20767807261E+03  0.22484311225E+03  0.80471356863E+02 0.  0.
          5    1    5    5  501    0 -0.77434932554E+02 -0.82867333584E+02  0.16988309317E+03  0.20431720217E+03  0.47000000000E+01 0. -1.
        -11    1    6    6    0    0 -0.32194556693E+02  0.45999295722E+02  0.16806316985E+03  0.17719383101E+03  0.00000000000E+00 0.  1.
         12    1    6    6    0    0  0.19460418970E+02 -0.17955655790E+02  0.39614902761E+02  0.47649281234E+02  0.00000000000E+00 0. -1.
         -5    1    3    3    0  503  0.48527308014E+02 -0.77606889063E+01  0.38159029299E+02  0.62396549844E+02  0.47000000000E+01 0.  1.
         11    1    4    4    0    0 -0.23789919194E+02  0.25158083546E+02 -0.38764525132E+02  0.51976704702E+02  0.00000000000E+00 0. -1.
        -12    1    4    4    0    0  0.65431681457E+02  0.37426299012E+02 -0.58515871363E+02  0.95426097046E+02  0.00000000000E+00 0.  1.
</event>
<event>
12    1  0.8196217E-002  0.2900032E+03  0.7818608E-02  0.1092072E+00
         21   -1    0    0  501  502  0.00000000000E+00  0.00000000000E+00  0.12282359270E+04  0.12282359270E+04  0.00000000000E+00 0. -1.
         21   -1    0    0  502  503 -0.00000000000E+00 -0.00000000000E+00 -0.10485475802E+03  0.10485475802E+03  0.00000000000E+00 0.  1.
         -6    2    1    2    0  503  0.22330502786E+03  0.66263574689E+02  0.97814478920E+03  0.10202299132E+04  0.17275951619E+03 0.  0.
        -24    2    3    3    0    0  0.62880360892E+02  0.76009810165E+02  0.49198403760E+03  0.50816992723E+03  0.80355153286E+02 0.  0.
          6    2    1    2  501    0 -0.22330502786E+03 -0.66263574689E+02  0.14523637983E+03  0.31286077183E+03  0.15010749390E+03 0.  0.
         24    2    5    5    0    0 -0.20357943211E+03 -0.12049653878E+02  0.11386367351E+03  0.24702320627E+03  0.80409880927E+02 0.  0.
          5    1    5    5  501    0 -0.19725595746E+02 -0.54213920811E+02  0.31372706325E+02  0.65837565564E+02  0.47000000000E+01 0. -1.
        -13    1    6    6    0    0 -0.77023689802E+02 -0.43684743561E+02  0.40673811049E+02  0.97444161015E+02  0.00000000000E+00 0.  1.
         14    1    6    6    0    0 -0.12655574231E+03  0.31635089683E+02  0.73189862457E+02  0.14957904525E+03  0.00000000000E+00 0. -1.
         -5    1    3    3    0  503  0.16042466697E+03 -0.97462354762E+01  0.48616075160E+03  0.51205998601E+03  0.47000000000E+01 0.  1.
         11    1    4    4    0    0  0.49197789664E+02  0.16816743165E+02  0.34845097699E+03  0.35230854194E+03  0.00000000000E+00 0. -1.
        -12    1    4    4    0    0  0.13682571228E+02  0.59193067000E+02  0.14353306061E+03  0.15586138529E+03  0.00000000000E+00 0.  1.
</event>
<event>
12    1  0.8196217E-002  0.2053512E+03  0.7818608E-02  0.1145316E+00
         21   -1    0    0  503  502  0.00000000000E+00  0.00000000000E+00  0.62663953298E+03  0.62663953298E+03  0.00000000000E+00 0. -1.
         21   -1    0    0  501  503 -0.00000000000E+00 -0.00000000000E+00 -0.11930454033E+03  0.11930454033E+03  0.00000000000E+00 0. -1.
          6    2    1    2  501    0  0.78628425881E+02  0.79536421022E+02  0.73253437956E+01  0.20540843804E+03  0.17213510429E+03 0.  0.
         24    2    3    3    0    0  0.89504306306E+02 -0.40266302901E+01 -0.71800453723E+01  0.11977220368E+03  0.79161816075E+02 0.  0.
         -6    2    1    2    0  502 -0.78628425881E+02 -0.79536421022E+02  0.50000964885E+03  0.54053563528E+03  0.17222268269E+03 0.  0.
        -24    2    5    5    0    0 -0.50240680672E+02 -0.11955315637E+03  0.41702768016E+03  0.44401983183E+03  0.80152616002E+02 0.  0.
          5    1    3    3  501    0 -0.10875880426E+02  0.83563051312E+02  0.14505389168E+02  0.85636234355E+02  0.47000000000E+01 0. -1.
        -13    1    4    4    0    0  0.17652249492E+01  0.97201128889E+01  0.23756433968E+02  0.25728675997E+02  0.00000000000E+00 0.  1.
         14    1    4    4    0    0  0.87739081357E+02 -0.13746743179E+02 -0.30936479340E+02  0.94043527684E+02  0.00000000000E+00 0. -1.
         -5    1    5    5    0  502 -0.28387745208E+02  0.40016735348E+02  0.82981968696E+02  0.96515803445E+02  0.47000000000E+01 0.  1.
         11    1    6    6    0    0 -0.63647051231E+02 -0.48225466951E+02  0.22216218291E+03  0.23607769549E+03  0.00000000000E+00 0. -1.
        -12    1    6    6    0    0  0.13406370559E+02 -0.71327689419E+02  0.19486549725E+03  0.20794213634E+03  0.00000000000E+00 0.  1.
</event>
<event>
12    1  0.8196217E-002  0.2246526E+03  0.7818608E-02  0.1130539E+00
         21   -1    0    0  501  502  0.00000000000E+00  0.00000000000E+00  0.28717850127E+03  0.28717850127E+03  0.00000000000E+00 0.  1.
         21   -1    0    0  502  503 -0.00000000000E+00 -0.00000000000E+00 -0.17550101002E+03  0.17550101002E+03  0.00000000000E+00 0.  1.
         -6    2    1    2    0  503 -0.65543923546E+01 -0.14540757124E+03  0.50334893532E+02  0.22980251344E+03  0.17055577341E+03 0.  0.
        -24    2    3    3    0    0 -0.24810962649E+02 -0.86749829531E+01  0.60975793119E+01  0.84860687079E+02  0.80456923514E+02 0.  0.
          6    2    1    2  501    0  0.65543923546E+01  0.14540757124E+03  0.61342597712E+02  0.23287699785E+03  0.17112118514E+03 0.  0.
         24    2    5    5    0    0 -0.61487716095E+02  0.70292673234E+02  0.35652927959E+02  0.12821551709E+03  0.80288781336E+02 0.  0.
          5    1    5    5  501    0  0.68042108450E+02  0.75114898006E+02  0.25689669753E+02  0.10466148077E+03  0.47000000000E+01 0. -1.
        -11    1    6    6    0    0 -0.25598873221E+02  0.69981233444E+02  0.49813346288E+02  0.89632833342E+02  0.00000000000E+00 0.  1.
         12    1    6    6    0    0 -0.35888842874E+02  0.31143979015E+00 -0.14160418329E+02  0.38582683744E+02  0.00000000000E+00 0. -1.
         -5    1    3    3    0  503  0.18256570294E+02 -0.13673258829E+03  0.44237314220E+02  0.14494182636E+03  0.47000000000E+01 0.  1.
         13    1    4    4    0    0  0.37252812369E+00 -0.19462998518E+02 -0.32287194046E+02  0.37701591318E+02  0.00000000000E+00 0. -1.
        -14    1    4    4    0    0 -0.25183490772E+02  0.10788015565E+02  0.38384773358E+02  0.47159095762E+02  0.00000000000E+00 0.  1.
</event>
<event>
12    1  0.8196217E-002  0.2289826E+03  0.7818608E-02  0.1127671E+00
         21   -1    0    0  503  502  0.00000000000E+00  0.00000000000E+00  0.64779415906E+03  0.64779415906E+03  0.00000000000E+00 0. -1.
         21   -1    0    0  501  503 -0.00000000000E+00 -0.00000000000E+00 -0.15530524006E+03  0.15530524006E+03  0.00000000000E+00 0. -1.
          6    2    1    2  501    0 -0.14770630951E+03 -0.15046464110E+02 -0.33268822534E+02  0.22964126449E+03  0.17200216816E+03 0.  0.
         24    2    3    3    0    0 -0.73366603065E+02 -0.32283559544E+02 -0.74903591811E+02  0.14258350535E+03  0.91074811390E+02 0.  0.
         -6    2    1    2    0  502  0.14770630951E+03  0.15046464110E+02  0.52575774154E+03  0.57345813463E+03  0.17432578534E+03 0.  0.
        -24    2    5    5    0    0  0.11058283936E+01  0.11177528142E+02  0.20250767476E+03  0.21846607077E+03  0.81190552104E+02 0.  0.
          5    1    3    3  501    0 -0.74339706446E+02  0.17237095434E+02  0.41634769278E+02  0.87057759139E+02  0.47000000000E+01 0. -1.
        -13    1    4    4    0    0 -0.39163208995E+02  0.81916063085E+01 -0.79898753233E+02  0.89356981377E+02  0.00000000000E+00 0.  1.
         14    1    4    4    0    0 -0.34203394070E+02 -0.40475165853E+02  0.49951614213E+01  0.53226523974E+02  0.00000000000E+00 0. -1.
         -5    1    5    5    0  502  0.14660048112E+03  0.38689359678E+01  0.32325006678E+03  0.35499206386E+03  0.47000000000E+01 0.  1.
         13    1    6    6    0    0  0.24713778058E+02 -0.20099514351E+02  0.39142646900E+02  0.50466901128E+02  0.00000000000E+00 0. -1.
        -14    1    6    6    0    0 -0.23607949664E+02  0.31277042493E+02  0.16336502785E+03  0.16799916964E+03  0.00000000000E+00 0.  1.
</event>
<event>
12    1  0.8196217E-002  0.3949592E+03  0.7818608E-02  0.1045595E+00
         21   -1    0    0  501  502  0.00000000000E+00  0.00000000000E+00  0.57469376358E+03  0.57469376358E+03  0.00000000000E+00 0. -1.
         21   -1    0    0  502  503 -0.00000000000E+00 -0.00000000000E+00 -0.67916467891E+03  0.67916467891E+03  0.00000000000E+00 0.  1.
         -6    2    1    2    0  503 -0.20302967524E+03  0.29221315489E+03 -0.53826454858E+03  0.66762378940E+03  0.17141535230E+03 0.  0.
        -24    2    3    3    0    0 -0.12387681409E+03  0.10545777489E+03 -0.33438699341E+03  0.37999400151E+03  0.78191895116E+02 0.  0.
          6    2    1    2  501    0  0.20302967524E+03 -0.29221315489E+03  0.43379363325E+03  0.58623465309E+03  0.16995462722E+03 0.  0.
         24    2    5    5    0    0  0.93254766286E+02 -0.99645118549E+02  0.25962775863E+03  0.30429703386E+03  0.81021667947E+02 0.  0.
          5    1    5    5  501    0  0.10977490896E+03 -0.19256803634E+03  0.17416587462E+03  0.28193761923E+03  0.47000000000E+01 0. -1.
        -11    1    6    6    0    0  0.77577123686E+02 -0.10840733322E+03  0.25136923965E+03  0.28452918068E+03  0.00000000000E+00 0.  1.
         12    1    6    6    0    0  0.15677642600E+02  0.87622146719E+01  0.82585189764E+01  0.19767853175E+02  0.00000000000E+00 0. -1.
         -5    1    3    3    0  503 -0.79152861153E+02  0.18675538000E+03 -0.20387755516E+03  0.28762978790E+03  0.47000000000E+01 0.  1.
         11    1    4    4    0    0  0.94654904412E+01  0.97486127643E+01 -0.11572145762E+02  0.17847843502E+02  0.00000000000E+00 0. -1.
        -12    1    4    4    0    0 -0.13334230453E+03  0.95709162127E+02 -0.32281484765E+03  0.36214615800E+03  0.00000000000E+00 0.  1.
</event>
<event>
12    1  0.8196217E-002  0.2406514E+03  0.7818608E-02  0.1119369E+00
         21   -1    0    0  503  502  0.00000000000E+00  0.00000000000E+00  0.22150222828E+03  0.22150222828E+03  0.00000000000E+00 0. -1.
         21   -1    0    0  501  503 -0.00000000000E+00 -0.00000000000E+00 -0.72725309847E+03  0.72725309847E+03  0.00000000000E+00 0. -1.
          6    2    1    2  501    0  0.98672916521E+02  0.13562901482E+03 -0.63255776677E+03  0.67678831873E+03  0.17257324806E+03 0.  0.
         24    2    3    3    0    0  0.85636864616E+02  0.15804828719E+03 -0.43438236840E+03  0.47686798224E+03  0.80013104187E+02 0.  0.
         -6    2    1    2    0  502 -0.98672916521E+02 -0.13562901482E+03  0.12680689658E+03  0.27196700802E+03  0.17249489939E+03 0.  0.
        -24    2    5    5    0    0 -0.85954240806E+01 -0.12535439676E+03  0.55594279801E+02  0.15658568713E+03  0.75104909079E+02 0.  0.
          5    1    3    3  501    0  0.13036051905E+02 -0.22419272364E+02 -0.19817539837E+03  0.19992033649E+03  0.47000000000E+01 0. -1.
        -13    1    4    4    0    0  0.76834283925E+01  0.58369530518E+02 -0.71871662781E+02  0.92906259615E+02  0.00000000000E+00 0.  1.
         14    1    4    4    0    0  0.77953436223E+02  0.99678756669E+02 -0.36251070562E+03  0.38396172262E+03  0.00000000000E+00 0. -1.
         -5    1    5    5    0  502 -0.90077492440E+02 -0.10274618067E+02  0.71212616781E+02  0.11538132089E+03  0.47000000000E+01 0.  1.
         11    1    6    6    0    0 -0.14531108306E+02 -0.20129892411E+02  0.44048725993E+02  0.50563385356E+02  0.00000000000E+00 0. -1.
        -12    1    6    6    0    0  0.59356842256E+01 -0.10522450434E+03  0.11545553809E+02  0.10602230178E+03  0.00000000000E+00 0.  1.
</event>
<event>
12    1  0.8196217E-002  0.1743750E+03  0.7818608E-02  0.1173378E+00
         21   -1    0    0  503  502  0.00000000000E+00  0.00000000000E+00  0.15339565168E+03  0.15339565168E+03  0.00000000000E+00 0.  1.
         21   -1    0    0  501  503 -0.00000000000E+00 -0.00000000000E+00 -0.29342198640E+03  0.29342198640E+03  0.00000000000E+00 0.  1.
          6    2    1    2  501    0 -0.26939907689E+02 -0.26119849166E+00 -0.19732779208E+03  0.26333417295E+03  0.17228117211E+03 0.  0.
         24    2    3    3    0    0 -0.33052872394E+02 -0.49676999338E+01 -0.22165442028E+03  0.23738433032E+03  0.78124694158E+02 0.  0.
         -6    2    1    2    0  502  0.26939907689E+02  0.26119849166E+00  0.57301457365E+02  0.18348346513E+03  0.17221178272E+03 0.  0.
        -24    2    5    5    0    0 -0.19441926014E+01  0.63381865743E+02  0.17975013796E+02  0.10356369881E+03  0.79883025736E+02 0.  0.
          5    1    3    3  501    0  0.61129647045E+01  0.47065014421E+01  0.24326628194E+02  0.25949842631E+02  0.47000000000E+01 0. -1.
        -11    1    4    4    0    0 -0.13173602843E+02 -0.13214010150E+02 -0.21358658502E+03  0.21440005405E+03  0.00000000000E+00 0.  1.
         12    1    4    4    0    0 -0.19879269551E+02  0.82463102158E+01 -0.80678352603E+01  0.22984276274E+02  0.00000000000E+00 0. -1.
         -5    1    5    5    0  502  0.28884100291E+02 -0.63120667251E+02  0.39326443569E+02  0.79919766313E+02  0.47000000000E+01 0.  1.
         11    1    6    6    0    0  0.17593330478E+02 -0.80341673970E+01 -0.13001415960E+02  0.23304719265E+02  0.00000000000E+00 0. -1.
        -12    1    6    6    0    0 -0.19537523079E+02  0.71416033140E+02  0.30976429756E+02  0.80258979547E+02  0.00000000000E+00 0.  1.
</event>
<event>
12    1  0.8196217E-002  0.1727579E+03  0.7818608E-02  0.1175405E+00
         21   -1    0    0  501  502  0.00000000000E+00  0.00000000000E+00  0.26472975782E+03  0.26472975782E+03  0.00000000000E+00 0. -1.
         21   -1    0    0  502  503 -0.00000000000E+00 -0.00000000000E+00 -0.11431296090E+03  0.11431296090E+03  0.00000000000E+00 0. -1.
         -6    2    1    2    0  503 -0.18833628173E+02 -0.90200731455E+01  0.46300536311E+02  0.17733628065E+03  0.16990688480E+03 0.  0.
        -24    2    3    3    0    0 -0.48097391309E+02 -0.60372581020E+02  0.41140404313E+02  0.11782019156E+03  0.78935778216E+02 0.  0.
          6    2    1    2  501    0  0.18833628173E+02  0.90200731455E+01  0.10411626061E+03  0.20170643808E+03  0.17149117810E+03 0.  0.
         24    2    5    5    0    0 -0.37571122430E+01 -0.40654330786E+02  0.11192922816E+03  0.14637994876E+03  0.85041441524E+02 0.  0.
          5    1    5    5  501    0  0.22590740416E+02  0.49674403931E+02 -0.78129675502E+01  0.55326489319E+02  0.47000000000E+01 0. -1.
        -13    1    6    6    0    0 -0.43338032923E+01 -0.12468217411E+02 -0.12870216601E+02  0.18435855601E+02  0.00000000000E+00 0.  1.
         14    1    6    6    0    0  0.57669104928E+00 -0.28186113375E+02  0.12479944476E+03  0.12794409315E+03  0.00000000000E+00 0. -1.
         -5    1    3    3    0  503  0.29263763136E+02  0.51352507875E+02  0.51601319981E+01  0.59516089087E+02  0.47000000000E+01 0.  1.
         13    1    4    4    0    0 -0.38439085853E+02  0.46960711411E+01 -0.26188406316E+01  0.38813331881E+02  0.00000000000E+00 0. -1.
        -14    1    4    4    0    0 -0.96583054559E+01 -0.65068652161E+02  0.43759244945E+02  0.79006859680E+02  0.00000000000E+00 0.  1.
</event>
<event>
12    1  0.8196217E-002  0.2293227E+03  0.7818608E-02  0.1129149E+00
         21   -1    0    0  501  502  0.00000000000E+00  0.00000000000E+00  0.29778526386E+04  0.29778526386E+04  0.00000000000E+00 0. -1.
         21   -1    0    0  502  503 -0.00000000000E+00 -0.00000000000E+00 -0.20560900336E+02  0.20560900336E+02  0.00000000000E+00 0.  1.
         -6    2    1    2    0  503  0.50549243983E+02 -0.12389914124E+03  0.21492250403E+04  0.21614247998E+04  0.18623283299E+03 0.  0.
        -24    2    3    3    0    0  0.32628033303E+01 -0.45376868349E+02  0.44069206549E+03  0.45042837350E+03  0.81280483519E+02 0.  0.
          6    2    1    2  501    0 -0.50549243983E+02  0.12389914124E+03  0.80806669796E+03  0.83698873912E+03  0.17225602402E+03 0.  0.
         24    2    5    5    0    0  0.13258451098E+02  0.78211722763E+02  0.16917682842E+03  0.19327986273E+03  0.49431224529E+02 0.  0.
          5    1    5    5  501    0 -0.63807695081E+02  0.45687418474E+02  0.63888986954E+03  0.64370887640E+03  0.47000000000E+01 0. -1.
        -13    1    6    6    0    0  0.20384834501E+02  0.69474261211E+01  0.32750142408E+02  0.39196683981E+02  0.00000000000E+00 0.  1.
         14    1    6    6    0    0 -0.71263834037E+01  0.71264296641E+02  0.13642668601E+03  0.15408317875E+03  0.00000000000E+00 0. -1.
         -5    1    3    3    0  503  0.47286440653E+02 -0.78522272887E+02  0.17085329748E+04  0.17109964263E+04  0.47000000000E+01 0.  1.
         13    1    4    4    0    0  0.53971880683E+01  0.23292933198E+02  0.93892132672E+02  0.96888714274E+02  0.00000000000E+00 0. -1.
        -14    1    4    4    0    0 -0.21343847380E+01 -0.68669801547E+02  0.34679993282E+03  0.35353965923E+03  0.00000000000E+00 0.  1.
</event>
<event>
12    1  0.8196217E-002  0.2457544E+03  0.7818608E-02  0.1116103E+00
         21   -1    0    0  501  502  0.00000000000E+00  0.00000000000E+00  0.63355684012E+03  0.63355684012E+03  0.00000000000E+00 0. -1.
         21   -1    0    0  502  503 -0.00000000000E+00 -0.00000000000E+00 -0.97321572797E+02  0.97321572797E+02  0.00000000000E+00 0.  1.
         -6    2    1    2    0  503  0.50408384873E+02  0.16770895923E+03  0.21289722105E+03  0.32474699171E+03  0.17166269725E+03 0.  0.
        -24    2    3    3    0    0  0.32039556432E+02  0.55302520698E+02  0.25592822591E+02  0.10548083162E+03  0.79914399823E+02 0.  0.
          6    2    1    2  501    0 -0.50408384873E+02 -0.16770895923E+03  0.32333804628E+03  0.40613142121E+03  0.17241791916E+03 0.  0.
         24    2    5    5    0    0 -0.18072959019E+02 -0.64189206657E+02  0.26140636855E+03  0.28115325654E+03  0.79164247259E+02 0.  0.
          5    1    5    5  501    0 -0.32335425854E+02 -0.10351975257E+03  0.61931677727E+02  0.12497816467E+03  0.47000000000E+01 0. -1.
        -11    1    6    6    0    0  0.21646136017E+02 -0.29028428165E+02  0.42135822040E+02  0.55557468852E+02  0.00000000000E+00 0.  1.
         12    1    6    6    0    0 -0.39719095036E+02 -0.35160778492E+02  0.21927054651E+03  0.22559578769E+03  0.00000000000E+00 0. -1.
         -5    1    3    3    0  503  0.18368828441E+02  0.11240643853E+03  0.18730439846E+03  0.21926616009E+03  0.47000000000E+01 0.  1.
         11    1    4    4    0    0  0.52079666033E+02  0.37538380996E+02  0.39426947201E+02  0.75338607815E+02  0.00000000000E+00 0. -1.
        -12    1    4    4    0    0 -0.20040109601E+02  0.17764139702E+02 -0.13834124610E+02  0.30142223805E+02  0.00000000000E+00 0.  1.
</event>
<event>
12    1  0.8196217E-002  0.2153301E+03  0.7818608E-02  0.1137861E+00
         21   -1    0    0  501  502  0.00000000000E+00  0.00000000000E+00  0.13695030950E+04  0.13695030950E+04  0.00000000000E+00 0.  1.
         21   -1    0    0  502  503 -0.00000000000E+00 -0.00000000000E+00 -0.47898791422E+02  0.47898791422E+02  0.00000000000E+00 0.  1.
         -6    2    1    2    0  503  0.10277027893E+03 -0.77110030090E+02  0.27464796060E+03  0.34899648740E+03  0.17279860816E+03 0.  0.
        -24    2    3    3    0    0  0.16611037405E+02 -0.37344149489E+02  0.21589940502E+03  0.23729052094E+03  0.89575254247E+02 0.  0.
          6    2    1    2  501    0 -0.10277027893E+03  0.77110030090E+02  0.10469563430E+04  0.10684053990E+04  0.16989651439E+03 0.  0.
         24    2    5    5    0    0 -0.66744203957E+02  0.78535429752E+02  0.10031232861E+04  0.10114550987E+04  0.78501508836E+02 0.  0.
          5    1    5    5  501    0 -0.36026074971E+02 -0.14253996623E+01  0.43833056833E+02  0.56950300379E+02  0.47000000000E+01 0. -1.
        -11    1    6    6    0    0 -0.81293259036E+02  0.50939567501E+02  0.83187775120E+03  0.83739120275E+03  0.00000000000E+00 0.  1.
         12    1    6    6    0    0  0.14549055079E+02  0.27595862251E+02  0.17124553494E+03  0.17406389590E+03  0.00000000000E+00 0. -1.
         -5    1    3    3    0  503  0.86159241523E+02 -0.39765880601E+02  0.58748555582E+02  0.11170596646E+03  0.47000000000E+01 0.  1.
         13    1    4    4    0    0  0.21389067832E+02  0.18170792611E+02  0.22341857473E+02  0.35872392200E+02  0.00000000000E+00 0. -1.
        -14    1    4    4    0    0 -0.47780304272E+01 -0.55514942100E+02  0.19355754755E+03  0.20141812874E+03  0.00000000000E+00 0.  1.
</event>
<event>
12    1  0.8196217E-002  0.1973398E+03  0.7818608E-02  0.1152123E+00
         21   -1    0    0  503  502  0.00000000000E+00  0.00000000000E+00  0.15946263894E+03  0.15946263894E+03  0.00000000000E+00 0. -1.
         21   -1    0    0  501  503 -0.00000000000E+00 -0.00000000000E+00 -0.64303740791E+03  0.64303740791E+03  0.00000000000E+00 0. -1.
          6    2    1    2  501    0 -0.85550645909E+02 -0.44807749425E+02 -0.55793064729E+03  0.59161667634E+03  0.17145564185E+03 0.  0.
         24    2    3    3    0    0  0.15380127229E+02 -0.33403775057E+02 -0.34139240154E+03  0.35239298715E+03  0.79244463949E+02 0.  0.
         -6    2    1    2    0  502  0.85550645909E+02  0.44807749425E+02  0.74355878319E+02  0.21088337051E+03  0.17209402050E+03 0.  0.
        -24    2    5    5    0    0  0.19322914783E+02  0.67368227962E+02  0.89785111182E+02  0.13908337894E+03  0.79818337072E+02 0.  0.
          5    1    3    3  501    0 -0.10093077314E+03 -0.11403974368E+02 -0.21653824575E+03  0.23922368919E+03  0.47000000000E+01 0. -1.
        -11    1    4    4    0    0  0.29094936758E+02 -0.52451806173E+01 -0.41971785869E+02  0.51338660614E+02  0.00000000000E+00 0.  1.
         12    1    4    4    0    0 -0.13714809529E+02 -0.28158594440E+02 -0.29942061567E+03  0.30105432654E+03  0.00000000000E+00 0. -1.
         -5    1    5    5    0  502  0.66227731127E+02 -0.22560478537E+02 -0.15429232863E+02  0.71799991565E+02  0.47000000000E+01 0.  1.
         11    1    6    6    0    0  0.37225963034E+02  0.38145185848E+02  0.12800238292E+02  0.54814903334E+02  0.00000000000E+00 0. -1.
        -12    1    6    6    0    0 -0.17903048252E+02  0.29223042115E+02  0.76984872890E+02  0.84268475606E+02  0.00000000000E+00 0.  1.
</event>
<event>
12    1  0.8196217E-002  0.1805030E+03  0.7818608E-02  0.1167400E+00
         21   -1    0    0  503  502  0.00000000000E+00  0.00000000000E+00  0.24885724613E+02  0.24885724613E+02  0.00000000000E+00 0. -1.
         21   -1    0    0  501  503 -0.00000000000E+00 -0.00000000000E+00 -0.13880577943E+04  0.13880577943E+04  0.00000000000E+00 0. -1.
          6    2    1    2  501    0  0.49295096494E+02  0.18095986463E+02 -0.85197075869E+03  0.87081058417E+03  0.17233522152E+03 0.  0.
         24    2    3    3    0    0  0.88476577883E+02  0.26438501644E+02 -0.76817998092E+03  0.77781719472E+03  0.79824846413E+02 0.  0.
         -6    2    1    2    0  502 -0.49295096494E+02 -0.18095986463E+02 -0.51120131102E+03  0.54213293477E+03  0.17269588097E+03 0.  0.
        -24    2    5    5    0    0  0.62104462411E+01 -0.43714340775E+02 -0.44900903310E+03  0.45479946590E+03  0.57305576867E+02 0.  0.
          5    1    3    3  501    0 -0.39181481388E+02 -0.83425151813E+01 -0.83790777769E+02  0.92993389456E+02  0.47000000000E+01 0. -1.
        -11    1    4    4    0    0  0.46749975030E+02 -0.16093826665E+02 -0.18131608995E+03  0.18793641450E+03  0.00000000000E+00 0.  1.
         12    1    4    4    0    0  0.41726602853E+02  0.42532328309E+02 -0.58686389098E+03  0.58988078022E+03  0.00000000000E+00 0. -1.
         -5    1    5    5    0  502 -0.55505542736E+02  0.25618354312E+02 -0.62192277919E+02  0.87333468869E+02  0.47000000000E+01 0.  1.
         13    1    6    6    0    0  0.12252223058E+02 -0.11928740760E+02 -0.35437489035E+03  0.35478722460E+03  0.00000000000E+00 0. -1.
        -14    1    6    6    0    0 -0.60417768166E+01 -0.31785600015E+02 -0.94634142752E+02  0.10001224130E+03  0.00000000000E+00 0.  1.
</event>
<event>
12    1  0.8196217E-002  0.2090280E+03  0.7818608E-02  0.1143203E+00
         21   -1    0    0  503  502  0.00000000000E+00  0.00000000000E+00  0.60266091557E+02  0.60266091557E+02  0.00000000000E+00 0.  1.
         21   -1    0    0  501  503 -0.00000000000E+00 -0.00000000000E+00 -0.81639974151E+03  0.81639974151E+03  0.00000000000E+00 0. -1.
          6    2    1    2  501    0  0.11203796233E+03 -0.38254453095E+02 -0.21654906211E+03  0.29800857116E+03  0.16703204483E+03 0.  0.
         24    2    3    3    0    0  0.78316417496E+02 -0.87466640749E+02 -0.17326247376E+03  0.22415194836E+03  0.80251708081E+02 0.  0.
         -6    2    1    2    0  502 -0.11203796233E+03  0.38254453095E+02 -0.53958458784E+03  0.57865726190E+03  0.17226953047E+03 0.  0.
        -24    2    5    5    0    0 -0.28373245766E+02  0.78125425543E+02 -0.30817916982E+03  0.32933811556E+03  0.81120715350E+02 0.  0.
          5    1    3    3  501    0  0.33721544837E+02  0.49212187654E+02 -0.43286588354E+02  0.73856622799E+02  0.47000000000E+01 0. -1.
        -11    1    4    4    0    0  0.35297106134E+02 -0.60870378087E+00 -0.14551399441E+02  0.38183758948E+02  0.00000000000E+00 0.  1.
         12    1    4    4    0    0  0.43019311362E+02 -0.86857936968E+02 -0.15871107431E+03  0.18596818942E+03  0.00000000000E+00 0. -1.
         -5    1    5    5    0  502 -0.83664716567E+02 -0.39870972448E+02 -0.23140541802E+03  0.24931914634E+03  0.47000000000E+01 0.  1.
         13    1    6    6    0    0 -0.50128650661E+02  0.71040575746E+02 -0.18978522201E+03  0.20875362395E+03  0.00000000000E+00 0. -1.
        -14    1    6    6    0    0  0.21755404895E+02  0.70848497964E+01 -0.11839394781E+03  0.12058449161E+03  0.00000000000E+00 0.  1.
</event>
<event>
12    1  0.8196217E-002  0.2273987E+03  0.7818608E-02  0.1128995E+00
         21   -1    0    0  503  502  0.00000000000E+00  0.00000000000E+00  0.54749924406E+03  0.54749924406E+03  0.00000000000E+00 0.  1.
         21   -1    0    0  501  503 -0.00000000000E+00 -0.00000000000E+00 -0.96507428001E+02  0.96507428001E+02  0.00000000000E+00 0. -1.
          6    2    1    2  501    0  0.11841004260E+03 -0.84328058263E+02  0.16515516537E+03  0.27874954051E+03  0.17115173995E+03 0.  0.
         24    2    3    3    0    0  0.11835358186E+03 -0.12099457055E+03  0.13531139903E+03  0.23123978678E+03  0.80718076275E+02 0.  0.
         -6    2    1    2    0  502 -0.11841004260E+03  0.84328058263E+02  0.28583665069E+03  0.36525713155E+03  0.17486572469E+03 0.  0.
        -24    2    5    5    0    0 -0.13332442846E+03  0.20546945959E+02  0.23511796874E+03  0.28228156954E+03  0.78770838917E+02 0.  0.
          5    1    3    3  501    0  0.56460738368E-01  0.36666512285E+02  0.29843766333E+02  0.47509753734E+02  0.47000000000E+01 0. -1.
        -11    1    4    4    0    0  0.45832984248E+02 -0.28664460071E+02  0.90811548460E+02  0.10568373125E+03  0.00000000000E+00 0.  1.
         12    1    4    4    0    0  0.72520597615E+02 -0.92330110478E+02  0.44499850575E+02  0.12555605553E+03  0.00000000000E+00 0. -1.
         -5    1    5    5    0  502  0.14914385860E+02  0.63781112305E+02  0.50718681954E+02  0.82975562014E+02  0.47000000000E+01 0.  1.
         11    1    6    6    0    0 -0.34510031293E+02  0.27155736084E+02  0.26344518408E+02  0.51209470923E+02  0.00000000000E+00 0. -1.
        -12    1    6    6    0    0 -0.98814397169E+02 -0.66087901254E+01  0.20877345033E+03  0.23107209861E+03  0.00000000000E+00 0.  1.
</event>
<event>
12    1  0.8196217E-002  0.1979839E+03  0.7818608E-02  0.1151514E+00
         21   -1    0    0  501  502  0.00000000000E+00  0.00000000000E+00  0.33113104615E+03  0.33113104615E+03  0.00000000000E+00 0.  1.
         21   -1    0    0  502  503 -0.00000000000E+00 -0.00000000000E+00 -0.12489415652E+03  0.12489415652E+03  0.00000000000E+00 0.  1.
         -6    2    1    2    0  503 -0.64894342316E+02 -0.73552671725E+02  0.50254039176E+02  0.20397704794E+03  0.17163885472E+03 0.  0.
        -24    2    3    3    0    0 -0.46652489736E+02 -0.11812700284E+03  0.39057213902E+02  0.15430718710E+03  0.78452523447E+02 0.  0.
          6    2    1    2  501    0  0.64894342316E+02  0.73552671725E+02  0.15598285046E+03  0.25204815472E+03  0.17197776450E+03 0.  0.
         24    2    5    5    0    0  0.10803028669E+03  0.60267221914E+02  0.85009729943E+02  0.16780750712E+03  0.75033488391E+02 0.  0.
          5    1    5    5  501    0 -0.43135944375E+02  0.13285449811E+02  0.70973120513E+02  0.84240647606E+02  0.47000000000E+01 0. -1.
        -11    1    6    6    0    0  0.28749207769E+02 -0.11958161185E+02  0.29585864131E+00  0.31138434428E+02  0.00000000000E+00 0.  1.
         12    1    6    6    0    0  0.79281078923E+02  0.72225383099E+02  0.84713871301E+02  0.13666907269E+03  0.00000000000E+00 0. -1.
         -5    1    3    3    0  503 -0.18241852580E+02  0.44574331113E+02  0.11196825273E+02  0.49669860840E+02  0.47000000000E+01 0.  1.
         11    1    4    4    0    0  0.18908382127E+02 -0.17084723503E+02  0.19926151807E+02  0.32349130092E+02  0.00000000000E+00 0. -1.
        -12    1    4    4    0    0 -0.65560871863E+02 -0.10104227933E+03  0.19131062095E+02  0.12195805701E+03  0.00000000000E+00 0.  1.
</event>
<event>
12    1  0.8196217E-002  0.1802547E+03  0.7818608E-02  0.1167634E+00
         21   -1    0    0  503  502  0.00000000000E+00  0.00000000000E+00  0.19589209558E+03  0.19589209558E+03  0.00000000000E+00 0. -1.
         21   -1    0    0  501  503 -0.00000000000E+00 -0.00000000000E+00 -0.23751283893E+03  0.23751283893E+03  0.00000000000E+00 0.  1.
          6    2    1    2  501    0 -0.11247816924E+02 -0.51302320328E+02 -0.14006131121E+03  0.22802160603E+03  0.17209950744E+03 0.  0.
         24    2    3    3    0    0 -0.69291947733E+02 -0.51618682743E+02 -0.11380244839E+03  0.16414016049E+03  0.80778292870E+02 0.  0.
         -6    2    1    2    0  502  0.11247816924E+02  0.51302320328E+02  0.98440567864E+02  0.20538332848E+03  0.17243353723E+03 0.  0.
        -24    2    5    5    0    0  0.24915704594E+02 -0.51012547208E+01  0.11897624290E+03  0.14364210740E+03  0.76360287505E+02 0.  0.
          5    1    3    3  501    0  0.58044130809E+02  0.31636241568E+00 -0.26258862820E+02  0.63881445531E+02  0.47000000000E+01 0. -1.
        -13    1    4    4    0    0 -0.11541770986E+02 -0.50449144148E+02 -0.23254154412E+02  0.56736974894E+02  0.00000000000E+00 0.  1.
         14    1    4    4    0    0 -0.57750176747E+02 -0.11695385955E+01 -0.90548293977E+02  0.10740318560E+03  0.00000000000E+00 0. -1.
         -5    1    5    5    0  502 -0.13667887670E+02  0.56403575049E+02 -0.20535675039E+02  0.61741221084E+02  0.47000000000E+01 0.  1.
         11    1    6    6    0    0  0.70789136140E+01 -0.32375585727E+02  0.18374170954E+02  0.37893267573E+02  0.00000000000E+00 0. -1.
        -12    1    6    6    0    0  0.17836790980E+02  0.27274331006E+02  0.10060207195E+03  0.10574883983E+03  0.00000000000E+00 0.  1.
</event>
<event>
12    1  0.8196217E-002  0.1972027E+03  0.7818608E-02  0.1152670E+00
         21   -1    0    0  503  502  0.00000000000E+00  0.00000000000E+00  0.62955202206E+03  0.62955202206E+03  0.00000000000E+00 0.  1.
         21   -1    0    0  501  503 -0.00000000000E+00 -0.00000000000E+00 -0.31388710358E+03  0.31388710358E+03  0.00000000000E+00 0.  1.
          6    2    1    2  501    0  0.91508667383E+02  0.27986629766E+02 -0.26539336357E+03  0.33063959998E+03  0.17242917385E+03 0.  0.
         24    2    3    3    0    0  0.10948024302E+02  0.17224294958E+01 -0.21989058720E+03  0.23434620411E+03  0.80271084733E+02 0.  0.
         -6    2    1    2    0  502 -0.91508667383E+02 -0.27986629766E+02  0.58105828205E+03  0.61279952566E+03  0.16952121947E+03 0.  0.
        -24    2    5    5    0    0 -0.12058391137E+03 -0.52466594173E+02  0.50179759164E+03  0.52477120342E+03  0.79314373114E+02 0.  0.
          5    1    3    3  501    0  0.80560643081E+02  0.26264200270E+02 -0.45502776375E+02  0.96293395865E+02  0.47000000000E+01 0. -1.
        -11    1    4    4    0    0  0.26510782627E+02  0.20767090195E+02 -0.37895454027E+02  0.50696736252E+02  0.00000000000E+00 0.  1.
         12    1    4    4    0    0 -0.15562758324E+02 -0.19044660699E+02 -0.18199513317E+03  0.18364946786E+03  0.00000000000E+00 0. -1.
         -5    1    5    5    0  502  0.29075243986E+02  0.24479964407E+02  0.79260690414E+02  0.88028322233E+02  0.47000000000E+01 0.  1.
         13    1    6    6    0    0 -0.67244662055E+01  0.10731985715E+02  0.13406505670E+03  0.13466192257E+03  0.00000000000E+00 0. -1.
        -14    1    6    6    0    0 -0.11385944516E+03 -0.63198579888E+02  0.36773253494E+03  0.39010928085E+03  0.00000000000E+00 0.  1.
</event>
<event>
12    1  0.8196217E-002  0.1889716E+03  0.7818608E-02  0.1160182E+00
         21   -1    0    0  503  502  0.00000000000E+00  0.00000000000E+00  0.27345794302E+03  0.27345794302E+03  0.00000000000E+00 0. -1.
         21   -1    0    0  501  503 -0.00000000000E+00 -0.00000000000E+00 -0.16220757062E+03  0.16220757062E+03  0.00000000000E+00 0. -1.
          6    2    1    2  501    0  0.39831733178E+02  0.67777597844E+02 -0.44491842565E+02  0.19078618147E+03  0.16804604503E+03 0.  0.
         24    2    3    3    0    0  0.52472644209E+02  0.12823734599E+02  0.28857798092E+02  0.98147207483E+02  0.76695992507E+02 0.  0.
         -6    2    1    2    0  502 -0.39831733178E+02 -0.67777597844E+02  0.15574221496E+03  0.24487933217E+03  0.17184260258E+03 0.  0.
        -24    2    5    5    0    0 -0.40953704691E+02 -0.10232181254E+03  0.15937472984E+03  0.20981016118E+03  0.80455204760E+02 0.  0.
          5    1    3    3  501    0 -0.12640911031E+02  0.54953863245E+02 -0.73349640658E+02  0.92638973990E+02  0.47000000000E+01 0. -1.
        -11    1    4    4    0    0  0.16631751010E+02 -0.31980194421E+02  0.15496786315E+02  0.39236441773E+02  0.00000000000E+00 0.  1.
         12    1    4    4    0    0  0.35840893198E+02  0.44803929020E+02  0.13361011777E+02  0.58910765711E+02  0.00000000000E+00 0. -1.
         -5    1    5    5    0  502  0.11219715135E+01  0.34544214696E+02 -0.36325148818E+01  0.35069170983E+02  0.47000000000E+01 0.  1.
         11    1    6    6    0    0 -0.59994988993E+02 -0.84100029207E+02  0.95393865923E+02  0.14061366673E+03  0.00000000000E+00 0. -1.
        -12    1    6    6    0    0  0.19041284302E+02 -0.18221783334E+02  0.63980863922E+02  0.69196494448E+02  0.00000000000E+00 0.  1.
</event>
<event>
12    1  0.8196217E-002  0.1799168E+03  0.7818608E-02  0.1168837E+00
         21   -1    0    0  501  502  0.00000000000E+00  0.00000000000E+00  0.39939036011E+03  0.39939036011E+03  0.00000000000E+00 0. -1.
         21   -1    0    0  502  503 -0.00000000000E+00 -0.00000000000E+00 -0.80994283495E+02  0.80994283495E+02  0.00000000000E+00 0. -1.
         -6    2    1    2    0  503  0.37504866575E+02  0.16142767798E+02  0.12622144304E+03  0.21977698183E+03  0.17522233046E+03 0.  0.
        -24    2    3    3    0    0  0.36149302970E+02  0.33068423330E+02  0.22771185683E+01  0.94586722878E+02  0.80877500884E+02 0.  0.
          6    2    1    2  501    0 -0.37504866575E+02 -0.16142767798E+02  0.19217463357E+03  0.26060766177E+03  0.17122517226E+03 0.  0.
         24    2    5    5    0    0  0.30589532490E+02  0.29199665163E+02  0.53609857224E+02  0.99626076937E+02  0.72546526248E+02 0.  0.
          5    1    5    5  501    0 -0.68094399066E+02 -0.45342432961E+02  0.13856477635E+03  0.16098158483E+03  0.47000000000E+01 0. -1.
        -11    1    6    6    0    0 -0.14986072121E+02  0.93993776953E+00 -0.87504244833E+01  0.17379176311E+02  0.00000000000E+00 0.  1.
         12    1    6    6    0    0  0.45575604611E+02  0.28259727393E+02  0.62360281707E+02  0.82246900626E+02  0.00000000000E+00 0. -1.
         -5    1    3    3    0  503  0.13555636051E+01 -0.16925655532E+02  0.12394432447E+03  0.12519025895E+03  0.47000000000E+01 0.  1.
         11    1    4    4    0    0  0.45601146986E+02  0.54071024728E+02 -0.35758995720E+01  0.70823212150E+02  0.00000000000E+00 0. -1.
        -12    1    4    4    0    0 -0.94518440159E+01 -0.21002601398E+02  0.58530181403E+01  0.23763510728E+02  0.00000000000E+00 0.  1.
</event>
<event>
12    1  0.8196217E-002  0.3488878E+03  0.7818608E-02  0.1063158E+00
         21   -1    0    0  503  502  0.00000000000E+00  0.00000000000E+00  0.98208793174E+03  0.98208793174E+03  0.00000000000E+00 0. -1.
         21   -1    0    0  501  503 -0.00000000000E+00 -0.00000000000E+00 -0.12983459919E+03  0.12983459919E+03  0.00000000000E+00 0. -1.
          6    2    1    2  501    0  0.27936485540E+03  0.11829109201E+03  0.54797482198E+03  0.64961457136E+03  0.17229387952E+03 0.  0.
         24    2    3    3    0    0  0.94868852974E+02  0.98060863277E+02  0.21251674122E+03  0.26620584557E+03  0.84179301172E+02 0.  0.
         -6    2    1    2    0  502 -0.27936485540E+03 -0.11829109201E+03  0.30427851057E+03  0.46230795957E+03  0.17060402282E+03 0.  0.
        -24    2    5    5    0    0 -0.13033572793E+03 -0.86057218886E+02  0.23409681140E+03  0.29439052656E+03  0.86436208378E+02 0.  0.
          5    1    3    3  501    0  0.18449600243E+03  0.20230228738E+02  0.33545808076E+03  0.38340872579E+03  0.47000000000E+01 0. -1.
        -11    1    4    4    0    0  0.82322157357E+02  0.10552318819E+03  0.21304809133E+03  0.25159803269E+03  0.00000000000E+00 0.  1.
         12    1    4    4    0    0  0.12546695617E+02 -0.74623249140E+01 -0.53135010847E+00  0.14607812874E+02  0.00000000000E+00 0. -1.
         -5    1    5    5    0  502 -0.14902912747E+03 -0.32233873129E+02  0.70181699164E+02  0.16791743301E+03  0.47000000000E+01 0.  1.
         13    1    6    6    0    0 -0.12765568992E+03 -0.10131850594E+03  0.21536897981E+03  0.27008371347E+03  0.00000000000E+00 0. -1.
        -14    1    6    6    0    0 -0.26800380131E+01  0.15261287057E+02  0.18727831595E+02  0.24306813091E+02  0.00000000000E+00 0.  1.
</event>
<event>
12    1  0.8196217E-002  0.1815917E+03  0.7818608E-02  0.1166327E+00
         21   -1    0    0  503  502  0.00000000000E+00  0.00000000000E+00  0.74480275936E+02  0.74480275936E+02  0.00000000000E+00 0.  1.
         21   -1    0    0  501  503 -0.00000000000E+00 -0.00000000000E+00 -0.63985931705E+03  0.63985931705E+03  0.00000000000E+00 0.  1.
          6    2    1    2  501    0  0.42838173738E+02  0.38945938182E+02 -0.48133693302E+03  0.51445192949E+03  0.17211522139E+03 0.  0.
         24    2    3    3    0    0  0.68548896516E+01  0.73780112070E+02 -0.19506692256E+03  0.22379607578E+03  0.80889336811E+02 0.  0.
         -6    2    1    2    0  502 -0.42838173738E+02 -0.38945938182E+02 -0.84042108089E+02  0.19988766349E+03  0.17187235628E+03 0.  0.
        -24    2    5    5    0    0 -0.52736245642E+02 -0.16150361205E+01 -0.11461005693E+03  0.15040981418E+03  0.81877512835E+02 0.  0.
          5    1    3    3  501    0  0.35983284086E+02 -0.34834173889E+02 -0.28627001046E+03  0.29065585371E+03  0.47000000000E+01 0. -1.
        -11    1    4    4    0    0 -0.40418280443E+01  0.19386981035E+02  0.11999163368E+01  0.19840141300E+02  0.00000000000E+00 0.  1.
         12    1    4    4    0    0  0.10896717696E+02  0.54393131035E+02 -0.19626683890E+03  0.20395593449E+03  0.00000000000E+00 0. -1.
         -5    1    5    5    0  502  0.98980719042E+01 -0.37330902061E+02  0.30567948837E+02  0.49477849309E+02  0.47000000000E+01 0.  1.
         13    1    6    6    0    0 -0.19420630456E+02 -0.37018169613E+02 -0.81487582164E+02  0.91584561012E+02  0.00000000000E+00 0. -1.
        -14    1    6    6    0    0 -0.33315615186E+02  0.35403133493E+02 -0.33122474762E+02  0.58825253172E+02  0.00000000000E+00 0.  1.
</event>
<event>
12    1  0.8196217E-002  0.2007661E+03  0.7818608E-02  0.1149261E+00
         21   -1    0    0  503  502  0.00000000000E+00  0.00000000000E+00  0.32580072881E+03  0.32580072881E+03  0.00000000000E+00 0. -1.
         21   -1    0    0  501  503 -0.00000000000E+00 -0.00000000000E+00 -0.15009719538E+03  0.15009719538E+03  0.00000000000E+00 0.  1.
          6    2    1    2  501    0  0.96227112911E+02 -0.36956029348E+02 -0.12963970732E+02  0.20039389634E+03  0.17135998305E+03 0.  0.
         24    2    3    3    0    0  0.28962711338E+02  0.51224865390E+01  0.51201621148E+02  0.98244914951E+02  0.78519926065E+02 0.  0.
         -6    2    1    2    0  502 -0.96227112911E+02  0.36956029348E+02  0.18866750417E+03  0.27550402784E+03  0.17228359430E+03 0.  0.
        -24    2    5    5    0    0 -0.83398610791E+02 -0.40966987316E+02  0.97200027570E+02  0.15457034243E+03  0.76226787076E+02 0.  0.
          5    1    3    3  501    0  0.67264401573E+02 -0.42078515887E+02 -0.64165591880E+02  0.10214898139E+03  0.47000000000E+01 0. -1.
        -11    1    4    4    0    0 -0.12865199573E+02  0.14350093991E+02 -0.11399947583E+02  0.22391903950E+02  0.00000000000E+00 0.  1.
         12    1    4    4    0    0  0.41827910911E+02 -0.92276074520E+01  0.62601568731E+02  0.75853011002E+02  0.00000000000E+00 0. -1.
         -5    1    5    5    0  502 -0.12828502120E+02  0.77923016665E+02  0.91467476596E+02  0.12093368541E+03  0.47000000000E+01 0.  1.
         11    1    6    6    0    0 -0.32488516573E+02  0.21515125719E+02  0.39208648662E+02  0.55278589650E+02  0.00000000000E+00 0. -1.
        -12    1    6    6    0    0 -0.50910094218E+02 -0.62482113035E+02  0.57991378908E+02  0.99291752781E+02  0.00000000000E+00 0.  1.
</event>
<event>
12    1  0.8196217E-002  0.1928786E+03  0.7818608E-02  0.1155895E+00
         21   -1    0    0  503  502  0.00000000000E+00  0.00000000000E+00  0.45551187664E+02  0.45551187664E+02  0.00000000000E+00 0.  1.
         21   -1    0    0  501  503 -0.00000000000E+00 -0.00000000000E+00 -0.18737621244E+04  0.18737621244E+04  0.00000000000E+00 0. -1.
          6    2    1    2  501    0  0.15810423026E+02 -0.84596758298E+02 -0.16349436795E+04  0.16462815700E+04  0.17261399539E+03 0.  0.
         24    2    3    3    0    0  0.41997430652E+02 -0.14558906949E+02 -0.47504027153E+03  0.48396101786E+03  0.81112645576E+02 0.  0.
         -6    2    1    2    0  502 -0.15810423026E+02  0.84596758298E+02 -0.19326725716E+03  0.27303174204E+03  0.17259060949E+03 0.  0.
        -24    2    5    5    0    0 -0.22370414052E+02  0.27389220719E+02 -0.19431712868E+02  0.89847074845E+02  0.80276400996E+02 0.  0.
          5    1    3    3  501    0 -0.26187007627E+02 -0.70037851349E+02 -0.11599034080E+04  0.11623205521E+04  0.47000000000E+01 0. -1.
        -13    1    4    4    0    0  0.46232619582E+02 -0.40558012828E+02 -0.39334352711E+03  0.39812251612E+03  0.00000000000E+00 0.  1.
         14    1    4    4    0    0 -0.42351889296E+01  0.25999105879E+02 -0.81696744420E+02  0.85838501738E+02  0.00000000000E+00 0. -1.
         -5    1    5    5    0  502  0.65599910268E+01  0.57207537579E+02 -0.17383554429E+03  0.18318466720E+03  0.47000000000E+01 0.  1.
         13    1    6    6    0    0 -0.30117410046E+02  0.25218825529E+02 -0.46927547249E+02  0.61198384290E+02  0.00000000000E+00 0. -1.
        -14    1    6    6    0    0  0.77469959936E+01  0.21703951903E+01  0.27495834381E+02  0.28648690555E+02  0.00000000000E+00 0.  1.
</event>
<event>
12    1  0.8196217E-002  0.2527151E+03  0.7818608E-02  0.1112372E+00
         21   -1    0    0  503  502  0.00000000000E+00  0.00000000000E+00  0.32144614992E+03  0.32144614992E+03  0.00000000000E+00 0. -1.
         21   -1    0    0  501  503 -0.00000000000E+00 -0.00000000000E+00 -0.25993556008E+03  0.25993556008E+03  0.00000000000E+00 0. -1.
          6    2    1    2  501    0 -0.13647225030E+03 -0.11274313781E+03 -0.11447760413E+03  0.27743477377E+03  0.18035864721E+03 0.  0.
         24    2    3    3    0    0 -0.15812060589E+03 -0.11733462630E+03 -0.63341504022E+02  0.22151765832E+03  0.79299346027E+02 0.  0.
         -6    2    1    2    0  502  0.13647225030E+03  0.11274313781E+03  0.17598819396E+03  0.30394693623E+03  0.17342492729E+03 0.  0.
        -24    2    5    5    0    0  0.16067302521E+03  0.71246177023E+02  0.10947835189E+03  0.22176832372E+03  0.79396732324E+02 0.  0.
          5    1    3    3  501    0  0.21648355584E+02  0.45914884951E+01 -0.51136100104E+02  0.55917115448E+02  0.47000000000E+01 0. -1.
        -11    1    4    4    0    0 -0.89843394053E+02 -0.20516020105E+02 -0.14137536222E+02  0.93234180783E+02  0.00000000000E+00 0.  1.
         12    1    4    4    0    0 -0.68277211836E+02 -0.96818606196E+02 -0.49203967801E+02  0.12828347754E+03  0.00000000000E+00 0. -1.
         -5    1    5    5    0  502 -0.24200774910E+02  0.41496960783E+02  0.66509842075E+02  0.82178612505E+02  0.47000000000E+01 0.  1.
         13    1    6    6    0    0  0.14372225126E+02  0.23254733432E+02 -0.75608489065E+01  0.28363884047E+02  0.00000000000E+00 0. -1.
        -14    1    6    6    0    0  0.14630080009E+03  0.47991443591E+02  0.11703920079E+03  0.19340443968E+03  0.00000000000E+00 0.  1.
</event>
<event>
12    1  0.8196217E-002  0.1837949E+03  0.7818608E-02  0.1164424E+00
         21   -1    0    0  501  502  0.00000000000E+00  0.00000000000E+00  0.39629774794E+03  0.39629774794E+03  0.00000000000E+00 0. -1.
         21   -1    0    0  502  503 -0.00000000000E+00 -0.00000000000E+00 -0.11645572709E+03  0.11645572709E+03  0.00000000000E+00 0. -1.
         -6    2    1    2    0  503 -0.54624662302E+02  0.24841030071E+02  0.58862665014E+01  0.18285604116E+03  0.17262894644E+03 0.  0.
        -24    2    3    3    0    0 -0.49659581942E+02 -0.45024287739E+02  0.37809076366E+02  0.10573943824E+03  0.72512357422E+02 0.  0.
          6    2    1    2  501    0  0.54624662302E+02 -0.24841030071E+02  0.27395575434E+03  0.32989743387E+03  0.17372285696E+03 0.  0.
         24    2    5    5    0    0  0.11957916614E+02  0.27004193936E+02  0.23912436340E+03  0.25411026982E+03  0.80742490643E+02 0.  0.
          5    1    5    5  501    0  0.42666745688E+02 -0.51845224008E+02  0.34831390938E+02  0.75787164050E+02  0.47000000000E+01 0. -1.
        -11    1    6    6    0    0 -0.27250503731E+02  0.15259625031E+02  0.17686965500E+03  0.17960601596E+03  0.00000000000E+00 0.  1.
         12    1    6    6    0    0  0.39208420346E+02  0.11744568905E+02  0.62254708406E+02  0.74504253862E+02  0.00000000000E+00 0. -1.
         -5    1    3    3    0  503 -0.49650803599E+01  0.69865317811E+02 -0.31922809865E+02  0.77116602917E+02  0.47000000000E+01 0.  1.
         11    1    4    4    0    0 -0.37733256446E+02  0.12011333016E+02  0.22280047233E+02  0.45436453070E+02  0.00000000000E+00 0. -1.
        -12    1    4    4    0    0 -0.11926325496E+02 -0.57035620756E+02  0.15529029133E+02  0.60302985172E+02  0.00000000000E+00 0.  1.
</event>
<event>
12    1  0.8196217E-002  0.2034795E+03  0.7818608E-02  0.1150336E+00
         21   -1    0    0  501  502  0.00000000000E+00  0.00000000000E+00  0.90238277004E+02  0.90238277004E+02  0.00000000000E+00 0. -1.
         21   -1    0    0  502  503 -0.00000000000E+00 -0.00000000000E+00 -0.79682773214E+03  0.79682773214E+03  0.00000000000E+00 0. -1.
         -6    2    1    2    0  503  0.56858173453E+02 -0.46607096384E+02 -0.64917610028E+03  0.67564183773E+03  0.17221268941E+03 0.  0.
        -24    2    3    3    0    0  0.15469846937E+02 -0.88147289209E+02 -0.33161874982E+03  0.35268155840E+03  0.80025156327E+02 0.  0.
          6    2    1    2  501    0 -0.56858173453E+02  0.46607096384E+02 -0.57413354863E+02  0.21142417142E+03  0.18973353321E+03 0.  0.
         24    2    5    5    0    0 -0.77176523421E+02  0.72671239855E+02 -0.94076343528E+02  0.16184151661E+03  0.78134456021E+02 0.  0.
          5    1    5    5  501    0  0.20318349969E+02 -0.26064143471E+02  0.36662988665E+02  0.49582654812E+02  0.47000000000E+01 0. -1.
        -11    1    6    6    0    0 -0.14599644671E+01  0.74803207638E+01 -0.53438348115E+02  0.53979104700E+02  0.00000000000E+00 0.  1.
         12    1    6    6    0    0 -0.75716558954E+02  0.65190919091E+02 -0.40637995413E+02  0.10786241191E+03  0.00000000000E+00 0. -1.
         -5    1    3    3    0  503  0.41388326516E+02  0.41540192825E+02 -0.31755735046E+03  0.32296027932E+03  0.47000000000E+01 0.  1.
         13    1    4    4    0    0  0.20025492862E+02 -0.17956574044E+02 -0.21363813786E+03  0.21532466850E+03  0.00000000000E+00 0. -1.
        -14    1    4    4    0    0 -0.45556459247E+01 -0.70190715165E+02 -0.11798061196E+03  0.13735688990E+03  0.00000000000E+00 0.  1.
</event>
<event>
12    1  0.8196217E-002  0.2810146E+03  0.7818608E-02  0.1095155E+00
         21   -1    0    0  503  502  0.00000000000E+00  0.00000000000E+00  0.12483594844E+03  0.12483594844E+03  0.00000000000E+00 0. -1.
         21   -1    0    0  501  503 -0.00000000000E+00 -0.00000000000E+00 -0.66503175033E+03  0.66503175033E+03  0.00000000000E+00 0. -1.
          6    2    1    2  501    0 -0.21961623732E+03 -0.35364369397E+02 -0.18238781581E+03  0.33489983430E+03  0.17149534496E+03 0.  0.
         24    2    3    3    0    0 -0.16766884401E+03 -0.71840529027E+02 -0.81117064988E+02  0.21528839311E+03  0.80592872586E+02 0.  0.
         -6    2    1    2    0  502  0.21961623732E+03  0.35364369397E+02 -0.35780798609E+03  0.45496786447E+03  0.17171858513E+03 0.  0.
        -24    2    5    5    0    0  0.16328436626E+03  0.81432952791E+02 -0.30774087019E+03  0.36651222493E+03  0.79584280944E+02 0.  0.
          5    1    3    3  501    0 -0.51947393302E+02  0.36476159630E+02 -0.10127075082E+03  0.11961144119E+03  0.47000000000E+01 0. -1.
        -11    1    4    4    0    0 -0.39240865539E+02 -0.57173449594E+02 -0.19150833486E+02  0.71940275854E+02  0.00000000000E+00 0.  1.
         12    1    4    4    0    0 -0.12842797848E+03 -0.14667079434E+02 -0.61966231502E+02  0.14334811726E+03  0.00000000000E+00 0. -1.
         -5    1    5    5    0  502  0.56331871058E+02 -0.46068583394E+02 -0.50067115901E+02  0.88455639546E+02  0.47000000000E+01 0.  1.
         13    1    6    6    0    0  0.56634899700E+02  0.27483032670E+02 -0.43558277006E+02  0.76551632540E+02  0.00000000000E+00 0. -1.
        -14    1    6    6    0    0  0.10664946656E+03  0.53949920122E+02 -0.26418259318E+03  0.28996059239E+03  0.00000000000E+00 0.  1.
</event>
<event>
12    1  0.8196217E-002  0.1932142E+03  0.7818608E-02  0.1155654E+00
         21   -1    0    0  501  502  0.00000000000E+00  0.00000000000E+00  0.27914635329E+03  0.27914635329E+03  0.00000000000E+00 0. -1.
         21   -1    0    0  502  503 -0.00000000000E+00 -0.00000000000E+00 -0.14541136943E+03  0.14541136943E+03  0.00000000000E+00 0. -1.
         -6    2    1    2    0  503  0.86694335357E+02  0.72190858953E+01  0.61887340466E+01  0.19304144273E+03  0.17221694225E+03 0.  0.
        -24    2    3    3    0    0  0.21115411932E+01 -0.82746640138E+01  0.15803068838E+02  0.10638793277E+03  0.10486051012E+03 0.  0.
          6    2    1    2  501    0 -0.86694335357E+02 -0.72190858953E+01  0.12754624981E+03  0.23151627999E+03  0.17252164814E+03 0.  0.
         24    2    5    5    0    0 -0.10312687291E+03 -0.34725883343E+02  0.42153241601E+02  0.14018880304E+03  0.77685042511E+02 0.  0.
          5    1    5    5  501    0  0.16432537554E+02  0.27506797447E+02  0.85393008208E+02  0.91327476955E+02  0.47000000000E+01 0. -1.
        -11    1    6    6    0    0 -0.20621609388E+02  0.21883631581E+02  0.24053812193E+02  0.38506233079E+02  0.00000000000E+00 0.  1.
         12    1    6    6    0    0 -0.82505263523E+02 -0.56609514924E+02  0.18099429408E+02  0.10168256996E+03  0.00000000000E+00 0. -1.
         -5    1    3    3    0  503  0.84582794164E+02  0.15493749909E+02 -0.96143347919E+01  0.86653509960E+02  0.47000000000E+01 0.  1.
         13    1    4    4    0    0  0.48362385082E+02  0.53107162201E+01 -0.12835462497E+02  0.50317721482E+02  0.00000000000E+00 0. -1.
        -14    1    4    4    0    0 -0.46250843889E+02 -0.13585380234E+02  0.28638531336E+02  0.56070211285E+02  0.00000000000E+00 0.  1.
</event>
<event>
12    1  0.8196217E-002  0.2261691E+03  0.7818608E-02  0.1129523E+00
         21   -1    0    0  501  502  0.00000000000E+00  0.00000000000E+00  0.18806307562E+03  0.18806307562E+03  0.00000000000E+00 0.  1.
         21   -1    0    0  502  503 -0.00000000000E+00 -0.00000000000E+00 -0.29133674200E+03  0.29133674200E+03  0.00000000000E+00 0. -1.
         -6    2    1    2    0  503 -0.66484599570E+01  0.14610923439E+03 -0.11495293494E+03  0.25292935907E+03  0.17136794634E+03 0.  0.
        -24    2    3    3    0    0  0.25051126368E+00  0.94970586424E+02  0.33937330423E+01  0.12373655376E+03  0.79244824889E+02 0.  0.
          6    2    1    2  501    0  0.66484599570E+01 -0.14610923439E+03  0.11679268559E+02  0.22647045855E+03  0.17251189202E+03 0.  0.
         24    2    5    5    0    0 -0.40982370570E+02 -0.10460938855E+03  0.55795231217E+02  0.14927433570E+03  0.80913785002E+02 0.  0.
          5    1    5    5  501    0  0.47630830527E+02 -0.41499845837E+02 -0.44115962658E+02  0.77196122846E+02  0.47000000000E+01 0. -1.
        -13    1    6    6    0    0 -0.35671560575E+02 -0.22436864600E+01  0.10871822015E+02  0.37358946408E+02  0.00000000000E+00 0.  1.
         14    1    6    6    0    0 -0.53108099946E+01 -0.10236570209E+03  0.44923409202E+02  0.11191538930E+03  0.00000000000E+00 0. -1.
         -5    1    3    3    0  503 -0.68989712207E+01  0.51138647963E+02 -0.11834666799E+03  0.12919280531E+03  0.47000000000E+01 0.  1.
         11    1    4    4    0    0  0.41476564800E+00  0.74898013209E+02 -0.33255587865E+02  0.81950097849E+02  0.00000000000E+00 0. -1.
        -12    1    4    4    0    0 -0.16425438432E+00  0.20072573215E+02  0.36649320907E+02  0.41786455915E+02  0.00000000000E+00 0.  1.
</event>
<event>
12    1  0.8196217E-002  0.1756823E+03  0.7818608E-02  0.1172399E+00
         21   -1    0    0  503  502  0.00000000000E+00  0.00000000000E+00  0.38492606576E+03  0.38492606576E+03  0.00000000000E+00 0. -1.
         21   -1    0    0  501  503 -0.00000000000E+00 -0.00000000000E+00 -0.91331414734E+02  0.91331414734E+02  0.00000000000E+00 0. -1.
          6    2    1    2  501    0 -0.13979434420E+02  0.28286460239E+02  0.23285022111E+03  0.29169075183E+03  0.17282569489E+03 0.  0.
         24    2    3    3    0    0 -0.74641885277E+02 -0.21239309864E+02  0.11459211233E+03  0.14977597057E+03  0.57262289784E+02 0.  0.
         -6    2    1    2    0  502  0.13979434420E+02 -0.28286460239E+02  0.60744429917E+02  0.18456672866E+03  0.17140432650E+03 0.  0.
        -24    2    5    5    0    0 -0.57059710252E+02 -0.55655967841E+01  0.23612316167E+02  0.10111805232E+03  0.79878236262E+02 0.  0.
          5    1    3    3  501    0  0.60662450857E+02  0.49525770103E+02  0.11825810878E+03  0.14191478127E+03  0.47000000000E+01 0. -1.
        -13    1    4    4    0    0 -0.48550160542E+02 -0.26688011951E+02  0.10938857612E+03  0.12261822318E+03  0.00000000000E+00 0.  1.
         14    1    4    4    0    0 -0.26091724735E+02  0.54487020870E+01  0.52035362046E+01  0.27157747387E+02  0.00000000000E+00 0. -1.
         -5    1    5    5    0  502  0.71039144673E+02 -0.22720863454E+02  0.37132113750E+02  0.83448676343E+02  0.47000000000E+01 0.  1.
         13    1    6    6    0    0 -0.12664556603E+02 -0.17937583267E+02 -0.25578632166E+02  0.33710744740E+02  0.00000000000E+00 0. -1.
        -14    1    6    6    0    0 -0.44395153649E+02  0.12371986483E+02  0.49190948333E+02  0.67407307579E+02  0.00000000000E+00 0.  1.
</event>
<event>
12    1  0.8196217E-002  0.1995174E+03  0.7818608E-02  0.1150354E+00
         21   -1    0    0  503  502  0.00000000000E+00  0.00000000000E+00  0.19913438247E+02  0.19913438247E+02  0.00000000000E+00 0.  1.
         21   -1    0    0  501  503 -0.00000000000E+00 -0.00000000000E+00 -0.20101167452E+04  0.20101167452E+04  0.00000000000E+00 0.  1.
          6    2    1    2  501    0  0.56247067128E+02 -0.80607997564E+02 -0.89402999948E+03  0.91602229348E+03  0.17362551760E+03 0.  0.
         24    2    3    3    0    0  0.56779430764E+02 -0.79154551966E+02 -0.34972757383E+03  0.37169737537E+03  0.79750963027E+02 0.  0.
         -6    2    1    2    0  502 -0.56247067128E+02  0.80607997564E+02 -0.10961733075E+04  0.11140078900E+04  0.17250007840E+03 0.  0.
        -24    2    5    5    0    0 -0.91765781405E+02  0.28304280719E+02 -0.87823369882E+03  0.88703427722E+03  0.79456203556E+02 0.  0.
          5    1    3    3  501    0 -0.53236363623E+00 -0.14534455975E+01 -0.54430242565E+03  0.54432491811E+03  0.47000000000E+01 0. -1.
        -11    1    4    4    0    0  0.72163731648E+02 -0.82839816697E+02 -0.31243167029E+03  0.33118512647E+03  0.00000000000E+00 0.  1.
         12    1    4    4    0    0 -0.15384300884E+02  0.36852647304E+01 -0.37295903542E+02  0.40512248898E+02  0.00000000000E+00 0. -1.
         -5    1    5    5    0  502  0.35518714278E+02  0.52303716845E+02 -0.21793960868E+03  0.22697361277E+03  0.47000000000E+01 0.  1.
         13    1    6    6    0    0 -0.35756368261E+02 -0.34468897195E+01 -0.61474463376E+03  0.61579327997E+03  0.00000000000E+00 0. -1.
        -14    1    6    6    0    0 -0.56009413144E+02  0.31751170438E+02 -0.26348906506E+03  0.27124099725E+03  0.00000000000E+00 0.  1.
</event>
<event>
12    1  0.8196217E-002  0.1939103E+03  0.7818608E-02  0.1155170E+00
         21   -1    0    0  503  502  0.00000000000E+00  0.00000000000E+00  0.22552955251E+03  0.22552955251E+03  0.00000000000E+00 0.  1.
         21   -1    0    0  501  503 -0.00000000000E+00 -0.00000000000E+00 -0.18348563847E+03  0.18348563847E+03  0.00000000000E+00 0.  1.
          6    2    1    2  501    0 -0.76054886675E+02 -0.46475828109E+02 -0.42092640732E+02  0.19842625294E+03  0.17221161129E+03 0.  0.
         24    2    3    3    0    0 -0.46670218640E+02  0.33653690221E+02 -0.52924787850E+02  0.11226579893E+03  0.80572304590E+02 0.  0.
         -6    2    1    2    0  502  0.76054886675E+02  0.46475828109E+02  0.84136554770E+02  0.21058893804E+03  0.17124366438E+03 0.  0.
        -24    2    5    5    0    0  0.44936377760E+02 -0.35495292930E+02  0.75596777422E+02  0.12236964265E+03  0.77332159026E+02 0.  0.
          5    1    3    3  501    0 -0.29384668035E+02 -0.80129518330E+02  0.10832147117E+02  0.86160454006E+02  0.47000000000E+01 0. -1.
        -13    1    4    4    0    0 -0.20741955180E+02 -0.13630221338E+02  0.12246550506E+02  0.27676517803E+02  0.00000000000E+00 0.  1.
         14    1    4    4    0    0 -0.25928263459E+02  0.47283911559E+02 -0.65171338356E+02  0.84589281126E+02  0.00000000000E+00 0. -1.
         -5    1    5    5    0  502  0.31118508915E+02  0.81971121039E+02  0.85397773484E+01  0.88219295387E+02  0.47000000000E+01 0.  1.
         11    1    6    6    0    0  0.55464573344E+02 -0.32302272135E+02  0.22299459129E+02  0.67948668557E+02  0.00000000000E+00 0. -1.
        -12    1    6    6    0    0 -0.10528195584E+02 -0.31930207943E+01  0.53297318293E+02  0.54420974093E+02  0.00000000000E+00 0.  1.
</event>
<event>
12    1  0.8196217E-002  0.3614709E+03  0.7818608E-02  0.1058201E+00
         21   -1    0    0  503  502  0.00000000000E+00  0.00000000000E+00  0.12475284100E+03  0.12475284100E+03  0.00000000000E+00 0.  1.
         21   -1    0    0  501  503 -0.00000000000E+00 -0.00000000000E+00 -0.10454039922E+04  0.10454039922E+04  0.00000000000E+00 0. -1.
          6    2    1    2  501    0 -0.54235470603E+02  0.31197004382E+03 -0.49701737896E+03  0.61456282630E+03  0.17433989206E+03 0.  0.
         24    2    3    3    0    0 -0.42920604466E+01  0.29707882976E+03 -0.40690721908E+03  0.51036098664E+03  0.81367062575E+02 0.  0.
         -6    2    1    2    0  502  0.54235470603E+02 -0.31197004382E+03 -0.42363377221E+03  0.55559400687E+03  0.17015385095E+03 0.  0.
        -24    2    5    5    0    0  0.89043076348E+02 -0.29584011919E+03 -0.35888106361E+03  0.48018348269E+03  0.79564525112E+02 0.  0.
          5    1    3    3  501    0 -0.49943410156E+02  0.14891214068E+02 -0.90110159878E+02  0.10420183966E+03  0.47000000000E+01 0. -1.
        -13    1    4    4    0    0  0.13631068423E+02  0.88892023230E+02 -0.70205110761E+02  0.11408924313E+03  0.00000000000E+00 0.  1.
         14    1    4    4    0    0 -0.17923128869E+02  0.20818680653E+03 -0.33670210832E+03  0.39627174352E+03  0.00000000000E+00 0. -1.
         -5    1    5    5    0  502 -0.34807605745E+02 -0.16129924634E+02 -0.64752708597E+02  0.75410524179E+02  0.47000000000E+01 0.  1.
         13    1    6    6    0    0  0.34007270486E+02 -0.15098634105E+03 -0.23690184253E+03  0.28297677047E+03  0.00000000000E+00 0. -1.
        -14    1    6    6    0    0  0.55035805861E+02 -0.14485377814E+03 -0.12197922108E+03  0.19720671222E+03  0.00000000000E+00 0.  1.
</event>
<event>
12    1  0.8196217E-002  0.1798549E+03  0.7818608E-02  0.1168129E+00
         21   -1    0    0  501  502  0.00000000000E+00  0.00000000000E+00  0.13500730854E+03  0.13500730854E+03  0.00000000000E+00 0. -1.
         21   -1    0    0  502  503 -0.00000000000E+00 -0.00000000000E+00 -0.25402191163E+03  0.25402191163E+03  0.00000000000E+00 0.  1.
         -6    2    1    2    0  503 -0.17440470345E+02  0.50464268264E+02 -0.10758345097E+03  0.20957572318E+03  0.17174682659E+03 0.  0.
        -24    2    3    3    0    0  0.44773902039E+02 -0.10168188821E+02 -0.63471411887E+02  0.11203145130E+03  0.80089522321E+02 0.  0.
          6    2    1    2  501    0  0.17440470345E+02 -0.50464268264E+02 -0.11431152114E+02  0.17945349700E+03  0.17094465177E+03 0.  0.
         24    2    5    5    0    0 -0.11339007657E+02 -0.45324046907E+02 -0.67558638182E+02  0.11599433752E+03  0.81900393283E+02 0.  0.
          5    1    5    5  501    0  0.28779478002E+02 -0.51402213561E+01  0.56127486068E+02  0.63459159480E+02  0.47000000000E+01 0. -1.
        -13    1    6    6    0    0  0.63304683153E+01  0.19019833541E+02 -0.38106960415E+02  0.43057744124E+02  0.00000000000E+00 0.  1.
         14    1    6    6    0    0 -0.17669475972E+02 -0.64343880448E+02 -0.29451677767E+02  0.72936593391E+02  0.00000000000E+00 0. -1.
         -5    1    3    3    0  503 -0.62214372384E+02  0.60632457085E+02 -0.44112039087E+02  0.97544271875E+02  0.47000000000E+01 0.  1.
         11    1    4    4    0    0 -0.49124521360E+01  0.21105079088E+02  0.45874602278E+01  0.22149522357E+02  0.00000000000E+00 0. -1.
        -12    1    4    4    0    0  0.49686354175E+02 -0.31273267909E+02 -0.68058872115E+02  0.89881928943E+02  0.00000000000E+00 0.  1.
</event>
<event>
12    1  0.8196217E-002  0.1917234E+03  0.7818608E-02  0.1157371E+00
         21   -1    0    0  501  502  0.00000000000E+00  0.00000000000E+00  0.20823162202E+03  0.20823162202E+03  0.00000000000E+00 0. -1.
         21   -1    0    0  502  503 -0.00000000000E+00 -0.00000000000E+00 -0.17959323972E+03  0.17959323972E+03  0.00000000000E+00 0.  1.
         -6    2    1    2    0  503 -0.82382161431E+02 -0.17644763599E+02  0.46536076275E+02  0.19729027388E+03  0.17221988146E+03 0.  0.
        -24    2    3    3    0    0 -0.58840426954E+02 -0.53442679481E+02  0.81941239673E+02  0.14151106952E+03  0.83622366650E+02 0.  0.
          6    2    1    2  501    0  0.82382161431E+02  0.17644763599E+02 -0.17897693971E+02  0.19053458786E+03  0.16995571046E+03 0.  0.
         24    2    5    5    0    0  0.49832622837E+02 -0.28985553993E+02 -0.61326987729E+02  0.11882648136E+03  0.83876579626E+02 0.  0.
          5    1    5    5  501    0  0.32549538593E+02  0.46630317591E+02  0.43429293758E+02  0.71708106499E+02  0.47000000000E+01 0. -1.
        -11    1    6    6    0    0  0.25408739737E+02 -0.40221097916E+02  0.44355434244E+01  0.47780904324E+02  0.00000000000E+00 0.  1.
         12    1    6    6    0    0  0.24423883100E+02  0.11235543923E+02 -0.65762531153E+02  0.71045577038E+02  0.00000000000E+00 0. -1.
         -5    1    3    3    0  503 -0.23541734477E+02  0.35797915882E+02 -0.35405163398E+02  0.55779204359E+02  0.47000000000E+01 0.  1.
         13    1    4    4    0    0 -0.42452650609E+02 -0.73434044245E+02  0.43875535374E+02  0.95497900512E+02  0.00000000000E+00 0. -1.
        -14    1    4    4    0    0 -0.16387776346E+02  0.19991364764E+02  0.38065704299E+02  0.46013169011E+02  0.00000000000E+00 0.  1.
</event>
<event>
12    1  0.8196217E-002  0.2380472E+03  0.7818608E-02  0.1121308E+00
         21   -1    0    0  501  502  0.00000000000E+00  0.00000000000E+00  0.17162290620E+04  0.17162290620E+04  0.00000000000E+00 0. -1.
         21   -1    0    0  502  503 -0.00000000000E+00 -0.00000000000E+00 -0.32998320745E+02  0.32998320745E+02  0.00000000000E+00 0. -1.
         -6    2    1    2    0  503 -0.60053183312E+01 -0.16359560730E+03  0.78470212278E+03  0.82001456294E+03  0.17282035576E+03 0.  0.
        -24    2    3    3    0    0  0.16625272326E+02 -0.11511979181E+03  0.72970177256E+03  0.74314339250E+03  0.79173599092E+02 0.  0.
          6    2    1    2  501    0  0.60053183312E+01  0.16359560730E+03  0.89852861849E+03  0.92921281982E+03  0.17112334644E+03 0.  0.
         24    2    5    5    0    0 -0.56113052212E+00  0.22479278698E+02  0.19791046548E+03  0.21447872746E+03  0.79542060257E+02 0.  0.
          5    1    5    5  501    0  0.65664488533E+01  0.14111632860E+03  0.70061815301E+03  0.71473409236E+03  0.47000000000E+01 0. -1.
        -13    1    6    6    0    0 -0.12736924351E+01  0.39779147222E+02  0.42954636869E+02  0.58558549117E+02  0.00000000000E+00 0.  1.
         14    1    6    6    0    0  0.71256191297E+00 -0.17299868524E+02  0.15495582861E+03  0.15592017834E+03  0.00000000000E+00 0. -1.
         -5    1    3    3    0  503 -0.22630590657E+02 -0.48475815488E+02  0.55000350222E+02  0.76871170443E+02  0.47000000000E+01 0.  1.
         13    1    4    4    0    0 -0.31013298122E+02 -0.55795217176E+02  0.29425023282E+03  0.30109488610E+03  0.00000000000E+00 0. -1.
        -14    1    4    4    0    0  0.47638570448E+02 -0.59324574633E+02  0.43545153973E+03  0.44204850639E+03  0.00000000000E+00 0.  1.
</event>
<event>
12    1  0.8196217E-002  0.1761518E+03  0.7818608E-02  0.1171813E+00
         21   -1    0    0  501  502  0.00000000000E+00  0.00000000000E+00  0.74512752011E+02  0.74512752011E+02  0.00000000000E+00 0. -1.
         21   -1    0    0  502  503 -0.00000000000E+00 -0.00000000000E+00 -0.47116593662E+03  0.47116593662E+03  0.00000000000E+00 0. -1.
         -6    2    1    2    0  503 -0.10946312038E+02 -0.33455650263E+02 -0.29270681317E+03  0.34114428948E+03  0.17164802792E+03 0.  0.
        -24    2    3    3    0    0  0.68677138885E+01  0.91966426233E+01 -0.47110328379E+02  0.91191732083E+02  0.77232151535E+02 0.  0.
          6    2    1    2  501    0  0.10946312038E+02  0.33455650263E+02 -0.10394637143E+03  0.20453439914E+03  0.17259887027E+03 0.  0.
         24    2    5    5    0    0  0.72536413300E+02  0.13624254222E+02 -0.48645080763E+02  0.11928800572E+03  0.80100766964E+02 0.  0.
          5    1    5    5  501    0 -0.61590101262E+02  0.19831396040E+02 -0.55301290668E+02  0.85246393425E+02  0.47000000000E+01 0. -1.
        -11    1    6    6    0    0  0.54955106611E+02  0.43868924585E+02 -0.46370961404E+02  0.84230709058E+02  0.00000000000E+00 0.  1.
         12    1    6    6    0    0  0.17581306690E+02 -0.30244670362E+02 -0.22741193582E+01  0.35057296660E+02  0.00000000000E+00 0. -1.
         -5    1    3    3    0  503 -0.17814025927E+02 -0.42652292886E+02 -0.24559648479E+03  0.24995255740E+03  0.47000000000E+01 0.  1.
         11    1    4    4    0    0  0.24623799019E+02  0.36475983111E+02 -0.35806687121E+02  0.56735770592E+02  0.00000000000E+00 0. -1.
        -12    1    4    4    0    0 -0.17756085131E+02 -0.27279340487E+02 -0.11303641258E+02  0.34455961491E+02  0.00000000000E+00 0.  1.
</event>
<event>
12    1  0.8196217E-002  0.2487921E+03  0.7818608E-02  0.1114257E+00
         21   -1    0    0  503  502  0.00000000000E+00  0.00000000000E+00  0.69700348268E+02  0.69700348268E+02  0.00000000000E+00 0.  1.
         21   -1    0    0  501  503 -0.00000000000E+00 -0.00000000000E+00 -0.10309715047E+04  0.10309715047E+04  0.00000000000E+00 0. -1.
          6    2    1    2  501    0  0.16800458736E+02 -0.17784115220E+03 -0.27372958621E+03  0.36989918568E+03  0.17316983100E+03 0.  0.
         24    2    3    3    0    0  0.63630968266E+02 -0.16555872784E+03 -0.17499015733E+03  0.25982866562E+03  0.73693879178E+02 0.  0.
         -6    2    1    2    0  502 -0.16800458736E+02  0.17784115220E+03 -0.68754157027E+03  0.73077266733E+03  0.17148046432E+03 0.  0.
        -24    2    5    5    0    0 -0.10792096457E+02  0.18549070023E+03 -0.69051088513E+03  0.71956897004E+03  0.80317812115E+02 0.  0.
          5    1    3    3  501    0 -0.46830509530E+02 -0.12282424362E+02 -0.98739428879E+02  0.11007052006E+03  0.47000000000E+01 0. -1.
        -13    1    4    4    0    0  0.28783435526E+02 -0.82532896434E+02 -0.36682349158E+02  0.94793248147E+02  0.00000000000E+00 0.  1.
         14    1    4    4    0    0  0.34847532740E+02 -0.83025831408E+02 -0.13830780818E+03  0.16503541748E+03  0.00000000000E+00 0. -1.
         -5    1    5    5    0  502 -0.60083622788E+01 -0.76495480306E+01  0.29693148591E+01  0.11203697295E+02  0.47000000000E+01 0.  1.
         11    1    6    6    0    0 -0.29993125407E+02  0.16272178512E+03 -0.49802069391E+03  0.52478812723E+03  0.00000000000E+00 0. -1.
        -12    1    6    6    0    0  0.19201028950E+02  0.22768915116E+02 -0.19249019122E+03  0.19478084280E+03  0.00000000000E+00 0.  1.
</event>
<event>
12    1  0.8196217E-002  0.1761821E+03  0.7818608E-02  0.1172041E+00
         21   -1    0    0  503  502  0.00000000000E+00  0.00000000000E+00  0.39622529437E+03  0.39622529437E+03  0.00000000000E+00 0. -1.
         21   -1    0    0  501  503 -0.00000000000E+00 -0.00000000000E+00 -0.77572830472E+02  0.77572830472E+02  0.00000000000E+00 0. -1.
          6    2    1    2  501    0 -0.81410753078E+01 -0.30425753497E+02  0.16888371387E+03  0.24405297361E+03  0.17334399768E+03 0.  0.
         24    2    3    3    0    0  0.61065891054E+02 -0.27760469430E+02  0.95536668725E+02  0.14306492004E+03  0.82708098520E+02 0.  0.
         -6    2    1    2    0  502  0.81410753078E+01  0.30425753497E+02  0.14976875002E+03  0.22974515123E+03  0.17134804477E+03 0.  0.
        -24    2    5    5    0    0  0.30154788064E+02  0.81104891686E+02  0.82797149340E+02  0.14279537323E+03  0.77767833825E+02 0.  0.
          5    1    3    3  501    0 -0.69206966362E+02 -0.26652840670E+01  0.73347045150E+02  0.10098805357E+03  0.47000000000E+01 0. -1.
        -11    1    4    4    0    0  0.21979455499E+00  0.24356635803E+02  0.11422860042E+02  0.26903080657E+02  0.00000000000E+00 0.  1.
         12    1    4    4    0    0  0.60846096499E+02 -0.52117105233E+02  0.84113808682E+02  0.11616183938E+03  0.00000000000E+00 0. -1.
         -5    1    5    5    0  502 -0.22013712756E+02 -0.50679138189E+02  0.66971600680E+02  0.86949778002E+02  0.47000000000E+01 0.  1.
         13    1    6    6    0    0 -0.51712103569E+01 -0.29366182834E+00  0.46722940804E+02  0.47009157100E+02  0.00000000000E+00 0. -1.
        -14    1    6    6    0    0  0.35325998421E+02  0.81398553514E+02  0.36074208536E+02  0.95786216128E+02  0.00000000000E+00 0.  1.
</event>
<event>
12    1  0.8196217E-002  0.1777670E+03  0.7818608E-02  0.1170600E+00
         21   -1    0    0  501  502  0.00000000000E+00  0.00000000000E+00  0.60685406504E+03  0.60685406504E+03  0.00000000000E+00 0.  1.
         21   -1    0    0  502  503 -0.00000000000E+00 -0.00000000000E+00 -0.51769415379E+02  0.51769415379E+02  0.00000000000E+00 0.  1.
         -6    2    1    2    0  503 -0.29733326412E+01 -0.35163102914E+02  0.24580973071E+03  0.30189939350E+03  0.17168440689E+03 0.  0.
        -24    2    3    3    0    0  0.45152219856E+02 -0.26838984637E+02  0.23251723523E+03  0.25106495454E+03  0.78805410108E+02 0.  0.
          6    2    1    2  501    0  0.29733326412E+01  0.35163102914E+02  0.30927491895E+03  0.35672408692E+03  0.17422920015E+03 0.  0.
         24    2    5    5    0    0 -0.41166214531E+02 -0.31487258663E+02  0.13306112982E+03  0.16316799737E+03  0.78945718189E+02 0.  0.
          5    1    5    5  501    0  0.44139547172E+02  0.66650361576E+02  0.17621378913E+03  0.19355608955E+03  0.47000000000E+01 0. -1.
        -11    1    6    6    0    0 -0.29876477546E+02  0.48206034171E+01  0.11874317782E+03  0.12253890977E+03  0.00000000000E+00 0.  1.
         12    1    6    6    0    0 -0.11289736985E+02 -0.36307862080E+02  0.14317951996E+02  0.40629087602E+02  0.00000000000E+00 0. -1.
         -5    1    3    3    0  503 -0.48125552497E+02 -0.83241182765E+01  0.13292495479E+02  0.50834438959E+02  0.47000000000E+01 0.  1.
         11    1    4    4    0    0  0.46960113687E+02 -0.51639749528E+02  0.17464171758E+03  0.18807351097E+03  0.00000000000E+00 0. -1.
        -12    1    4    4    0    0 -0.18078938307E+01  0.24800764891E+02  0.57875517649E+02  0.62991443565E+02  0.00000000000E+00 0.  1.
</event>
<event>
12    1  0.8196217E-002  0.2699733E+03  0.7818608E-02  0.1101633E+00
         21   -1    0    0  501  502  0.00000000000E+00  0.00000000000E+00  0.30303776366E+03  0.30303776366E+03  0.00000000000E+00 0.  1.
         21   -1    0    0  502  503 -0.00000000000E+00 -0.00000000000E+00 -0.52329541646E+03  0.52329541646E+03  0.00000000000E+00 0.  1.
         -6    2    1    2    0  503  0.44705434174E+02 -0.19989452229E+03 -0.41518842082E+03  0.49524438061E+03  0.17586692657E+03 0.  0.
        -24    2    3    3    0    0  0.96372221715E+02 -0.15163112155E+03 -0.31692620396E+03  0.37409832807E+03  0.85016105326E+02 0.  0.
          6    2    1    2  501    0 -0.44705434174E+02  0.19989452229E+03  0.19493076803E+03  0.33108879951E+03  0.17223644490E+03 0.  0.
         24    2    5    5    0    0 -0.44090525891E+01  0.76747666706E+02  0.16586771199E+03  0.19821405535E+03  0.76596799985E+02 0.  0.
          5    1    5    5  501    0 -0.40296381585E+02  0.12314685558E+03  0.29063056035E+02  0.13287474416E+03  0.47000000000E+01 0. -1.
        -13    1    6    6    0    0  0.27388693056E+01  0.61491160355E+02  0.45174297893E+02  0.76350385703E+02  0.00000000000E+00 0.  1.
         14    1    6    6    0    0 -0.71479218947E+01  0.15256506352E+02  0.12069341410E+03  0.12186366965E+03  0.00000000000E+00 0. -1.
         -5    1    3    3    0  503 -0.51666787541E+02 -0.48263400734E+02 -0.98262216864E+02  0.12114605255E+03  0.47000000000E+01 0.  1.
         13    1    4    4    0    0  0.33608073697E+02  0.10867382506E+01 -0.55943748075E+02  0.65271636768E+02  0.00000000000E+00 0. -1.
        -14    1    4    4    0    0  0.62764148018E+02 -0.15271785981E+03 -0.26098245588E+03  0.30882669130E+03  0.00000000000E+00 0.  1.
</event>
<event>
12    1  0.8196217E-002  0.1960489E+03  0.7818608E-02  0.1153504E+00
         21   -1    0    0  501  502  0.00000000000E+00  0.00000000000E+00  0.57870549151E+02  0.57870549151E+02  0.00000000000E+00 0. -1.
         21   -1    0    0  502  503 -0.00000000000E+00 -0.00000000000E+00 -0.74595448640E+03  0.74595448640E+03  0.00000000000E+00 0. -1.
         -6    2    1    2    0  503 -0.30270295564E+02  0.89182679871E+02 -0.48056364494E+03  0.51834328231E+03  0.16990732855E+03 0.  0.
        -24    2    3    3    0    0  0.23954276818E+02 -0.56594598968E+01 -0.89767469775E+02  0.11253658418E+03  0.63249089195E+02 0.  0.
          6    2    1    2  501    0  0.30270295564E+02 -0.89182679871E+02 -0.20752029231E+03  0.28548175324E+03  0.17194568483E+03 0.  0.
         24    2    5    5    0    0  0.30540080121E+01 -0.28961988609E+02 -0.20267129363E+03  0.21905238660E+03  0.77847100569E+02 0.  0.
          5    1    5    5  501    0  0.27216287552E+02 -0.60220691262E+02 -0.48489986835E+01  0.66429366641E+02  0.47000000000E+01 0. -1.
        -11    1    6    6    0    0 -0.12984249195E+02  0.23614801900E+02 -0.85114920793E+02  0.89279333205E+02  0.00000000000E+00 0.  1.
         12    1    6    6    0    0  0.16038257207E+02 -0.52576790509E+02 -0.11755637283E+03  0.12977305340E+03  0.00000000000E+00 0. -1.
         -5    1    3    3    0  503 -0.54224572382E+02  0.94842139767E+02 -0.39079617517E+03  0.40580669813E+03  0.47000000000E+01 0.  1.
         13    1    4    4    0    0 -0.14949978279E+02 -0.80206447433E+01 -0.63024772426E+02  0.65268327174E+02  0.00000000000E+00 0. -1.
        -14    1    4    4    0    0  0.38904255097E+02  0.23611848465E+01 -0.26742697349E+02  0.47268257002E+02  0.00000000000E+00 0.  1.
</event>
<event>
12    1  0.8196217E-002  0.1926205E+03  0.7818608E-02  0.1158850E+00
         21   -1    0    0  503  502  0.00000000000E+00  0.00000000000E+00  0.23376824016E+03  0.23376824016E+03  0.00000000000E+00 0.  1.
         21   -1    0    0  501  503 -0.00000000000E+00 -0.00000000000E+00 -0.16723607751E+03  0.16723607751E+03  0.00000000000E+00 0.  1.
          6    2    1    2  501    0 -0.75780543601E+01  0.83881440629E+02 -0.33773903756E+02  0.18383161541E+03  0.15987452349E+03 0.  0.
         24    2    3    3    0    0  0.29535349553E+02  0.64948886497E+02 -0.70498808655E+02  0.12809424020E+03  0.79670305759E+02 0.  0.
         -6    2    1    2    0  502  0.75780543601E+01 -0.83881440629E+02  0.10030606641E+03  0.21717270225E+03  0.17323150018E+03 0.  0.
        -24    2    5    5    0    0  0.16729596055E+02 -0.12508739569E+03  0.86618903119E+02  0.17255084788E+03  0.79650642069E+02 0.  0.
          5    1    3    3  501    0 -0.37113403913E+02  0.18932554132E+02  0.36724904899E+02  0.55737375215E+02  0.47000000000E+01 0. -1.
        -11    1    4    4    0    0  0.13896349108E+02  0.45217140170E+02  0.58839361240E+01  0.47668847143E+02  0.00000000000E+00 0.  1.
         12    1    4    4    0    0  0.15639000445E+02  0.19731746328E+02 -0.76382744779E+02  0.80425393055E+02  0.00000000000E+00 0. -1.
         -5    1    5    5    0  502 -0.91515416951E+01  0.41205955064E+02  0.13687163288E+02  0.44621854366E+02  0.47000000000E+01 0.  1.
         11    1    6    6    0    0 -0.49126899785E+01 -0.38171474333E+02 -0.11038166760E+02  0.40037945764E+02  0.00000000000E+00 0. -1.
        -12    1    6    6    0    0  0.21642286034E+02 -0.86915921360E+02  0.97657069878E+02  0.13251290212E+03  0.00000000000E+00 0.  1.
</event>
<event>
12    1  0.8196217E-002  0.2288397E+03  0.7818608E-02  0.1127844E+00
         21   -1    0    0  503  502  0.00000000000E+00  0.00000000000E+00  0.43095132215E+03  0.43095132215E+03  0.00000000000E+00 0. -1.
         21   -1    0    0  501  503 -0.00000000000E+00 -0.00000000000E+00 -0.27605475236E+03  0.27605475236E+03  0.00000000000E+00 0. -1.
          6    2    1    2  501    0 -0.56381587388E+02  0.13586720228E+03 -0.18818134620E+03  0.29461055471E+03  0.17246559030E+03 0.  0.
         24    2    3    3    0    0 -0.61032446110E+02  0.12753055134E+03 -0.70632311808E+02  0.17658091554E+03  0.78758461505E+02 0.  0.
         -6    2    1    2    0  502  0.56381587388E+02 -0.13586720228E+03  0.34307791598E+03  0.41239551980E+03  0.17529640118E+03 0.  0.
        -24    2    5    5    0    0  0.66584354565E+02 -0.98649309787E+02  0.12265847501E+03  0.18857396602E+03  0.79686112803E+02 0.  0.
          5    1    3    3  501    0  0.46508587222E+01  0.83366509427E+01 -0.11754903439E+03  0.11802963917E+03  0.47000000000E+01 0. -1.
        -11    1    4    4    0    0 -0.33224562134E+02  0.12932104305E+03 -0.63307100120E+02  0.14776871330E+03  0.00000000000E+00 0.  1.
         12    1    4    4    0    0 -0.27807883976E+02 -0.17904917087E+01 -0.73252116879E+01  0.28812202243E+02  0.00000000000E+00 0. -1.
         -5    1    5    5    0  502 -0.10202767177E+02 -0.37217892495E+02  0.22041944097E+03  0.22382155379E+03  0.47000000000E+01 0.  1.
         13    1    6    6    0    0  0.16879631220E+02 -0.45206156851E+02  0.10181542137E+03  0.11267164060E+03  0.00000000000E+00 0. -1.
        -14    1    6    6    0    0  0.49704723345E+02 -0.53443152935E+02  0.20843053640E+02  0.75902325416E+02  0.00000000000E+00 0.  1.
</event>
<event>
12    1  0.8196217E-002  0.2031587E+03  0.7818608E-02  0.1150558E+00
         21   -1    0    0  503  502  0.00000000000E+00  0.00000000000E+00  0.34009350864E+02  0.34009350864E+02  0.00000000000E+00 0. -1.
         21   -1    0    0  501  503 -0.00000000000E+00 -0.00000000000E+00 -0.11551255060E+04  0.11551255060E+04  0.00000000000E+00 0. -1.
          6    2    1    2  501    0  0.62950733766E+02  0.39566755203E+02 -0.68666578125E+03  0.71608891866E+03  0.18906380217E+03 0.  0.
         24    2    3    3    0    0 -0.42001602414E+02  0.13814698507E+02 -0.39101671488E+03  0.40127370026E+03  0.78559090514E+02 0.  0.
         -6    2    1    2    0  502 -0.62950733766E+02 -0.39566755203E+02 -0.43445037386E+03  0.47304593817E+03  0.17174693383E+03 0.  0.
        -24    2    5    5    0    0 -0.16627029719E+02 -0.24999511049E+02 -0.40940046402E+03  0.41820363569E+03  0.79900608841E+02 0.  0.
          5    1    3    3  501    0  0.10495233618E+03  0.25752056696E+02 -0.29564906637E+03  0.31481521840E+03  0.47000000000E+01 0. -1.
        -13    1    4    4    0    0 -0.40898594827E+02  0.31395974997E+02 -0.37118130762E+03  0.37474520068E+03  0.00000000000E+00 0.  1.
         14    1    4    4    0    0 -0.11030075868E+01 -0.17581276490E+02 -0.19835407262E+02  0.26528499581E+02  0.00000000000E+00 0. -1.
         -5    1    5    5    0  502 -0.46323704047E+02 -0.14567244154E+02 -0.25049909834E+02  0.54842302482E+02  0.47000000000E+01 0.  1.
         13    1    6    6    0    0 -0.41496411635E+01 -0.53535456547E+02 -0.28057225584E+03  0.28566423538E+03  0.00000000000E+00 0. -1.
        -14    1    6    6    0    0 -0.12477388555E+02  0.28535945498E+02 -0.12882820818E+03  0.13253940031E+03  0.00000000000E+00 0.  1.
</event>
<event>
12    1  0.8196217E-002  0.2218957E+03  0.7818608E-02  0.1132478E+00
         21   -1    0    0  503  502  0.00000000000E+00  0.00000000000E+00  0.39595230788E+03  0.39595230788E+03  0.00000000000E+00 0. -1.
         21   -1    0    0  501  503 -0.00000000000E+00 -0.00000000000E+00 -0.14601636495E+03  0.14601636495E+03  0.00000000000E+00 0.  1.
          6    2    1    2  501    0 -0.12800274569E+03  0.56351980096E+02  0.20589234735E+02  0.22284863537E+03  0.17227115003E+03 0.  0.
         24    2    3    3    0    0  0.58237163722E+01  0.33028062291E+02  0.81174425063E+01  0.86352618236E+02  0.79158784934E+02 0.  0.
         -6    2    1    2    0  502  0.12800274569E+03 -0.56351980096E+02  0.22934670819E+03  0.31912003747E+03  0.17227140560E+03 0.  0.
        -24    2    5    5    0    0  0.16181602665E+02 -0.21491731879E+02  0.16415763505E+03  0.18498983881E+03  0.80930664861E+02 0.  0.
          5    1    3    3  501    0 -0.13382646207E+03  0.23323917804E+02  0.12471792228E+02  0.13649601713E+03  0.47000000000E+01 0. -1.
        -11    1    4    4    0    0  0.52386615038E+01  0.46812887506E+02 -0.22921027016E+02  0.52385718382E+02  0.00000000000E+00 0.  1.
         12    1    4    4    0    0  0.58505486843E+00 -0.13784825214E+02  0.31038469522E+02  0.33966899853E+02  0.00000000000E+00 0. -1.
         -5    1    5    5    0  502  0.11182114303E+03 -0.34860248217E+02  0.65189073142E+02  0.13413019866E+03  0.47000000000E+01 0.  1.
         11    1    6    6    0    0  0.32683087126E+02  0.18817991408E+02  0.10469968564E+03  0.11128488288E+03  0.00000000000E+00 0. -1.
        -12    1    6    6    0    0 -0.16501484462E+02 -0.40309723287E+02  0.59457949412E+02  0.73704955934E+02  0.00000000000E+00 0.  1.
</event>
<event>
12    1  0.8196217E-002  0.2763198E+03  0.7818608E-02  0.1097927E+00
         21   -1    0    0  503  502  0.00000000000E+00  0.00000000000E+00  0.19496886985E+04  0.19496886985E+04  0.00000000000E+00 0.  1.
         21   -1    0    0  501  503 -0.00000000000E+00 -0.00000000000E+00 -0.41171220889E+02  0.41171220889E+02  0.00000000000E+00 0.  1.
          6    2    1    2  501    0 -0.15939061278E+03 -0.14380171514E+03  0.72040551696E+03  0.77103917318E+03  0.17156047621E+03 0.  0.
         24    2    3    3    0    0 -0.11447012274E+03 -0.46140781160E+02  0.26247940270E+03  0.30064154929E+03  0.79104510780E+02 0.  0.
         -6    2    1    2    0  502  0.15939061278E+03  0.14380171514E+03  0.11881119607E+04  0.12198207463E+04  0.17397793284E+03 0.  0.
        -24    2    5    5    0    0  0.81966694372E+02  0.41559427954E+02  0.84081677113E+03  0.84957219848E+03  0.79714194324E+02 0.  0.
          5    1    3    3  501    0 -0.44920490040E+02 -0.97660933982E+02  0.45792611425E+03  0.47039762389E+03  0.47000000000E+01 0. -1.
        -13    1    4    4    0    0 -0.24662231721E+02 -0.33153523594E+02  0.15281293833E+03  0.15830090310E+03  0.00000000000E+00 0.  1.
         14    1    4    4    0    0 -0.89807891023E+02 -0.12987257566E+02  0.10966646437E+03  0.14234064619E+03  0.00000000000E+00 0. -1.
         -5    1    5    5    0  502  0.77423918413E+02  0.10224228719E+03  0.34729518957E+03  0.37024854778E+03  0.47000000000E+01 0.  1.
         13    1    6    6    0    0 -0.48997757886E+01 -0.16315527694E+02  0.13771278642E+03  0.13876244373E+03  0.00000000000E+00 0. -1.
        -14    1    6    6    0    0  0.86866470160E+02  0.57874955648E+02  0.70310398471E+03  0.71080975474E+03  0.00000000000E+00 0.  1.
</event>
<event>
12    1  0.8196217E-002  0.2111568E+03  0.7818608E-02  0.1141025E+00
         21   -1    0    0  501  502  0.00000000000E+00  0.00000000000E+00  0.11911782990E+04  0.11911782990E+04  0.00000000000E+00 0. -1.
         21   -1    0    0  502  503 -0.00000000000E+00 -0.00000000000E+00 -0.13687655326E+03  0.13687655326E+03  0.00000000000E+00 0.  1.
         -6    2    1    2    0  503 -0.95204242002E+02 -0.78025918240E+02 -0.39151460817E+02  0.21475572066E+03  0.17156716195E+03 0.  0.
        -24    2    3    3    0    0  0.12575177045E+02 -0.38821652697E+02  0.74997818456E+01  0.90853315317E+02  0.80825876924E+02 0.  0.
          6    2    1    2  501    0  0.95204242002E+02  0.78025918240E+02  0.10934532065E+04  0.11132991316E+04  0.16924287244E+03 0.  0.
         24    2    5    5    0    0  0.83272412810E+02  0.69720965895E+02  0.45376326094E+03  0.47342675580E+03  0.80227727815E+02 0.  0.
          5    1    5    5  501    0  0.11931829192E+02  0.83049523452E+01  0.63968994559E+03  0.63987237577E+03  0.47000000000E+01 0. -1.
        -11    1    6    6    0    0  0.40603136969E+01 -0.80384931932E+01  0.34652144263E+01  0.96494161043E+01  0.00000000000E+00 0.  1.
         12    1    6    6    0    0  0.79212099113E+02  0.77759459088E+02  0.45029804652E+03  0.46377733970E+03  0.00000000000E+00 0. -1.
         -5    1    3    3    0  503 -0.10777941905E+03 -0.39204265542E+02 -0.46651242662E+02  0.12390240534E+03  0.47000000000E+01 0.  1.
         11    1    4    4    0    0 -0.89279628370E+01 -0.56275385602E+02  0.20108195617E+02  0.60423232916E+02  0.00000000000E+00 0. -1.
        -12    1    4    4    0    0  0.21503139882E+02  0.17453732904E+02 -0.12608413772E+02  0.30430082401E+02  0.00000000000E+00 0.  1.
</event>
<event>
12    1  0.8196217E-002  0.2215124E+03  0.7818608E-02  0.1133921E+00
         21   -1    0    0  501  502  0.00000000000E+00  0.00000000000E+00  0.19987610473E+04  0.19987610473E+04  0.00000000000E+00 0. -1.
         21   -1    0    0  502  503 -0.00000000000E+00 -0.00000000000E+00 -0.42780457540E+02  0.42780457540E+02  0.00000000000E+00 0.  1.
         -6    2    1    2    0  503 -0.58832079773E+02 -0.11842549861E+03  0.30705696821E+03  0.37861817750E+03  0.17771305601E+03 0.  0.
        -24    2    3    3    0    0  0.20738563704E+02 -0.74296607918E+01  0.94941504462E+02  0.12629571858E+03  0.80320802892E+02 0.  0.
          6    2    1    2  501    0  0.58832079773E+02  0.11842549861E+03  0.16489236215E+04  0.16629233273E+04  0.16993843170E+03 0.  0.
         24    2    5    5    0    0  0.27483638801E+02  0.64976708833E+02  0.14364167853E+04  0.14415170416E+04  0.98493031456E+02 0.  0.
          5    1    5    5  501    0  0.31348440972E+02  0.53448789781E+02  0.21250683628E+03  0.22140628569E+03  0.47000000000E+01 0. -1.
        -13    1    6    6    0    0 -0.12308645877E+02  0.43798806234E+02  0.24136119610E+03  0.24561161449E+03  0.00000000000E+00 0.  1.
         14    1    6    6    0    0  0.39792284678E+02  0.21177902599E+02  0.11950555892E+04  0.11959054271E+04  0.00000000000E+00 0. -1.
         -5    1    3    3    0  503 -0.79570643477E+02 -0.11099583782E+03  0.21211546375E+03  0.25232245893E+03  0.47000000000E+01 0.  1.
         13    1    4    4    0    0  0.41061073211E+02 -0.13226590349E+02  0.95884290491E+02  0.10514157878E+03  0.00000000000E+00 0. -1.
        -14    1    4    4    0    0 -0.20322509507E+02  0.57969295568E+01 -0.94278602970E+00  0.21154139795E+02  0.00000000000E+00 0.  1.
</event>
<event>
12    1  0.8196217E-002  0.2383452E+03  0.7818608E-02  0.1121035E+00
         21   -1    0    0  501  502  0.00000000000E+00  0.00000000000E+00  0.36513419682E+03  0.36513419682E+03  0.00000000000E+00 0. -1.
         21   -1    0    0  502  503 -0.00000000000E+00 -0.00000000000E+00 -0.12941235706E+04  0.12941235706E+04  0.00000000000E+00 0.  1.
         -6    2    1    2    0  503  0.14877348606E+03 -0.70085672767E+02 -0.12429284529E+04  0.12655747976E+04  0.17251920954E+03 0.  0.
        -24    2    3    3    0    0  0.15216502333E+03 -0.13543027232E+02 -0.76420119805E+03  0.78348512980E+03  0.80671367887E+02 0.  0.
          6    2    1    2  501    0 -0.14877348606E+03  0.70085672767E+02  0.31393907912E+03  0.39368296980E+03  0.17141465408E+03 0.  0.
         24    2    5    5    0    0 -0.70246479926E+02  0.78176591446E+02  0.11032824235E+03  0.17525353839E+03  0.86575598559E+02 0.  0.
          5    1    5    5  501    0 -0.78527006137E+02 -0.80909186796E+01  0.20361083677E+03  0.21842943141E+03  0.47000000000E+01 0. -1.
        -11    1    6    6    0    0 -0.77902538080E+00 -0.50067920890E+00 -0.13157510857E+02  0.13190058839E+02  0.00000000000E+00 0.  1.
         12    1    6    6    0    0 -0.69467454545E+02  0.78677270655E+02  0.12348575321E+03  0.16206347955E+03  0.00000000000E+00 0. -1.
         -5    1    3    3    0  503 -0.33915372660E+01 -0.56542645535E+02 -0.47872725480E+03  0.48208966778E+03  0.47000000000E+01 0.  1.
         11    1    4    4    0    0  0.12313723738E+02 -0.42111154468E+01 -0.10112371259E+02  0.16480938629E+02  0.00000000000E+00 0. -1.
        -12    1    4    4    0    0  0.13985129959E+03 -0.93319117847E+01 -0.75408882679E+03  0.76700419117E+03  0.00000000000E+00 0.  1.
</event>
<event>
12    1  0.8196217E-002  0.1885448E+03  0.7818608E-02  0.1160243E+00
         21   -1    0    0  503  502  0.00000000000E+00  0.00000000000E+00  0.37917117673E+02  0.37917117673E+02  0.00000000000E+00 0. -1.
         21   -1    0    0  501  503 -0.00000000000E+00 -0.00000000000E+00 -0.92938854752E+03  0.92938854752E+03  0.00000000000E+00 0. -1.
          6    2    1    2  501    0 -0.70748858785E+02 -0.17434305695E+02 -0.46497598947E+03  0.50099299453E+03  0.17170309767E+03 0.  0.
         24    2    3    3    0    0 -0.36812907603E+02  0.34821877441E+01 -0.44930004960E+03  0.45790037833E+03  0.80217866489E+02 0.  0.
         -6    2    1    2    0  502  0.70748858785E+02  0.17434305695E+02 -0.42649544037E+03  0.46631267066E+03  0.17389591750E+03 0.  0.
        -24    2    5    5    0    0 -0.23300512515E+02  0.36859689039E+02 -0.18601584695E+03  0.20732395544E+03  0.80497059709E+02 0.  0.
          5    1    3    3  501    0 -0.33935951182E+02 -0.20916493439E+02 -0.15675939873E+02  0.43092616204E+02  0.47000000000E+01 0. -1.
        -11    1    4    4    0    0 -0.28089644440E+02  0.29760002035E+02 -0.10823006992E+03  0.11570840021E+03  0.00000000000E+00 0.  1.
         12    1    4    4    0    0 -0.87232631638E+01 -0.26277814291E+02 -0.34106997968E+03  0.34219197811E+03  0.00000000000E+00 0. -1.
         -5    1    5    5    0  502  0.94049371300E+02 -0.19425383344E+02 -0.24047959342E+03  0.25898871522E+03  0.47000000000E+01 0.  1.
         11    1    6    6    0    0  0.14929702297E+02  0.68227259489E+01 -0.14691321408E+01  0.16480411078E+02  0.00000000000E+00 0. -1.
        -12    1    6    6    0    0 -0.38230214813E+02  0.30036963090E+02 -0.18454671481E+03  0.19084354436E+03  0.00000000000E+00 0.  1.
</event>
<event>
12    1  0.8196217E-002  0.2168289E+03  0.7818608E-02  0.1136508E+00
         21   -1    0    0  501  502  0.00000000000E+00  0.00000000000E+00  0.59270109818E+03  0.59270109818E+03  0.00000000000E+00 0.  1.
         21   -1    0    0  502  503 -0.00000000000E+00 -0.00000000000E+00 -0.24727967702E+03  0.24727967702E+03  0.00000000000E+00 0.  1.
         -6    2    1    2    0  503  0.13055325098E+03  0.15028930040E+02 -0.17405316983E+03  0.27706991990E+03  0.17088948038E+03 0.  0.
        -24    2    3    3    0    0  0.91931011565E+02  0.44485025992E+02 -0.18607147096E+03  0.22681190036E+03  0.79942588230E+02 0.  0.
          6    2    1    2  501    0 -0.13055325098E+03 -0.15028930040E+02  0.51947459100E+03  0.56291085530E+03  0.17246669315E+03 0.  0.
         24    2    5    5    0    0 -0.12550796330E+03 -0.61980471579E+02  0.31893053482E+03  0.35682856434E+03  0.77563590548E+02 0.  0.
          5    1    5    5  501    0 -0.50452876798E+01  0.46951541539E+02  0.20054405617E+03  0.20608229096E+03  0.47000000000E+01 0. -1.
        -13    1    6    6    0    0 -0.53780802550E+02  0.68444588293E+01  0.16419145002E+03  0.17291053641E+03  0.00000000000E+00 0.  1.
         14    1    6    6    0    0 -0.71727160749E+02 -0.68824930408E+02  0.15473908480E+03  0.18391802794E+03  0.00000000000E+00 0. -1.
         -5    1    3    3    0  503  0.38622239414E+02 -0.29456095952E+02  0.12018301133E+02  0.50258019541E+02  0.47000000000E+01 0.  1.
         11    1    4    4    0    0 -0.47156904707E+01  0.55944378615E+01  0.52227821374E+01  0.89896009286E+01  0.00000000000E+00 0. -1.
        -12    1    4    4    0    0  0.96646702036E+02  0.38890588130E+02 -0.19129425310E+03  0.21782229943E+03  0.00000000000E+00 0.  1.
</event>
<event>
12    1  0.8196217E-002  0.2090158E+03  0.7818608E-02  0.1144190E+00
         21   -1    0    0  503  502  0.00000000000E+00  0.00000000000E+00  0.10665679237E+03  0.10665679237E+03  0.00000000000E+00 0.  1.
         21   -1    0    0  501  503 -0.00000000000E+00 -0.00000000000E+00 -0.78176704136E+03  0.78176704136E+03  0.00000000000E+00 0. -1.
          6    2    1    2  501    0 -0.14970687213E+01  0.11835971680E+03 -0.64739499814E+03  0.67757849389E+03  0.16118643861E+03 0.  0.
         24    2    3    3    0    0  0.60201784440E+01  0.83016837977E+02 -0.61921825013E+03  0.63151715200E+03  0.91949083946E+02 0.  0.
         -6    2    1    2    0  502  0.14970687213E+01 -0.11835971680E+03 -0.27715250846E+02  0.21084533983E+03  0.17226827457E+03 0.  0.
        -24    2    5    5    0    0 -0.53810956531E+02 -0.95908819064E+02 -0.53066104666E+02  0.14582398753E+03  0.79715138188E+02 0.  0.
          5    1    3    3  501    0 -0.75172471653E+01  0.35342878822E+02 -0.28176748006E+02  0.46061341889E+02  0.47000000000E+01 0. -1.
        -13    1    4    4    0    0 -0.25124565312E+02  0.33881435842E+01 -0.51560539732E+02  0.57456179446E+02  0.00000000000E+00 0.  1.
         14    1    4    4    0    0  0.31144743756E+02  0.79628694393E+02 -0.56765771040E+03  0.57406097256E+03  0.00000000000E+00 0. -1.
         -5    1    5    5    0  502  0.55308025253E+02 -0.22450897735E+02  0.25350853820E+02  0.65021352307E+02  0.47000000000E+01 0.  1.
         13    1    6    6    0    0 -0.32886544036E+02 -0.90409528037E+02 -0.88656411222E+01  0.96612665479E+02  0.00000000000E+00 0. -1.
        -14    1    6    6    0    0 -0.20924412496E+02 -0.54992910271E+01 -0.44200463544E+02  0.49211322047E+02  0.00000000000E+00 0.  1.
</event>
<event>
12    1  0.8196217E-002  0.1952870E+03  0.7818608E-02  0.1155185E+00
         21   -1    0    0  503  502  0.00000000000E+00  0.00000000000E+00  0.10273661836E+03  0.10273661836E+03  0.00000000000E+00 0. -1.
         21   -1    0    0  501  503 -0.00000000000E+00 -0.00000000000E+00 -0.38099889021E+03  0.38099889021E+03  0.00000000000E+00 0. -1.
          6    2    1    2  501    0  0.14807082808E+02  0.75919284139E+02 -0.19477252243E+03  0.27135008469E+03  0.17237037321E+03 0.  0.
         24    2    3    3    0    0  0.52302688181E+02 -0.19037284389E+01 -0.13257745709E+03  0.16480123269E+03  0.82725260931E+02 0.  0.
         -6    2    1    2    0  502 -0.14807082808E+02 -0.75919284139E+02 -0.83489749419E+02  0.21238542388E+03  0.17931548348E+03 0.  0.
        -24    2    5    5    0    0 -0.22859281219E+02  0.13762633687E+02  0.14814448823E+02  0.78993183945E+02  0.72859442710E+02 0.  0.
          5    1    3    3  501    0 -0.37495605373E+02  0.77823012578E+02 -0.62195065338E+02  0.10654885199E+03  0.47000000000E+01 0. -1.
        -11    1    4    4    0    0  0.47710563824E+02  0.35950048556E+02 -0.82588047805E+02  0.10192884544E+03  0.00000000000E+00 0.  1.
         12    1    4    4    0    0  0.45921243568E+01 -0.37853776995E+02 -0.49989409283E+02  0.62872387257E+02  0.00000000000E+00 0. -1.
         -5    1    5    5    0  502  0.80521984106E+01 -0.89681917826E+02 -0.98304198242E+02  0.13339223994E+03  0.47000000000E+01 0.  1.
         11    1    6    6    0    0  0.51815289220E+01 -0.83628174267E+01  0.36097742638E+02  0.37414328550E+02  0.00000000000E+00 0. -1.
        -12    1    6    6    0    0 -0.28040810141E+02  0.22125451114E+02 -0.21283293816E+02  0.41578855395E+02  0.00000000000E+00 0.  1.
</event>
<event>
12    1  0.8196217E-002  0.3511447E+03  0.7818608E-02  0.1062163E+00
         21   -1    0    0  503  502  0.00000000000E+00  0.00000000000E+00  0.23344145524E+03  0.23344145524E+03  0.00000000000E+00 0.  1.
         21   -1    0    0  501  503 -0.00000000000E+00 -0.00000000000E+00 -0.62243098621E+03  0.62243098621E+03  0.00000000000E+00 0. -1.
          6    2    1    2  501    0  0.30365612318E+03  0.37215933031E+02 -0.27802099143E+02  0.35224356837E+03  0.17236736328E+03 0.  0.
         24    2    3    3    0    0  0.61475349009E+02 -0.52226712823E+01 -0.32682594183E+02  0.10627919748E+03  0.80128777748E+02 0.  0.
         -6    2    1    2    0  502 -0.30365612318E+03 -0.37215933031E+02 -0.36118743183E+03  0.50362887308E+03  0.17202794561E+03 0.  0.
        -24    2    5    5    0    0 -0.29452950122E+03  0.18239630716E+01 -0.28549095132E+03  0.41784160201E+03  0.79596276001E+02 0.  0.
          5    1    3    3  501    0  0.24218077417E+03  0.42438604313E+02  0.48804950400E+01  0.24596437089E+03  0.47000000000E+01 0. -1.
        -13    1    4    4    0    0  0.41663750112E+02 -0.13445232270E+02  0.20936936771E+02  0.48528318181E+02  0.00000000000E+00 0.  1.
         14    1    4    4    0    0  0.19811598897E+02  0.82225609873E+01 -0.53619530954E+02  0.57750879299E+02  0.00000000000E+00 0. -1.
         -5    1    5    5    0  502 -0.91266219575E+01 -0.39039896102E+02 -0.75696480508E+02  0.85787271068E+02  0.47000000000E+01 0.  1.
         11    1    6    6    0    0 -0.11150723840E+03  0.37944925840E+02 -0.96279330118E+02  0.15212952054E+03  0.00000000000E+00 0. -1.
        -12    1    6    6    0    0 -0.18302226283E+03 -0.36120962768E+02 -0.18921162120E+03  0.26571208147E+03  0.00000000000E+00 0.  1.
</event>
<event>
12    1  0.8196217E-002  0.2200953E+03  0.7818608E-02  0.1134737E+00
         21   -1    0    0  503  502  0.00000000000E+00  0.00000000000E+00  0.65142791474E+03  0.65142791474E+03  0.00000000000E+00 0. -1.
         21   -1    0    0  501  503 -0.00000000000E+00 -0.00000000000E+00 -0.80743305133E+02  0.80743305133E+02  0.00000000000E+00 0. -1.
          6    2    1    2  501    0 -0.10208733389E+03 -0.91768669673E+02  0.17280632345E+03  0.27982844625E+03  0.17204249891E+03 0.  0.
         24    2    3    3    0    0 -0.25193103627E+02 -0.59977488698E+02  0.16635313272E+03  0.19623935901E+03  0.81268257257E+02 0.  0.
         -6    2    1    2    0  502  0.10208733389E+03  0.91768669673E+02  0.39787828615E+03  0.45234277361E+03  0.16572127738E+03 0.  0.
        -24    2    5    5    0    0  0.62618707677E+01  0.72675759634E+02  0.22639069290E+03  0.25491647538E+03  0.91698890526E+02 0.  0.
          5    1    3    3  501    0 -0.76894230265E+02 -0.31791180975E+02  0.64531907329E+01  0.83589087245E+02  0.47000000000E+01 0. -1.
        -11    1    4    4    0    0 -0.17414555536E+02  0.18397508998E+02  0.41398810258E+02  0.48534488487E+02  0.00000000000E+00 0.  1.
         12    1    4    4    0    0 -0.77785480908E+01 -0.78374997696E+02  0.12495432246E+03  0.14770487052E+03  0.00000000000E+00 0. -1.
         -5    1    5    5    0  502  0.95825463124E+02  0.19092910039E+02  0.17148759325E+03  0.19742629823E+03  0.47000000000E+01 0.  1.
         11    1    6    6    0    0  0.34871010092E+02  0.71977957504E+02  0.20220320339E+03  0.21744642828E+03  0.00000000000E+00 0. -1.
        -12    1    6    6    0    0 -0.28609139324E+02  0.69780213015E+00  0.24187489512E+02  0.37470047098E+02  0.00000000000E+00 0.  1.
</event>
<event>
12    1  0.8196217E-002  0.2490835E+03  0.7818608E-02  0.1115442E+00
         21   -1    0    0  503  502  0.00000000000E+00  0.00000000000E+00  0.29954711030E+03  0.29954711030E+03  0.00000000000E+00 0.  1.
         21   -1    0    0  501  503 -0.00000000000E+00 -0.00000000000E+00 -0.20058447506E+03  0.20058447506E+03  0.00000000000E+00 0. -1.
          6    2    1    2  501    0  0.17912331585E+03 -0.15776413050E+02  0.71099881380E+02  0.25903243135E+03  0.17236168330E+03 0.  0.
         24    2    3    3    0    0  0.12335800377E+03  0.56423111179E+02  0.55406688912E+02  0.16634528219E+03  0.78740632208E+02 0.  0.
         -6    2    1    2    0  502 -0.17912331585E+03  0.15776413050E+02  0.27862753867E+02  0.24109915400E+03  0.15817209462E+03 0.  0.
        -24    2    5    5    0    0 -0.17196422528E+03  0.53578743886E+02  0.52552728735E-01  0.19339416389E+03  0.70419622919E+02 0.  0.
          5    1    3    3  501    0  0.55765312084E+02 -0.72199524228E+02  0.15693192468E+02  0.92687149165E+02  0.47000000000E+01 0. -1.
        -13    1    4    4    0    0  0.17413962553E+02  0.46987653091E+02  0.12443695325E+02  0.51632656218E+02  0.00000000000E+00 0.  1.
         14    1    4    4    0    0  0.10594404122E+03  0.94354580877E+01  0.42962993587E+02  0.11471262597E+03  0.00000000000E+00 0. -1.
         -5    1    5    5    0  502 -0.71590905728E+01 -0.37802330836E+02  0.27810201138E+02  0.47704990115E+02  0.47000000000E+01 0.  1.
         13    1    6    6    0    0 -0.83787472726E+02 -0.10403374970E+02  0.13686795416E+01  0.84441956871E+02  0.00000000000E+00 0. -1.
        -14    1    6    6    0    0 -0.88176752555E+02  0.63982118856E+02 -0.13161268129E+01  0.10895220702E+03  0.00000000000E+00 0.  1.
</event>
<event>
12    1  0.8196217E-002  0.2568134E+03  0.7818608E-02  0.1109107E+00
         21   -1    0    0  503  502  0.00000000000E+00  0.00000000000E+00  0.22838390393E+04  0.22838390393E+04  0.00000000000E+00 0. -1.
         21   -1    0    0  501  503 -0.00000000000E+00 -0.00000000000E+00 -0.29771972046E+02  0.29771972046E+02  0.00000000000E+00 0. -1.
          6    2    1    2  501    0  0.17042607237E+03  0.84849498822E+02  0.92330460929E+03  0.95829486458E+03  0.17202663263E+03 0.  0.
         24    2    3    3    0    0  0.32593738296E+02  0.56782056355E+02  0.29154531944E+03  0.31104883410E+03  0.86406887521E+02 0.  0.
         -6    2    1    2    0  502 -0.17042607237E+03 -0.84849498822E+02  0.13307624579E+04  0.13553161467E+04  0.17236198705E+03 0.  0.
        -24    2    5    5    0    0 -0.13182972940E+03  0.80706081573E+01  0.85259884301E+03  0.86665843770E+03  0.82023461652E+02 0.  0.
          5    1    3    3  501    0  0.13783233407E+03  0.28067442467E+02  0.63175928986E+03  0.64724603047E+03  0.47000000000E+01 0. -1.
        -11    1    4    4    0    0  0.18470932319E+02 -0.13950088177E+02  0.21692997094E+02  0.31723278894E+02  0.00000000000E+00 0.  1.
         12    1    4    4    0    0  0.14122805977E+02  0.70732144532E+02  0.26985232234E+03  0.27932555521E+03  0.00000000000E+00 0. -1.
         -5    1    5    5    0  502 -0.38596342970E+02 -0.92920106980E+02  0.47816361492E+03  0.48865770904E+03  0.47000000000E+01 0.  1.
         13    1    6    6    0    0 -0.11673098508E+03 -0.24749182973E+02  0.66049110916E+03  0.67118339537E+03  0.00000000000E+00 0. -1.
        -14    1    6    6    0    0 -0.15098744325E+02  0.32819791131E+02  0.19210773385E+03  0.19547504233E+03  0.00000000000E+00 0.  1.
</event>
<event>
12    1  0.8196217E-002  0.2247172E+03  0.7818608E-02  0.1130422E+00
         21   -1    0    0  501  502  0.00000000000E+00  0.00000000000E+00  0.18871963599E+03  0.18871963599E+03  0.00000000000E+00 0.  1.
         21   -1    0    0  502  503 -0.00000000000E+00 -0.00000000000E+00 -0.50480881661E+03  0.50480881661E+03  0.00000000000E+00 0. -1.
         -6    2    1    2    0  503 -0.60261596029E+02  0.13071646725E+03 -0.39577579786E+03  0.45510070039E+03  0.17251060998E+03 0.  0.
        -24    2    3    3    0    0 -0.10554005184E+03  0.76987647473E+02 -0.25315473010E+03  0.29604164341E+03  0.80545247282E+02 0.  0.
          6    2    1    2  501    0  0.60261596029E+02 -0.13071646725E+03  0.79686617247E+02  0.23842775221E+03  0.17256761367E+03 0.  0.
         24    2    5    5    0    0  0.84753467572E+02 -0.10933406279E+03  0.10180432231E+03  0.19882545595E+03  0.10015165669E+03 0.  0.
          5    1    5    5  501    0 -0.24491871543E+02 -0.21382404457E+02 -0.22117705065E+02  0.39602296264E+02  0.47000000000E+01 0. -1.
        -11    1    6    6    0    0  0.95135929509E+02 -0.61824918148E+02  0.40269634203E+02  0.12039438951E+03  0.00000000000E+00 0.  1.
         12    1    6    6    0    0 -0.10382461937E+02 -0.47509144647E+02  0.61534688109E+02  0.78431066431E+02  0.00000000000E+00 0. -1.
         -5    1    3    3    0  503  0.45278455809E+02  0.53728819779E+02 -0.14262106777E+03  0.15905905698E+03  0.47000000000E+01 0.  1.
         13    1    4    4    0    0 -0.10379067946E+03  0.41043973768E+02 -0.22185490109E+03  0.24834796166E+03  0.00000000000E+00 0. -1.
        -14    1    4    4    0    0 -0.17493723832E+01  0.35943673705E+02 -0.31299829004E+02  0.47693681749E+02  0.00000000000E+00 0.  1.
</event>
<event>
12    1  0.8196217E-002  0.2430935E+03  0.7818608E-02  0.1117949E+00
         21   -1    0    0  503  502  0.00000000000E+00  0.00000000000E+00  0.43141766466E+03  0.43141766466E+03  0.00000000000E+00 0.  1.
         21   -1    0    0  501  503 -0.00000000000E+00 -0.00000000000E+00 -0.17222920424E+03  0.17222920424E+03  0.00000000000E+00 0. -1.
          6    2    1    2  501    0 -0.16885823682E+03 -0.23281387168E+02 -0.80188764535E+01  0.24322573930E+03  0.17331858166E+03 0.  0.
         24    2    3    3    0    0 -0.64292663360E+02  0.29225046320E+02  0.44317022170E+02  0.11496030750E+03  0.79146850546E+02 0.  0.
         -6    2    1    2    0  502  0.16885823682E+03  0.23281387168E+02  0.26720733688E+03  0.36042112960E+03  0.17160566031E+03 0.  0.
        -24    2    5    5    0    0  0.73397483336E+02 -0.20165591898E+02  0.54150396771E+02  0.12290114060E+03  0.79866033047E+02 0.  0.
          5    1    3    3  501    0 -0.10456557346E+03 -0.52506433488E+02 -0.52335898624E+02  0.12826543180E+03  0.47000000000E+01 0. -1.
        -11    1    4    4    0    0 -0.80094492868E+01  0.29276040692E+00  0.50723458386E+02  0.51352762507E+02  0.00000000000E+00 0.  1.
         12    1    4    4    0    0 -0.56283214073E+02  0.28932285913E+02 -0.64064362157E+01  0.63607544989E+02  0.00000000000E+00 0. -1.
         -5    1    5    5    0  502  0.95460753481E+02  0.43446979066E+02  0.21305694011E+03  0.23751998900E+03  0.47000000000E+01 0.  1.
         11    1    6    6    0    0  0.38622410867E+01 -0.36812769503E+02  0.29291960369E+02  0.47202922017E+02  0.00000000000E+00 0. -1.
        -12    1    6    6    0    0  0.69535242249E+02  0.16647177605E+02  0.24858436402E+02  0.75698218587E+02  0.00000000000E+00 0.  1.
</event>
<event>
12    1  0.8196217E-002  0.1959429E+03  0.7818608E-02  0.1154378E+00
         21   -1    0    0  503  502  0.00000000000E+00  0.00000000000E+00  0.60629693059E+02  0.60629693059E+02  0.00000000000E+00 0. -1.
         21   -1    0    0  501  503 -0.00000000000E+00 -0.00000000000E+00 -0.70614624832E+03  0.70614624832E+03  0.00000000000E+00 0. -1.
          6    2    1    2  501    0 -0.13058748738E+02  0.92107883514E+02 -0.18978770518E+03  0.27278746656E+03  0.17245067629E+03 0.  0.
         24    2    3    3    0    0  0.26578550865E+02  0.11226628130E+03 -0.17707366752E+03  0.22629861548E+03  0.80906380199E+02 0.  0.
         -6    2    1    2    0  502  0.13058748738E+02 -0.92107883514E+02 -0.45572885008E+03  0.49398847482E+03  0.16637738829E+03 0.  0.
        -24    2    5    5    0    0  0.48690552881E+02 -0.42416059838E+02 -0.39920784903E+03  0.41058813689E+03  0.71033931023E+02 0.  0.
          5    1    3    3  501    0 -0.39637299602E+02 -0.20158397788E+02 -0.12714037663E+02  0.46488851081E+02  0.47000000000E+01 0. -1.
        -13    1    4    4    0    0 -0.14174009451E+02  0.33950434797E+02 -0.10832914188E+03  0.11440602059E+03  0.00000000000E+00 0.  1.
         14    1    4    4    0    0  0.40752560316E+02  0.78315846505E+02 -0.68744525637E+02  0.11189259489E+03  0.00000000000E+00 0. -1.
         -5    1    5    5    0  502 -0.35631804144E+02 -0.49691823676E+02 -0.56521001053E+02  0.83400337930E+02  0.47000000000E+01 0.  1.
         13    1    6    6    0    0 -0.11730228696E+02 -0.32642132483E+02 -0.13523375090E+03  0.13961115450E+03  0.00000000000E+00 0. -1.
        -14    1    6    6    0    0  0.60420781577E+02 -0.97739273548E+01 -0.26397409813E+03  0.27097698239E+03  0.00000000000E+00 0.  1.
</event>
<event>
12    1  0.8196217E-002  0.1914414E+03  0.7818608E-02  0.1157303E+00
         21   -1    0    0  501  502  0.00000000000E+00  0.00000000000E+00  0.17833676766E+03  0.17833676766E+03  0.00000000000E+00 0. -1.
         21   -1    0    0  502  503 -0.00000000000E+00 -0.00000000000E+00 -0.38767686694E+03  0.38767686694E+03  0.00000000000E+00 0. -1.
         -6    2    1    2    0  503  0.63043598486E+02  0.55708152121E+02 -0.29910148504E+03  0.35512179816E+03  0.17196482097E+03 0.  0.
        -24    2    3    3    0    0  0.86686321449E+02  0.53563296720E+02 -0.14757955182E+03  0.20167941483E+03  0.92256800125E+02 0.  0.
          6    2    1    2  501    0 -0.63043598486E+02 -0.55708152121E+02  0.89761385767E+02  0.21089183644E+03  0.17129029973E+03 0.  0.
         24    2    5    5    0    0  0.35314110987E+02 -0.33292445096E+02  0.52921804381E+02  0.10339324254E+03  0.74390670710E+02 0.  0.
          5    1    5    5  501    0 -0.98357709473E+02 -0.22415707025E+02  0.36839581386E+02  0.10749859390E+03  0.47000000000E+01 0. -1.
        -13    1    6    6    0    0 -0.20930857654E+02 -0.12245517642E+02  0.14391815938E+01  0.24292483367E+02  0.00000000000E+00 0.  1.
         14    1    6    6    0    0  0.56244968642E+02 -0.21046927453E+02  0.51482622787E+02  0.79100759173E+02  0.00000000000E+00 0. -1.
         -5    1    3    3    0  503 -0.23642722964E+02  0.21448554010E+01 -0.15152193322E+03  0.15344238333E+03  0.47000000000E+01 0.  1.
         11    1    4    4    0    0  0.10332013953E+03  0.39815318591E+02 -0.14066959331E+03  0.17902023715E+03  0.00000000000E+00 0. -1.
        -12    1    4    4    0    0 -0.16633818082E+02  0.13747978129E+02 -0.69099585112E+01  0.22659177682E+02  0.00000000000E+00 0.  1.
</event>
<event>
12    1  0.8196217E-002  0.1772329E+03  0.7818608E-02  0.1170631E+00
         21   -1    0    0  501  502  0.00000000000E+00  0.00000000000E+00  0.78392555449E+02  0.78392555449E+02  0.00000000000E+00 0.  1.
         21   -1    0    0  502  503 -0.00000000000E+00 -0.00000000000E+00 -0.65067712576E+03  0.65067712576E+03  0.00000000000E+00 0.  1.
         -6    2    1    2    0  503 -0.32629088133E+02  0.25604668585E+02 -0.51235204329E+03  0.54197773978E+03  0.17179929485E+03 0.  0.
        -24    2    3    3    0    0 -0.84679186289E+01  0.44047468942E+02 -0.50061715855E+03  0.50905819366E+03  0.80689651938E+02 0.  0.
          6    2    1    2  501    0  0.32629088133E+02 -0.25604668585E+02 -0.59932527022E+02  0.18709194143E+03  0.17231143406E+03 0.  0.
         24    2    5    5    0    0  0.44703584254E+02 -0.49186415850E+02  0.17010874949E+02  0.10557955361E+03  0.80249350932E+02 0.  0.
          5    1    5    5  501    0 -0.12074496121E+02  0.23581747264E+02 -0.76943401972E+02  0.81512387817E+02  0.47000000000E+01 0. -1.
        -13    1    6    6    0    0 -0.15213221265E+02 -0.37112689779E+02  0.19094442103E+02  0.44422872072E+02  0.00000000000E+00 0.  1.
         14    1    6    6    0    0  0.59916805519E+02 -0.12073726071E+02 -0.20835671535E+01  0.61156681540E+02  0.00000000000E+00 0. -1.
         -5    1    3    3    0  503 -0.24161169504E+02 -0.18442800356E+02 -0.11734884731E+02  0.32919546116E+02  0.47000000000E+01 0.  1.
         13    1    4    4    0    0  0.49313886105E+01 -0.21413526326E+02 -0.72461820029E+02  0.75720360969E+02  0.00000000000E+00 0. -1.
        -14    1    4    4    0    0 -0.13399307239E+02  0.65460995267E+02 -0.42815533853E+03  0.43333783269E+03  0.00000000000E+00 0.  1.
</event>
<event>
12    1  0.8196217E-002  0.1739312E+03  0.7818608E-02  0.1173985E+00
         21   -1    0    0  503  502  0.00000000000E+00  0.00000000000E+00  0.24319447888E+02  0.24319447888E+02  0.00000000000E+00 0. -1.
         21   -1    0    0  501  503 -0.00000000000E+00 -0.00000000000E+00 -0.20146064198E+04  0.20146064198E+04  0.00000000000E+00 0. -1.
          6    2    1    2  501    0 -0.20857034067E+02  0.17287059743E+02 -0.16264789167E+04  0.16356785927E+04  0.17110503798E+03 0.  0.
         24    2    3    3    0    0  0.32189671555E+01 -0.49889069468E+02 -0.74215790178E+03  0.74847059369E+03  0.83130003284E+02 0.  0.
         -6    2    1    2    0  502  0.20857034067E+02 -0.17287059743E+02 -0.36380805523E+03  0.40324727495E+03  0.17180863017E+03 0.  0.
        -24    2    5    5    0    0  0.48731827003E+02  0.17344542606E+02 -0.11003011376E+03  0.14556202986E+03  0.80037831559E+02 0.  0.
          5    1    3    3  501    0 -0.24076001223E+02  0.67176129211E+02 -0.88432101488E+03  0.88720799902E+03  0.47000000000E+01 0. -1.
        -13    1    4    4    0    0  0.17173541406E+02 -0.26163464321E+00 -0.30946651822E+02  0.35393420803E+02  0.00000000000E+00 0.  1.
         14    1    4    4    0    0 -0.13954574251E+02 -0.49627434824E+02 -0.71121124996E+03  0.71307717289E+03  0.00000000000E+00 0. -1.
         -5    1    5    5    0  502 -0.27874792935E+02 -0.34631602350E+02 -0.25377794147E+03  0.25768524509E+03  0.47000000000E+01 0.  1.
         11    1    6    6    0    0  0.18915048171E+02 -0.31021500837E+02 -0.28455310781E+02  0.46149943371E+02  0.00000000000E+00 0. -1.
        -12    1    6    6    0    0  0.29816778832E+02  0.48366043444E+02 -0.81574802979E+02  0.99412086486E+02  0.00000000000E+00 0.  1.
</event>
<event>
12    1  0.8196217E-002  0.1985266E+03  0.7818608E-02  0.1151505E+00
         21   -1    0    0  501  502  0.00000000000E+00  0.00000000000E+00  0.12573950698E+03  0.12573950698E+03  0.00000000000E+00 0.  1.
         21   -1    0    0  502  503 -0.00000000000E+00 -0.00000000000E+00 -0.31316799145E+03  0.31316799145E+03  0.00000000000E+00 0.  1.
         -6    2    1    2    0  503  0.95764785450E+02 -0.11132543291E+02 -0.71019618863E+02  0.21084736060E+03  0.17354537031E+03 0.  0.
        -24    2    3    3    0    0  0.69786796963E+01  0.88391964376E+01  0.18549859653E+02  0.83071680421E+02  0.80187115118E+02 0.  0.
          6    2    1    2  501    0 -0.95764785450E+02  0.11132543291E+02 -0.11640886560E+03  0.22806013783E+03  0.17077931615E+03 0.  0.
         24    2    5    5    0    0 -0.80049697538E+02  0.32821963503E+02 -0.13315072096E+02  0.12144018099E+03  0.84173576915E+02 0.  0.
          5    1    5    5  501    0 -0.15715087912E+02 -0.21689420212E+02 -0.10309379350E+03  0.10661995684E+03  0.47000000000E+01 0. -1.
        -13    1    6    6    0    0 -0.71930017726E+02 -0.13345218877E+01 -0.35176487838E+02  0.80081793782E+02  0.00000000000E+00 0.  1.
         14    1    6    6    0    0 -0.81196798119E+01  0.34156485391E+02  0.21861415742E+02  0.41358387212E+02  0.00000000000E+00 0. -1.
         -5    1    3    3    0  503  0.88786105754E+02 -0.19971739728E+02 -0.89569478516E+02  0.12777568018E+03  0.47000000000E+01 0.  1.
         13    1    4    4    0    0 -0.16318919247E+02  0.38343296359E+02  0.12541556304E+01  0.41690387470E+02  0.00000000000E+00 0. -1.
        -14    1    4    4    0    0  0.23297598943E+02 -0.29504099921E+02  0.17295704023E+02  0.41381292951E+02  0.00000000000E+00 0.  1.
</event>
<event>
12    1  0.8196217E-002  0.2124330E+03  0.7818608E-02  0.1140021E+00
         21   -1    0    0  503  502  0.00000000000E+00  0.00000000000E+00  0.32857180756E+03  0.32857180756E+03  0.00000000000E+00 0.  1.
         21   -1    0    0  501  503 -0.00000000000E+00 -0.00000000000E+00 -0.28792977956E+03  0.28792977956E+03  0.00000000000E+00 0.  1.
          6    2    1    2  501    0 -0.10544008702E+03  0.66490491535E+02 -0.20344893468E+03  0.29414153067E+03  0.17201503896E+03 0.  0.
         24    2    3    3    0    0 -0.10984091959E+03  0.95213206779E+02 -0.20611973377E+03  0.26458506156E+03  0.79933270850E+02 0.  0.
         -6    2    1    2    0  502  0.10544008702E+03 -0.66490491535E+02  0.24409096268E+03  0.32236005645E+03  0.16969681941E+03 0.  0.
        -24    2    5    5    0    0  0.78405498570E+02 -0.14500550334E+02  0.55851672689E+02  0.12515472373E+03  0.78654989435E+02 0.  0.
          5    1    3    3  501    0  0.44008325705E+01 -0.28722715244E+02  0.26707990968E+01  0.29556469108E+02  0.47000000000E+01 0. -1.
        -11    1    4    4    0    0 -0.10237832410E+03  0.47310403968E+02 -0.11328287364E+03  0.15985182210E+03  0.00000000000E+00 0.  1.
         12    1    4    4    0    0 -0.74625954974E+01  0.47902802812E+02 -0.92836860138E+02  0.10473323947E+03  0.00000000000E+00 0. -1.
         -5    1    5    5    0  502  0.27034588454E+02 -0.51989941200E+02  0.18823928999E+03  0.19720533272E+03  0.47000000000E+01 0.  1.
         11    1    6    6    0    0 -0.13224899707E+02 -0.14402175143E+02  0.15863383638E+02  0.25178712468E+02  0.00000000000E+00 0. -1.
        -12    1    6    6    0    0  0.91630398277E+02 -0.98375191840E-01  0.39988289051E+02  0.99976011259E+02  0.00000000000E+00 0.  1.
</event>
<event>
12    1  0.8196217E-002  0.2947630E+03  0.7818608E-02  0.1087984E+00
         21   -1    0    0  501  502  0.00000000000E+00  0.00000000000E+00  0.21764375193E+04  0.21764375193E+04  0.00000000000E+00 0.  1.
         21   -1    0    0  502  503 -0.00000000000E+00 -0.00000000000E+00 -0.79390622321E+02  0.79390622321E+02  0.00000000000E+00 0. -1.
         -6    2    1    2    0  503  0.20400421600E+03  0.12568352664E+03  0.25288533798E+03  0.38837639715E+03  0.17167167118E+03 0.  0.
        -24    2    3    3    0    0  0.67816533330E+02  0.72817872612E+02  0.49598667720E+02  0.13799783858E+03  0.81742588952E+02 0.  0.
          6    2    1    2  501    0 -0.20400421600E+03 -0.12568352664E+03  0.18441615590E+04  0.18674517445E+04  0.17038219746E+03 0.  0.
         24    2    5    5    0    0 -0.14825653628E+03 -0.14949663198E+02  0.98439099380E+03  0.99877613925E+03  0.79527697659E+02 0.  0.
          5    1    5    5  501    0 -0.55747679729E+02 -0.11073386344E+03  0.85977056522E+03  0.86867560524E+03  0.47000000000E+01 0. -1.
        -13    1    6    6    0    0 -0.62819126230E+02 -0.28541657597E+02  0.63904017427E+03  0.64275439568E+03  0.00000000000E+00 0.  1.
         14    1    6    6    0    0 -0.85437410045E+02  0.13591994398E+02  0.34535081953E+03  0.35602174357E+03  0.00000000000E+00 0. -1.
         -5    1    3    3    0  503  0.13618768267E+03  0.52865654029E+02  0.20328667026E+03  0.25037855857E+03  0.47000000000E+01 0.  1.
         13    1    4    4    0    0  0.54753688988E+02  0.69062338917E+02  0.70639198806E+02  0.11294896867E+03  0.00000000000E+00 0. -1.
        -14    1    4    4    0    0  0.13062844341E+02  0.37555336947E+01 -0.21040531086E+02  0.25048869915E+02  0.00000000000E+00 0.  1.
</event>
<event>
12    1  0.8196217E-002  0.2484566E+03  0.7818608E-02  0.1114685E+00
         21   -1    0    0  503  502  0.00000000000E+00  0.00000000000E+00  0.85052632918E+03  0.85052632918E+03  0.00000000000E+00 0.  1.
         21   -1    0    0  501  503 -0.00000000000E+00 -0.00000000000E+00 -0.87312634201E+02  0.87312634201E+02  0.00000000000E+00 0.  1.
          6    2    1    2  501    0  0.20989136272E+02 -0.17479679109E+03  0.18586438156E+03  0.31028414259E+03  0.17531747999E+03 0.  0.
         24    2    3    3    0    0  0.21061836601E+02 -0.15251086226E+03  0.62806971134E+02  0.18513669287E+03  0.81410781570E+02 0.  0.
         -6    2    1    2    0  502 -0.20989136272E+02  0.17479679109E+03  0.57734931341E+03  0.62755482079E+03  0.17175087012E+03 0.  0.
        -24    2    5    5    0    0 -0.73844764381E+02  0.14680968986E+03  0.38841627039E+03  0.42932571091E+03  0.80294661610E+02 0.  0.
          5    1    3    3  501    0 -0.72700329135E-01 -0.22285928829E+02  0.12305741043E+03  0.12514744972E+03  0.47000000000E+01 0. -1.
        -11    1    4    4    0    0  0.70433523398E+01 -0.13798358133E+03  0.79091194615E+02  0.15919954333E+03  0.00000000000E+00 0.  1.
         12    1    4    4    0    0  0.14018484261E+02 -0.14527280924E+02 -0.16284223480E+02  0.25937149542E+02  0.00000000000E+00 0. -1.
         -5    1    5    5    0  502  0.52855628109E+02  0.27987101223E+02  0.18893304302E+03  0.19822910988E+03  0.47000000000E+01 0.  1.
         13    1    6    6    0    0 -0.66996723208E+02  0.12472766862E+03  0.23635028057E+03  0.27551226355E+03  0.00000000000E+00 0. -1.
        -14    1    6    6    0    0 -0.68480411734E+01  0.22082021240E+02  0.15206598982E+03  0.15381344736E+03  0.00000000000E+00 0.  1.
</event>
<event>
12    1  0.8196217E-002  0.2478819E+03  0.7818608E-02  0.1115507E+00
         21   -1    0    0  503  502  0.00000000000E+00  0.00000000000E+00  0.63272871964E+03  0.63272871964E+03  0.00000000000E+00 0.  1.
         21   -1    0    0  501  503 -0.00000000000E+00 -0.00000000000E+00 -0.17480984572E+03  0.17480984572E+03  0.00000000000E+00 0. -1.
          6    2    1    2  501    0 -0.16513831729E+03  0.47009590050E+02 -0.42427325628E+02  0.25148661966E+03  0.17878723812E+03 0.  0.
         24    2    3    3    0    0 -0.10404210356E+03  0.76245952660E+02  0.30120869798E+02  0.15212443928E+03  0.74808914028E+02 0.  0.
         -6    2    1    2    0  502  0.16513831729E+03 -0.47009590050E+02  0.50034619956E+03  0.55605194570E+03  0.17136767931E+03 0.  0.
        -24    2    5    5    0    0  0.12964860110E+03 -0.62672501406E+02  0.48857494605E+03  0.51524141818E+03  0.77663626602E+02 0.  0.
          5    1    3    3  501    0 -0.61096213733E+02 -0.29236362610E+02 -0.72548195426E+02  0.99362180384E+02  0.47000000000E+01 0. -1.
        -13    1    4    4    0    0  0.24548260939E+01  0.34686095046E+02  0.59514874697E+01  0.35278485849E+02  0.00000000000E+00 0.  1.
         14    1    4    4    0    0 -0.10649692965E+03  0.41559857614E+02  0.24169382329E+02  0.11684595343E+03  0.00000000000E+00 0. -1.
         -5    1    5    5    0  502  0.35489716192E+02  0.15662911356E+02  0.11771253505E+02  0.40810527522E+02  0.47000000000E+01 0.  1.
         11    1    6    6    0    0  0.10156668564E+02  0.15590701704E+01  0.15211169014E+03  0.15245837102E+03  0.00000000000E+00 0. -1.
        -12    1    6    6    0    0  0.11949193254E+03 -0.64231571576E+02  0.33646325591E+03  0.36278304716E+03  0.00000000000E+00 0.  1.
</event>
<event>
12    1  0.8196217E-002  0.2031543E+03  0.7818608E-02  0.1147443E+00
         21   -1    0    0  503  502  0.00000000000E+00  0.00000000000E+00  0.55529812378E+02  0.55529812378E+02  0.00000000000E+00 0. -1.
         21   -1    0    0  501  503 -0.00000000000E+00 -0.00000000000E+00 -0.82898902787E+03  0.82898902787E+03  0.00000000000E+00 0.  1.
          6    2    1    2  501    0  0.10630651818E+03 -0.18870236912E+02 -0.53520144683E+03  0.57246158202E+03  0.17208867644E+03 0.  0.
         24    2    3    3    0    0  0.54206629420E+02  0.53961096877E+02 -0.26918040115E+03  0.29173379869E+03  0.82464309171E+02 0.  0.
         -6    2    1    2    0  502 -0.10630651818E+03  0.18870236912E+02 -0.23825776867E+03  0.31205725823E+03  0.17016405741E+03 0.  0.
        -24    2    5    5    0    0 -0.14117378636E+03  0.13908495921E+02 -0.21548750080E+03  0.26985630607E+03  0.79145933018E+02 0.  0.
          5    1    3    3  501    0  0.52099888760E+02 -0.72831333789E+02 -0.26602104568E+03  0.28072778333E+03  0.47000000000E+01 0. -1.
        -11    1    4    4    0    0  0.58773292413E+02  0.27689430610E+02 -0.25145929573E+03  0.25971673392E+03  0.00000000000E+00 0.  1.
         12    1    4    4    0    0 -0.45666629925E+01  0.26271666267E+02 -0.17721105417E+02  0.32017064771E+02  0.00000000000E+00 0. -1.
         -5    1    5    5    0  502  0.34867268180E+02  0.49617409909E+01 -0.22770267871E+02  0.42200952156E+02  0.47000000000E+01 0.  1.
         13    1    6    6    0    0 -0.63079925747E+00  0.12478881237E+02  0.10547974190E+00  0.12495259526E+02  0.00000000000E+00 0. -1.
        -14    1    6    6    0    0 -0.14054298710E+03  0.14296146834E+01 -0.21559298054E+03  0.25736104655E+03  0.00000000000E+00 0.  1.
</event>
<event>
12    1  0.8196217E-002  0.2475277E+03  0.7818608E-02  0.1115523E+00
         21   -1    0    0  503  502  0.00000000000E+00  0.00000000000E+00  0.63037895786E+02  0.63037895786E+02  0.00000000000E+00 0. -1.
         21   -1    0    0  501  503 -0.00000000000E+00 -0.00000000000E+00 -0.96061529461E+03  0.96061529461E+03  0.00000000000E+00 0.  1.
          6    2    1    2  501    0  0.73303455575E+01 -0.17724685542E+03 -0.47943520172E+03  0.53773873419E+03  0.16683720173E+03 0.  0.
         24    2    3    3    0    0  0.41215546259E+01 -0.48025042075E+02 -0.32578428383E+03  0.33689235521E+03  0.70976528018E+02 0.  0.
         -6    2    1    2    0  502 -0.73303455575E+01  0.17724685542E+03 -0.41814219710E+03  0.48591445620E+03  0.17262612788E+03 0.  0.
        -24    2    5    5    0    0 -0.54282134933E+02  0.94948815531E+02 -0.15799116060E+03  0.20900636732E+03  0.82223032105E+02 0.  0.
          5    1    3    3  501    0  0.32087909316E+01 -0.12922181334E+03 -0.15365091789E+03  0.20084637899E+03  0.47000000000E+01 0. -1.
        -11    1    4    4    0    0 -0.14966355014E+02  0.13775761420E+02 -0.60141141454E+02  0.63487953822E+02  0.00000000000E+00 0.  1.
         12    1    4    4    0    0  0.19087909640E+02 -0.61800803495E+02 -0.26564314237E+03  0.27340440139E+03  0.00000000000E+00 0. -1.
         -5    1    5    5    0  502  0.46951789376E+02  0.82298039885E+02 -0.26015103650E+03  0.27690808888E+03  0.47000000000E+01 0.  1.
         11    1    6    6    0    0  0.32051199075E+01  0.62560198787E+02 -0.41550516401E+02  0.75169785680E+02  0.00000000000E+00 0. -1.
        -12    1    6    6    0    0 -0.57487254841E+02  0.32388616744E+02 -0.11644064419E+03  0.13383658164E+03  0.00000000000E+00 0.  1.
</event>
<event>
12    1  0.8196217E-002  0.2584513E+03  0.7818608E-02  0.1108350E+00
         21   -1    0    0  501  502  0.00000000000E+00  0.00000000000E+00  0.19751574532E+03  0.19751574532E+03  0.00000000000E+00 0.  1.
         21   -1    0    0  502  503 -0.00000000000E+00 -0.00000000000E+00 -0.33604699356E+03  0.33604699356E+03  0.00000000000E+00 0. -1.
         -6    2    1    2    0  503 -0.22776410758E+02  0.19066788411E+03 -0.76166035608E+02  0.26944080389E+03  0.17298576503E+03 0.  0.
        -24    2    3    3    0    0  0.27478921236E+02  0.17407012110E+03 -0.91020683804E+02  0.21426984501E+03  0.81063576464E+02 0.  0.
          6    2    1    2  501    0  0.22776410758E+02 -0.19066788411E+03 -0.62365212628E+02  0.26412193499E+03  0.17028790291E+03 0.  0.
         24    2    5    5    0    0  0.62674180869E+02 -0.15575761050E+03 -0.86359354540E+02  0.20574070419E+03  0.81748474411E+02 0.  0.
          5    1    5    5  501    0 -0.39897770110E+02 -0.34910273607E+02  0.23994141912E+02  0.58381230795E+02  0.47000000000E+01 0. -1.
        -11    1    6    6    0    0  0.41767262549E+01 -0.11075346382E+03 -0.36564852105E+02  0.11670802543E+03  0.00000000000E+00 0.  1.
         12    1    6    6    0    0  0.58497454614E+02 -0.45004146680E+02 -0.49794502435E+02  0.89032678761E+02  0.00000000000E+00 0. -1.
         -5    1    3    3    0  503 -0.50255331994E+02  0.16597763011E+02  0.14854648196E+02  0.55170958881E+02  0.47000000000E+01 0.  1.
         11    1    4    4    0    0 -0.13696041206E+02  0.57750099122E+02 -0.65267444276E+02  0.88218449179E+02  0.00000000000E+00 0. -1.
        -12    1    4    4    0    0  0.41174962442E+02  0.11632002198E+03 -0.25753239528E+02  0.12605139583E+03  0.00000000000E+00 0.  1.
</event>
<event>
12    1  0.8196217E-002  0.1733040E+03  0.7818608E-02  0.1174588E+00
         21   -1    0    0  503  502  0.00000000000E+00  0.00000000000E+00  0.10873213692E+04  0.10873213692E+04  0.00000000000E+00 0. -1.
         21   -1    0    0  501  503 -0.00000000000E+00 -0.00000000000E+00 -0.27850121523E+02  0.27850121523E+02  0.00000000000E+00 0. -1.
          6    2    1    2  501    0 -0.25359147840E+02  0.23599048742E+01  0.58838512602E+03  0.61321890738E+03  0.17085583489E+03 0.  0.
         24    2    3    3    0    0  0.37989040644E+02 -0.40365618888E+02  0.33757766330E+03  0.35098821367E+03  0.78495203567E+02 0.  0.
         -6    2    1    2    0  502  0.25359147840E+02 -0.23599048742E+01  0.47108612168E+03  0.50195258336E+03  0.17142230420E+03 0.  0.
        -24    2    5    5    0    0  0.47788689671E+02 -0.52254719744E+02  0.38321858512E+03  0.39834094851E+03  0.82490682364E+02 0.  0.
          5    1    3    3  501    0 -0.63348188484E+02  0.42725523763E+02  0.25080746272E+03  0.26223069371E+03  0.47000000000E+01 0. -1.
        -13    1    4    4    0    0  0.23733334530E+02  0.88578706756E+01  0.30428291342E+02  0.39593104890E+02  0.00000000000E+00 0.  1.
         14    1    4    4    0    0  0.14255706114E+02 -0.49223489564E+02  0.30714937196E+03  0.31139510878E+03  0.00000000000E+00 0. -1.
         -5    1    5    5    0  502 -0.22429541831E+02  0.49894814870E+02  0.87867536555E+02  0.10361163486E+03  0.47000000000E+01 0.  1.
         13    1    6    6    0    0  0.37428225224E+02 -0.22429481823E+02  0.63380978565E+02  0.76948698119E+02  0.00000000000E+00 0. -1.
        -14    1    6    6    0    0  0.10360464448E+02 -0.29825237921E+02  0.31983760656E+03  0.32139225039E+03  0.00000000000E+00 0.  1.
</event>
<event>
12    1  0.8196217E-002  0.2038930E+03  0.7818608E-02  0.1146632E+00
         21   -1    0    0  503  502  0.00000000000E+00  0.00000000000E+00  0.10728859307E+03  0.10728859307E+03  0.00000000000E+00 0.  1.
         21   -1    0    0  501  503 -0.00000000000E+00 -0.00000000000E+00 -0.82881395918E+03  0.82881395918E+03  0.00000000000E+00 0.  1.
          6    2    1    2  501    0  0.10792305058E+03 -0.17972125653E+02 -0.70252034342E+03  0.73132573756E+03  0.17126622364E+03 0.  0.
         24    2    3    3    0    0  0.11878141740E+03 -0.62692053013E+02 -0.52446305190E+03  0.54735762865E+03  0.80619862367E+02 0.  0.
         -6    2    1    2    0  502 -0.10792305058E+03  0.17972125653E+02 -0.19005022690E+02  0.20477681469E+03  0.17205223276E+03 0.  0.
        -24    2    5    5    0    0  0.87705088333E+01 -0.13128931594E+02 -0.22338509947E+02  0.83872452860E+02  0.79286118912E+02 0.  0.
          5    1    3    3  501    0 -0.10858366814E+02  0.44719927360E+02 -0.17805729152E+03  0.18396810891E+03  0.47000000000E+01 0. -1.
        -11    1    4    4    0    0  0.79037624108E+02  0.33315918812E+01 -0.24427804044E+03  0.25676800146E+03  0.00000000000E+00 0.  1.
         12    1    4    4    0    0  0.39743793290E+02 -0.66023644894E+02 -0.28018501146E+03  0.29058962720E+03  0.00000000000E+00 0. -1.
         -5    1    5    5    0  502 -0.11669355942E+03  0.31101057247E+02  0.33334872573E+01  0.12090436183E+03  0.47000000000E+01 0.  1.
         11    1    6    6    0    0 -0.16293689476E+02 -0.35584511293E+02 -0.30055916460E+02  0.49346731148E+02  0.00000000000E+00 0. -1.
        -12    1    6    6    0    0  0.25064198309E+02  0.22455579699E+02  0.77174065125E+01  0.34525721713E+02  0.00000000000E+00 0.  1.
</event>
<event>
12    1  0.8196217E-002  0.3149894E+03  0.7818608E-02  0.1078265E+00
         21   -1    0    0  503  502  0.00000000000E+00  0.00000000000E+00  0.43185738023E+03  0.43185738023E+03  0.00000000000E+00 0. -1.
         21   -1    0    0  501  503 -0.00000000000E+00 -0.00000000000E+00 -0.24371533588E+03  0.24371533588E+03  0.00000000000E+00 0.  1.
          6    2    1    2  501    0  0.25524659774E+03 -0.55810881795E+02  0.78926857861E+01  0.31265657159E+03  0.17154054064E+03 0.  0.
         24    2    3    3    0    0  0.25089271250E+03 -0.89505611956E+02  0.38993642590E+01  0.27812647205E+03  0.79879419480E+02 0.  0.
         -6    2    1    2    0  502 -0.25524659774E+03  0.55810881795E+02  0.18024935856E+03  0.36291614452E+03  0.17593355708E+03 0.  0.
        -24    2    5    5    0    0 -0.16932210512E+03  0.10034584958E+03  0.87266459857E+02  0.22862433077E+03  0.76905037514E+02 0.  0.
          5    1    3    3  501    0  0.43538852404E+01  0.33694730161E+02  0.39933215272E+01  0.34530099538E+02  0.47000000000E+01 0. -1.
        -11    1    4    4    0    0  0.94217896679E+02 -0.74623422544E+02 -0.68065765722E+01  0.12038270944E+03  0.00000000000E+00 0.  1.
         12    1    4    4    0    0  0.15667481582E+03 -0.14882189412E+02  0.10705940831E+02  0.15774376262E+03  0.00000000000E+00 0. -1.
         -5    1    5    5    0  502 -0.85924492621E+02 -0.44534967785E+02  0.92982898706E+02  0.13429181375E+03  0.47000000000E+01 0.  1.
         13    1    6    6    0    0 -0.88702583617E+02  0.41705639088E+02  0.83664016836E+02  0.12886883403E+03  0.00000000000E+00 0. -1.
        -14    1    6    6    0    0 -0.80619521504E+02  0.58640210492E+02  0.36024430209E+01  0.99755496740E+02  0.00000000000E+00 0.  1.
</event>
<event>
12    1  0.8196217E-002  0.1951661E+03  0.7818608E-02  0.1153904E+00
         21   -1    0    0  501  502  0.00000000000E+00  0.00000000000E+00  0.10934390216E+04  0.10934390216E+04  0.00000000000E+00 0. -1.
         21   -1    0    0  502  503 -0.00000000000E+00 -0.00000000000E+00 -0.36480539540E+02  0.36480539540E+02  0.00000000000E+00 0. -1.
         -6    2    1    2    0  503 -0.17096522448E+02  0.90685910684E+02  0.64897185468E+03  0.67765536224E+03  0.17186068869E+03 0.  0.
        -24    2    3    3    0    0  0.48937604435E+02  0.41559611651E+02  0.46354295837E+03  0.47472713661E+03  0.79822863418E+02 0.  0.
          6    2    1    2  501    0  0.17096522448E+02 -0.90685910684E+02  0.40798662741E+03  0.45226419894E+03  0.17196974158E+03 0.  0.
         24    2    5    5    0    0  0.31877079796E+02 -0.13805786304E+01  0.29877884335E+03  0.31034049652E+03  0.77616830219E+02 0.  0.
          5    1    5    5  501    0 -0.14780557348E+02 -0.89305332054E+02  0.10920778405E+03  0.14192370241E+03  0.47000000000E+01 0. -1.
        -11    1    6    6    0    0  0.42904605241E+02  0.13279776664E+02  0.88320539126E+02  0.99084182646E+02  0.00000000000E+00 0.  1.
         12    1    6    6    0    0 -0.11027525445E+02 -0.14660355295E+02  0.21045830423E+03  0.21125631388E+03  0.00000000000E+00 0. -1.
         -5    1    3    3    0  503 -0.66034126883E+02  0.49126299033E+02  0.18542889631E+03  0.20292822563E+03  0.47000000000E+01 0.  1.
         13    1    4    4    0    0  0.54636577501E+02  0.23055804866E+02  0.16115077341E+03  0.17171574625E+03  0.00000000000E+00 0. -1.
        -14    1    4    4    0    0 -0.56989730660E+01  0.18503806785E+02  0.30239218496E+03  0.30301139035E+03  0.00000000000E+00 0.  1.
</event>
<event>
12    1  0.8196217E-002  0.1968791E+03  0.7818608E-02  0.1152611E+00
         21   -1    0    0  503  502  0.00000000000E+00  0.00000000000E+00  0.75988527162E+02  0.75988527162E+02  0.00000000000E+00 0.  1.
         21   -1    0    0  501  503 -0.00000000000E+00 -0.00000000000E+00 -0.78554283942E+03  0.78554283942E+03  0.00000000000E+00 0.  1.
          6    2    1    2  501    0 -0.15490014790E+02 -0.93249110985E+02 -0.61160605421E+03  0.64251330254E+03  0.17270217464E+03 0.  0.
         24    2    3    3    0    0 -0.18929414202E+02  0.17633960463E+02 -0.23149223083E+03  0.24651394177E+03  0.80691952927E+02 0.  0.
         -6    2    1    2    0  502  0.15490014790E+02  0.93249110985E+02 -0.97948258040E+02  0.21901806404E+03  0.17158005090E+03 0.  0.
        -24    2    5    5    0    0 -0.96285802637E+01  0.11401672460E+03 -0.11633866901E+03  0.18130155826E+03  0.79012948778E+02 0.  0.
          5    1    3    3  501    0  0.34393994117E+01 -0.11088307145E+03 -0.38011382338E+03  0.39599936077E+03  0.47000000000E+01 0. -1.
        -11    1    4    4    0    0 -0.12690877418E+02 -0.18336548714E+01 -0.22456289903E+03  0.22492869154E+03  0.00000000000E+00 0.  1.
         12    1    4    4    0    0 -0.62385367834E+01  0.19467615334E+02 -0.69293318036E+01  0.21585250224E+02  0.00000000000E+00 0. -1.
         -5    1    5    5    0  502  0.25118595054E+02 -0.20767613617E+02  0.18390410967E+02  0.37716505781E+02  0.47000000000E+01 0.  1.
         13    1    6    6    0    0 -0.27641663856E+02  0.55325123065E+01 -0.32474000899E+02  0.43002686050E+02  0.00000000000E+00 0. -1.
        -14    1    6    6    0    0  0.18013083592E+02  0.10848421230E+03 -0.83864668109E+02  0.13829887221E+03  0.00000000000E+00 0.  1.
</event>
<event>
12    1  0.8196217E-002  0.2126158E+03  0.7818608E-02  0.1139706E+00
         21   -1    0    0  503  502  0.00000000000E+00  0.00000000000E+00  0.10488885102E+04  0.10488885102E+04  0.00000000000E+00 0. -1.
         21   -1    0    0  501  503 -0.00000000000E+00 -0.00000000000E+00 -0.44322393212E+02  0.44322393212E+02  0.00000000000E+00 0.  1.
          6    2    1    2  501    0 -0.11801273718E+03  0.34111342051E+02  0.40539681786E+03  0.45776858237E+03  0.17353646671E+03 0.  0.
         24    2    3    3    0    0 -0.11289735652E+02 -0.27103002851E+02  0.11389849446E+03  0.14133476998E+03  0.78362103535E+02 0.  0.
         -6    2    1    2    0  502  0.11801273718E+03 -0.34111342051E+02  0.59916929916E+03  0.63544232107E+03  0.17231513156E+03 0.  0.
        -24    2    5    5    0    0  0.97746368352E+02  0.53365025618E+01  0.21831014769E+03  0.25198092614E+03  0.79071080473E+02 0.  0.
          5    1    3    3  501    0 -0.10672300153E+03  0.61214344902E+02  0.29149832340E+03  0.31643381238E+03  0.47000000000E+01 0. -1.
        -13    1    4    4    0    0  0.18247818717E+02 -0.45616417166E+01 -0.26607078370E+01  0.18996600466E+02  0.00000000000E+00 0.  1.
         14    1    4    4    0    0 -0.29537554369E+02 -0.22541361134E+02  0.11655920230E+03  0.12233816951E+03  0.00000000000E+00 0. -1.
         -5    1    5    5    0  502  0.20266368831E+02 -0.39447844613E+02  0.38085915146E+03  0.38346139493E+03  0.47000000000E+01 0.  1.
         11    1    6    6    0    0  0.57383244666E+00  0.21942855196E+02  0.74198743238E+02  0.77377462326E+02  0.00000000000E+00 0. -1.
        -12    1    6    6    0    0  0.97172535905E+02 -0.16606352634E+02  0.14411140445E+03  0.17460346381E+03  0.00000000000E+00 0.  1.
</event>
<event>
12    1  0.8196217E-002  0.4505487E+03  0.7818608E-02  0.1027572E+00
         21   -1    0    0  501  502  0.00000000000E+00  0.00000000000E+00  0.12552038066E+04  0.12552038066E+04  0.00000000000E+00 0. -1.
         21   -1    0    0  502  503 -0.00000000000E+00 -0.00000000000E+00 -0.17044537447E+03  0.17044537447E+03  0.00000000000E+00 0.  1.
         -6    2    1    2    0  503  0.41404627772E+03 -0.41574877280E+02  0.38063681821E+03  0.58981229298E+03  0.17271758177E+03 0.  0.
        -24    2    3    3    0    0  0.42595290910E+03 -0.46765769553E+02  0.37471914645E+03  0.57478491555E+03  0.79626267381E+02 0.  0.
          6    2    1    2  501    0 -0.41404627772E+03  0.41574877280E+02  0.70412161388E+03  0.83583688805E+03  0.17225929809E+03 0.  0.
         24    2    5    5    0    0 -0.23945609403E+03  0.44264222251E+02  0.29311873704E+03  0.38925607835E+03  0.79392431583E+02 0.  0.
          5    1    5    5  501    0 -0.17459018369E+03 -0.26893449710E+01  0.41100287684E+03  0.44658080970E+03  0.47000000000E+01 0. -1.
        -13    1    6    6    0    0 -0.15282744179E+03  0.16549024284E+02  0.23666449082E+03  0.28220591486E+03  0.00000000000E+00 0.  1.
         14    1    6    6    0    0 -0.86628652245E+02  0.27715197967E+02  0.56454246224E+02  0.10705016350E+03  0.00000000000E+00 0. -1.
         -5    1    3    3    0  503 -0.11906631373E+02  0.51908922733E+01  0.59176717542E+01  0.15027377424E+02  0.47000000000E+01 0.  1.
         13    1    4    4    0    0  0.19501776227E+03 -0.50179337687E+02  0.21109580948E+03  0.29173846903E+03  0.00000000000E+00 0. -1.
        -14    1    4    4    0    0  0.23093514682E+03  0.34135681343E+01  0.16362333698E+03  0.28304644652E+03  0.00000000000E+00 0.  1.
</event>
<event>
12    1  0.8196217E-002  0.2242224E+03  0.7818608E-02  0.1130941E+00
         21   -1    0    0  503  502  0.00000000000E+00  0.00000000000E+00  0.36978761530E+03  0.36978761530E+03  0.00000000000E+00 0. -1.
         21   -1    0    0  501  503 -0.00000000000E+00 -0.00000000000E+00 -0.13546906204E+03  0.13546906204E+03  0.00000000000E+00 0. -1.
          6    2    1    2  501    0 -0.53145095024E+02 -0.13228468113E+03  0.11125522577E+03  0.24948285396E+03  0.17187300885E+03 0.  0.
         24    2    3    3    0    0 -0.19543444086E+02 -0.90292886865E+02 -0.36193081743E+01  0.12255519629E+03  0.80448276064E+02 0.  0.
         -6    2    1    2    0  502  0.53145095024E+02  0.13228468113E+03  0.12306332748E+03  0.25577382339E+03  0.17306654262E+03 0.  0.
        -24    2    5    5    0    0 -0.35156988280E+01  0.42364917938E+01  0.22431034458E+02  0.83275322667E+02  0.80008249933E+02 0.  0.
          5    1    3    3  501    0 -0.33601650938E+02 -0.41991794260E+02  0.11487453394E+03  0.12692765766E+03  0.47000000000E+01 0. -1.
        -11    1    4    4    0    0 -0.45136413107E+02 -0.35816016737E+02 -0.18567053343E+02  0.60537742880E+02  0.00000000000E+00 0.  1.
         12    1    4    4    0    0  0.25592969022E+02 -0.54476870128E+02  0.14947745168E+02  0.62017453413E+02  0.00000000000E+00 0. -1.
         -5    1    5    5    0  502  0.56660793852E+02  0.12804818933E+03  0.10063229302E+03  0.17249850072E+03  0.47000000000E+01 0.  1.
         13    1    6    6    0    0  0.37899876300E+02  0.75528270827E+01  0.10385487598E+02  0.40016298844E+02  0.00000000000E+00 0. -1.
        -14    1    6    6    0    0 -0.41415575128E+02 -0.33163352889E+01  0.12045546860E+02  0.43259023823E+02  0.00000000000E+00 0.  1.
</event>
<event>
12    1  0.8196217E-002  0.2160395E+03  0.7818608E-02  0.1136958E+00
         21   -1    0    0  503  502  0.00000000000E+00  0.00000000000E+00  0.82019344368E+03  0.82019344368E+03  0.00000000000E+00 0. -1.
         21   -1    0    0  501  503 -0.00000000000E+00 -0.00000000000E+00 -0.11312037266E+03  0.11312037266E+03  0.00000000000E+00 0. -1.
          6    2    1    2  501    0  0.10610227632E+03  0.77073762185E+02  0.24027705922E+02  0.21691724218E+03  0.17110728052E+03 0.  0.
         24    2    3    3    0    0 -0.12111125436E+02  0.43819266831E+02 -0.15118553650E+01  0.91399797157E+02  0.79276917882E+02 0.  0.
         -6    2    1    2    0  502 -0.10610227632E+03 -0.77073762185E+02  0.68304536509E+03  0.71639657416E+03  0.17168291364E+03 0.  0.
        -24    2    5    5    0    0 -0.12657939138E+03 -0.23665096045E+02  0.38805048743E+03  0.41587059241E+03  0.76044656243E+02 0.  0.
          5    1    3    3  501    0  0.11821340175E+03  0.33254495354E+02  0.25539561287E+02  0.12551744503E+03  0.47000000000E+01 0. -1.
        -11    1    4    4    0    0 -0.12688647079E+01  0.29636450479E+02 -0.39516280172E+02  0.49411189151E+02  0.00000000000E+00 0.  1.
         12    1    4    4    0    0 -0.10842260728E+02  0.14182816352E+02  0.38004424807E+02  0.41988608007E+02  0.00000000000E+00 0. -1.
         -5    1    5    5    0  502  0.20477115065E+02 -0.53408666140E+02  0.29499487766E+03  0.30052598175E+03  0.47000000000E+01 0.  1.
         13    1    6    6    0    0 -0.11024403779E+03 -0.59918866359E+00  0.35811307400E+03  0.37469865314E+03  0.00000000000E+00 0. -1.
        -14    1    6    6    0    0 -0.16335353592E+02 -0.23065907382E+02  0.29937413429E+02  0.41171939269E+02  0.00000000000E+00 0.  1.
</event>
<event>
12    1  0.8196217E-002  0.1757449E+03  0.7818608E-02  0.1171988E+00
         21   -1    0    0  503  502  0.00000000000E+00  0.00000000000E+00  0.13151156994E+04  0.13151156994E+04  0.00000000000E+00 0. -1.
         21   -1    0    0  501  503 -0.00000000000E+00 -0.00000000000E+00 -0.13911863683E+03  0.13911863683E+03  0.00000000000E+00 0. -1.
          6    2    1    2  501    0 -0.21465294828E+02  0.29219198284E+02 -0.74909603360E+02  0.19104373859E+03  0.17196435953E+03 0.  0.
         24    2    3    3    0    0 -0.17873947243E+02  0.64145963263E+02  0.41101406768E+01  0.10444704906E+03  0.80362368110E+02 0.  0.
         -6    2    1    2    0  502  0.21465294828E+02 -0.29219198284E+02  0.12509066659E+04  0.12631905976E+04  0.17195487390E+03 0.  0.
        -24    2    5    5    0    0 -0.69372843931E+01  0.42127148459E+02  0.84845732561E+03  0.85345340232E+03  0.81731597327E+02 0.  0.
          5    1    3    3  501    0 -0.35913475858E+01 -0.34926764979E+02 -0.79019744037E+02  0.86596689527E+02  0.47000000000E+01 0. -1.
        -11    1    4    4    0    0 -0.46900151047E+02  0.22316121840E+02  0.10935247459E+02  0.53077425514E+02  0.00000000000E+00 0.  1.
         12    1    4    4    0    0  0.29026203804E+02  0.41829841423E+02 -0.68251067826E+01  0.51369623547E+02  0.00000000000E+00 0. -1.
         -5    1    5    5    0  502  0.28402579221E+02 -0.71346346744E+02  0.40244934031E+03  0.40973719530E+03  0.47000000000E+01 0.  1.
         11    1    6    6    0    0  0.77650096940E+01  0.23329655477E+02  0.62919630772E+02  0.67553298489E+02  0.00000000000E+00 0. -1.
        -12    1    6    6    0    0 -0.14702294087E+02  0.18797492983E+02  0.78553769484E+03  0.78590010383E+03  0.00000000000E+00 0.  1.
</event>
<event>
12    1  0.8196217E-002  0.1825636E+03  0.7818608E-02  0.1165554E+00
         21   -1    0    0  501  502  0.00000000000E+00  0.00000000000E+00  0.73901062634E+02  0.73901062634E+02  0.00000000000E+00 0. -1.
         21   -1    0    0  502  503 -0.00000000000E+00 -0.00000000000E+00 -0.50959160638E+03  0.50959160638E+03  0.00000000000E+00 0. -1.
         -6    2    1    2    0  503  0.13549708417E+02 -0.59153379843E+02 -0.31811957533E+03  0.36634663804E+03  0.17125150525E+03 0.  0.
        -24    2    3    3    0    0  0.30818623977E+02  0.32772804693E+02 -0.15089816875E+03  0.17468618916E+03  0.75638370146E+02 0.  0.
          6    2    1    2  501    0 -0.13549708417E+02  0.59153379843E+02 -0.11757096842E+03  0.21714603097E+03  0.17218231387E+03 0.  0.
         24    2    5    5    0    0  0.34727763526E+02  0.71674329343E+02 -0.31128559792E+02  0.11723672969E+03  0.80201225106E+02 0.  0.
          5    1    5    5  501    0 -0.48277471942E+02 -0.12520949500E+02 -0.86442408624E+02  0.99909301280E+02  0.47000000000E+01 0. -1.
        -11    1    6    6    0    0 -0.13976455264E+02  0.27276961475E+02  0.17537766460E+02  0.35312139293E+02  0.00000000000E+00 0.  1.
         12    1    6    6    0    0  0.48704218790E+02  0.44397367867E+02 -0.48666326252E+02  0.81924590401E+02  0.00000000000E+00 0. -1.
         -5    1    3    3    0  503 -0.17268915560E+02 -0.91926184536E+02 -0.16722140658E+03  0.19166044888E+03  0.47000000000E+01 0.  1.
         13    1    4    4    0    0 -0.36730560570E+01 -0.90259037340E+01  0.40363181660E+01  0.10547518350E+02  0.00000000000E+00 0. -1.
        -14    1    4    4    0    0  0.34491680034E+02  0.41798708427E+02 -0.15493448692E+03  0.16413867081E+03  0.00000000000E+00 0.  1.
</event>
<event>
12    1  0.8196217E-002  0.2360470E+03  0.7818608E-02  0.1123016E+00
         21   -1    0    0  501  502  0.00000000000E+00  0.00000000000E+00  0.30851378725E+03  0.30851378725E+03  0.00000000000E+00 0. -1.
         21   -1    0    0  502  503 -0.00000000000E+00 -0.00000000000E+00 -0.17895831173E+03  0.17895831173E+03  0.00000000000E+00 0. -1.
         -6    2    1    2    0  503 -0.15255914874E+03 -0.40472639000E+02  0.82060997806E+02  0.24990434066E+03  0.17551593588E+03 0.  0.
        -24    2    3    3    0    0 -0.17471713552E+03 -0.20432177351E+02  0.96936361237E+02  0.21620029166E+03  0.80014727828E+02 0.  0.
          6    2    1    2  501    0  0.15255914874E+03  0.40472639000E+02  0.47494477710E+02  0.23756775833E+03  0.17108590244E+03 0.  0.
         24    2    5    5    0    0  0.13232639965E+03 -0.19170305232E+02 -0.33523004956E+01  0.15648675077E+03  0.81234774590E+02 0.  0.
          5    1    5    5  501    0  0.20232749090E+02  0.59642944231E+02  0.50846778206E+02  0.81081007556E+02  0.47000000000E+01 0. -1.
        -13    1    6    6    0    0  0.11860520742E+03  0.11748382187E+02 -0.16242653238E+02  0.12028733722E+03  0.00000000000E+00 0.  1.
         14    1    6    6    0    0  0.13721192228E+02 -0.30918687419E+02  0.12890352743E+02  0.36199413554E+02  0.00000000000E+00 0. -1.
         -5    1    3    3    0  503  0.22157986783E+02 -0.20040461649E+02 -0.14875363431E+02  0.33704048994E+02  0.47000000000E+01 0.  1.
         13    1    4    4    0    0 -0.75238971790E+02  0.11421104635E+02  0.37051573968E+01  0.76191027676E+02  0.00000000000E+00 0. -1.
        -14    1    4    4    0    0 -0.99478163730E+02 -0.31853281985E+02  0.93231203840E+02  0.14000926399E+03  0.00000000000E+00 0.  1.
</event>
<event>
12    1  0.8196217E-002  0.1941587E+03  0.7818608E-02  0.1154803E+00
         21   -1    0    0  503  502  0.00000000000E+00  0.00000000000E+00  0.43122002169E+03  0.43122002169E+03  0.00000000000E+00 0. -1.
         21   -1    0    0  501  503 -0.00000000000E+00 -0.00000000000E+00 -0.20774564224E+03  0.20774564224E+03  0.00000000000E+00 0. -1.
          6    2    1    2  501    0  0.40482486824E+02  0.79403201722E+02 -0.13150863206E+03  0.23435405672E+03  0.17228930150E+03 0.  0.
         24    2    3    3    0    0  0.15379824037E+01 -0.61189450216E+01 -0.11145739931E+03  0.13815190528E+03  0.81384213405E+02 0.  0.
         -6    2    1    2    0  502 -0.40482486824E+02 -0.79403201722E+02  0.35498301151E+03  0.40461160721E+03  0.17249322899E+03 0.  0.
        -24    2    5    5    0    0 -0.22556414368E+02 -0.85959603524E+02  0.12173665937E+03  0.17053836811E+03  0.79785183433E+02 0.  0.
          5    1    3    3  501    0  0.38944504421E+02  0.85522146744E+02 -0.20051232743E+02  0.96202151445E+02  0.47000000000E+01 0. -1.
        -13    1    4    4    0    0  0.24889890904E+02  0.19639399846E+02 -0.13962908023E+02  0.34643549125E+02  0.00000000000E+00 0.  1.
         14    1    4    4    0    0 -0.23351908501E+02 -0.25758344867E+02 -0.97494491291E+02  0.10350835615E+03  0.00000000000E+00 0. -1.
         -5    1    5    5    0  502 -0.17926072457E+02  0.65564018016E+01  0.23324635214E+03  0.23407323910E+03  0.47000000000E+01 0.  1.
         11    1    6    6    0    0  0.23425899638E+02 -0.55088197213E+01  0.41456260200E+02  0.47934761691E+02  0.00000000000E+00 0. -1.
        -12    1    6    6    0    0 -0.45982314006E+02 -0.80450783802E+02  0.80280399169E+02  0.12260360642E+03  0.00000000000E+00 0.  1.
</event>
<event>
12    1  0.8196217E-002  0.2490905E+03  0.7818608E-02  0.1113983E+00
         21   -1    0    0  501  502  0.00000000000E+00  0.00000000000E+00  0.25075601895E+03  0.25075601895E+03  0.00000000000E+00 0.  1.
         21   -1    0    0  502  503 -0.00000000000E+00 -0.00000000000E+00 -0.31683801306E+03  0.31683801306E+03  0.00000000000E+00 0.  1.
         -6    2    1    2    0  503 -0.71042869342E+02 -0.16602787899E+03 -0.16650888305E+03  0.29961859465E+03  0.17156266563E+03 0.  0.
        -24    2    3    3    0    0 -0.35508531735E+02 -0.11310319498E+03 -0.18441335656E+03  0.23323808924E+03  0.79614895927E+02 0.  0.
          6    2    1    2  501    0  0.71042869342E+02  0.16602787899E+03  0.10042688894E+03  0.26797543737E+03  0.17062511281E+03 0.  0.
         24    2    5    5    0    0  0.99370677608E+01  0.76295160836E+02  0.11148060785E+03  0.15875019122E+03  0.82788890572E+02 0.  0.
          5    1    5    5  501    0  0.61105801581E+02  0.89732718158E+02 -0.11053718908E+02  0.10922524615E+03  0.47000000000E+01 0. -1.
        -13    1    6    6    0    0  0.12919032168E+02  0.88436494866E+02  0.64721305639E+02  0.11034836845E+03  0.00000000000E+00 0.  1.
         14    1    6    6    0    0 -0.29819644073E+01 -0.12141334030E+02  0.46759302212E+02  0.48401822766E+02  0.00000000000E+00 0. -1.
         -5    1    3    3    0  503 -0.35534337607E+02 -0.52924684015E+02  0.17904473507E+02  0.66380505413E+02  0.47000000000E+01 0.  1.
         13    1    4    4    0    0 -0.66412590084E+01  0.76315207804E+01 -0.46910601223E+02  0.47989071024E+02  0.00000000000E+00 0. -1.
        -14    1    4    4    0    0 -0.28867272727E+02 -0.12073471576E+03 -0.13750275533E+03  0.18524901821E+03  0.00000000000E+00 0.  1.
</event>
<event>
12    1  0.8196217E-002  0.2029554E+03  0.7818608E-02  0.1147401E+00
         21   -1    0    0  501  502  0.00000000000E+00  0.00000000000E+00  0.67223173377E+03  0.67223173377E+03  0.00000000000E+00 0. -1.
         21   -1    0    0  502  503 -0.00000000000E+00 -0.00000000000E+00 -0.65638741672E+02  0.65638741672E+02  0.00000000000E+00 0. -1.
         -6    2    1    2    0  503  0.10342420256E+03 -0.17887049054E+01  0.20565539614E+03  0.28849105779E+03  0.17387692004E+03 0.  0.
        -24    2    3    3    0    0  0.11162600011E+03  0.49196263461E+02  0.17493212680E+03  0.22821879418E+03  0.81252278679E+02 0.  0.
          6    2    1    2  501    0 -0.10342420256E+03  0.17887049054E+01  0.40093759596E+03  0.44937941765E+03  0.17461712406E+03 0.  0.
         24    2    5    5    0    0 -0.24806066500E+02  0.37576098617E+02  0.98250061983E+02  0.13457252114E+03  0.80183443702E+02 0.  0.
          5    1    5    5  501    0 -0.78618136063E+02 -0.35787393712E+02  0.30268753398E+03  0.31480689651E+03  0.47000000000E+01 0. -1.
        -13    1    6    6    0    0 -0.26841590761E+02  0.41477398732E+01  0.97352528978E+02  0.10107022133E+03  0.00000000000E+00 0.  1.
         14    1    6    6    0    0  0.20355242609E+01  0.33428358744E+02  0.89753300534E+00  0.33502299814E+02  0.00000000000E+00 0. -1.
         -5    1    3    3    0  503 -0.82017975427E+01 -0.50984968366E+02  0.30723269336E+02  0.60272263613E+02  0.47000000000E+01 0.  1.
         11    1    4    4    0    0  0.70213910773E+02 -0.12784857672E+02  0.96379818175E+02  0.11992712455E+03  0.00000000000E+00 0. -1.
        -12    1    4    4    0    0  0.41412089332E+02  0.61981121133E+02  0.78552308626E+02  0.10829166963E+03  0.00000000000E+00 0.  1.
</event>
<event>
12    1  0.8196217E-002  0.2070955E+03  0.7818608E-02  0.1144255E+00
         21   -1    0    0  503  502  0.00000000000E+00  0.00000000000E+00  0.20557418139E+03  0.20557418139E+03  0.00000000000E+00 0.  1.
         21   -1    0    0  501  503 -0.00000000000E+00 -0.00000000000E+00 -0.21858084887E+03  0.21858084887E+03  0.00000000000E+00 0. -1.
          6    2    1    2  501    0 -0.10918963256E+03  0.40376589690E+02 -0.55767723421E+02  0.21447284573E+03  0.17127731235E+03 0.  0.
         24    2    3    3    0    0 -0.11018971381E+03  0.76364001002E+02 -0.17816624850E+02  0.16195170886E+03  0.89093715850E+02 0.  0.
         -6    2    1    2    0  502  0.10918963256E+03 -0.40376589690E+02  0.42761055942E+02  0.20968218453E+03  0.16907236838E+03 0.  0.
        -24    2    5    5    0    0  0.75846126606E+02 -0.82387857792E+02  0.64433879025E+02  0.15164308308E+03  0.79394621013E+02 0.  0.
          5    1    3    3  501    0  0.10000812480E+01 -0.35987411312E+02 -0.37951098571E+02  0.52521136871E+02  0.47000000000E+01 0. -1.
        -13    1    4    4    0    0 -0.61460134428E+02  0.45188173406E+02 -0.54230422983E+02  0.93596249480E+02  0.00000000000E+00 0.  1.
         14    1    4    4    0    0 -0.48729579378E+02  0.31175827596E+02  0.36413798133E+02  0.68355459381E+02  0.00000000000E+00 0. -1.
         -5    1    5    5    0  502  0.33343505953E+02  0.42011268102E+02 -0.21672823083E+02  0.58039101450E+02  0.47000000000E+01 0.  1.
         13    1    6    6    0    0  0.34798733181E+02 -0.23455087672E+02 -0.14990844080E+02  0.44562522089E+02  0.00000000000E+00 0. -1.
        -14    1    6    6    0    0  0.41047393425E+02 -0.58932770120E+02  0.79424723105E+02  0.10708056099E+03  0.00000000000E+00 0.  1.
</event>
<event>
12    1  0.8196217E-002  0.1908149E+03  0.7818608E-02  0.1160791E+00
         21   -1    0    0  503  502  0.00000000000E+00  0.00000000000E+00  0.30884535179E+02  0.30884535179E+02  0.00000000000E+00 0.  1.
         21   -1    0    0  501  503 -0.00000000000E+00 -0.00000000000E+00 -0.10998261297E+04  0.10998261297E+04  0.00000000000E+00 0.  1.
          6    2    1    2  501    0 -0.85964672353E+01  0.48940279965E+02 -0.53902595217E+03  0.57180356834E+03  0.18423162977E+03 0.  0.
         24    2    3    3    0    0 -0.35135118844E+02  0.69559070661E+02 -0.51976857034E+03  0.53278599135E+03  0.87341885632E+02 0.  0.
         -6    2    1    2    0  502  0.85964672353E+01 -0.48940279965E+02 -0.52991564238E+03  0.55890709656E+03  0.17057990591E+03 0.  0.
        -24    2    5    5    0    0 -0.14401780259E+02 -0.39989570415E+02 -0.52519586490E+03  0.53334538910E+03  0.82583476214E+02 0.  0.
          5    1    3    3  501    0  0.26538651608E+02 -0.20618790696E+02 -0.19257381830E+02  0.39017576987E+02  0.47000000000E+01 0. -1.
        -13    1    4    4    0    0  0.13017807101E+02  0.66647227450E+02 -0.27059789126E+03  0.27898841371E+03  0.00000000000E+00 0.  1.
         14    1    4    4    0    0 -0.48152925944E+02  0.29118432119E+01 -0.24917067907E+03  0.25379757764E+03  0.00000000000E+00 0. -1.
         -5    1    5    5    0  502  0.22998247494E+02 -0.89507095503E+01 -0.47197774789E+01  0.25561707469E+02  0.47000000000E+01 0.  1.
         13    1    6    6    0    0 -0.21799693754E+02  0.17647669844E+00 -0.41899841866E+03  0.41956517090E+03  0.00000000000E+00 0. -1.
        -14    1    6    6    0    0  0.73979134949E+01 -0.40166047113E+02 -0.10619744625E+03  0.11378021820E+03  0.00000000000E+00 0.  1.
</event>
<event>
12    1  0.8196217E-002  0.2319428E+03  0.7818608E-02  0.1125554E+00
         21   -1    0    0  501  502  0.00000000000E+00  0.00000000000E+00  0.38475595942E+03  0.38475595942E+03  0.00000000000E+00 0. -1.
         21   -1    0    0  502  503 -0.00000000000E+00 -0.00000000000E+00 -0.24968372886E+03  0.24968372886E+03  0.00000000000E+00 0. -1.
         -6    2    1    2    0  503 -0.44634576748E+02 -0.14347850279E+03 -0.14365782853E+03  0.27282782463E+03  0.17668934316E+03 0.  0.
        -24    2    3    3    0    0  0.15947659389E+02 -0.14617583689E+03 -0.77933983776E+02  0.18327785692E+03  0.76781272968E+02 0.  0.
          6    2    1    2  501    0  0.44634576748E+02  0.14347850279E+03  0.27873005909E+03  0.36161186365E+03  0.17462636654E+03 0.  0.
         24    2    5    5    0    0  0.47384536930E+01  0.30920173697E+02  0.38090433516E+02  0.92928783651E+02  0.78780502795E+02 0.  0.
          5    1    5    5  501    0  0.39896123055E+02  0.11255832910E+03  0.24063962557E+03  0.26868308000E+03  0.47000000000E+01 0. -1.
        -11    1    6    6    0    0 -0.36482102950E+01  0.44769951605E+02 -0.65955153064E+01  0.45399987084E+02  0.00000000000E+00 0.  1.
         12    1    6    6    0    0  0.83866639880E+01 -0.13849777908E+02  0.44685948822E+02  0.47528796567E+02  0.00000000000E+00 0. -1.
         -5    1    3    3    0  503 -0.60582236137E+02  0.26973341003E+01 -0.65723844754E+02  0.89549967704E+02  0.47000000000E+01 0.  1.
         13    1    4    4    0    0  0.18393714770E+02 -0.56474476499E+02 -0.72015168819E+02  0.93348164304E+02  0.00000000000E+00 0. -1.
        -14    1    4    4    0    0 -0.24460553810E+01 -0.89701360395E+02 -0.59188149568E+01  0.89929692617E+02  0.00000000000E+00 0.  1.
</event>
<event>
12    1  0.8196217E-002  0.2065925E+03  0.7818608E-02  0.1144343E+00
         21   -1    0    0  503  502  0.00000000000E+00  0.00000000000E+00  0.57106797608E+03  0.57106797608E+03  0.00000000000E+00 0. -1.
         21   -1    0    0  501  503 -0.00000000000E+00 -0.00000000000E+00 -0.15792377709E+03  0.15792377709E+03  0.00000000000E+00 0. -1.
          6    2    1    2  501    0 -0.10658769651E+03  0.38181938194E+02 -0.58169335446E+02  0.21438809936E+03  0.17251025509E+03 0.  0.
         24    2    3    3    0    0 -0.27807038010E+02 -0.30669642471E+02  0.71937660068E+01  0.90932207055E+02  0.80641538169E+02 0.  0.
         -6    2    1    2    0  502  0.10658769651E+03 -0.38181938194E+02  0.47131353443E+03  0.51460365380E+03  0.17280531045E+03 0.  0.
        -24    2    5    5    0    0  0.32842592256E+02 -0.63834064540E+02  0.37753036672E+03  0.39248181082E+03  0.79745660494E+02 0.  0.
          5    1    3    3  501    0 -0.78780658501E+02  0.68851580665E+02 -0.65363101453E+02  0.12345589231E+03  0.47000000000E+01 0. -1.
        -11    1    4    4    0    0 -0.21782022336E+02 -0.28585915190E+02  0.42154443639E+02  0.55395019297E+02  0.00000000000E+00 0.  1.
         12    1    4    4    0    0 -0.60250156737E+01 -0.20837272806E+01 -0.34960677633E+02  0.35537187758E+02  0.00000000000E+00 0. -1.
         -5    1    5    5    0  502  0.73745104255E+02  0.25652126347E+02  0.93783167708E+02  0.12212184298E+03  0.47000000000E+01 0.  1.
         11    1    6    6    0    0  0.55337554927E+02 -0.60369639183E+02  0.25411676830E+03  0.26698702263E+03  0.00000000000E+00 0. -1.
        -12    1    6    6    0    0 -0.22494962671E+02 -0.34644253573E+01  0.12341359842E+03  0.12549478820E+03  0.00000000000E+00 0.  1.
</event>
<event>
12    1  0.8196217E-002  0.1871224E+03  0.7818608E-02  0.1161405E+00
         21   -1    0    0  503  502  0.00000000000E+00  0.00000000000E+00  0.35662857702E+03  0.35662857702E+03  0.00000000000E+00 0. -1.
         21   -1    0    0  501  503 -0.00000000000E+00 -0.00000000000E+00 -0.14883394926E+03  0.14883394926E+03  0.00000000000E+00 0. -1.
          6    2    1    2  501    0  0.61986185984E+01  0.70231199071E+02 -0.44854464343E+02  0.19106413434E+03  0.17182181545E+03 0.  0.
         24    2    3    3    0    0  0.47442081794E+02  0.37812178868E+02  0.25824071677E+02  0.10291901773E+03  0.79024866578E+02 0.  0.
         -6    2    1    2    0  502 -0.61986185984E+01 -0.70231199071E+02  0.25264909211E+03  0.31439839194E+03  0.17333188084E+03 0.  0.
        -24    2    5    5    0    0  0.27938723131E+02  0.19678129060E+02  0.15357466285E+03  0.17624312451E+03  0.79427078851E+02 0.  0.
          5    1    3    3  501    0 -0.41243463196E+02  0.32419020203E+02 -0.70678536020E+02  0.88145116604E+02  0.47000000000E+01 0. -1.
        -11    1    4    4    0    0  0.50280033172E+02 -0.75837312836E+01  0.48175168847E+00  0.50851025562E+02  0.00000000000E+00 0.  1.
         12    1    4    4    0    0 -0.28379513781E+01  0.45395910151E+02  0.25342319988E+02  0.52067992172E+02  0.00000000000E+00 0. -1.
         -5    1    5    5    0  502 -0.34137341730E+02 -0.89909328130E+02  0.99074429262E+02  0.13815526743E+03  0.47000000000E+01 0.  1.
         11    1    6    6    0    0  0.11663445290E+02 -0.28545079776E+02  0.31972486895E+02  0.44419561610E+02  0.00000000000E+00 0. -1.
        -12    1    6    6    0    0  0.16275277841E+02  0.48223208835E+02  0.12160217595E+03  0.13182356290E+03  0.00000000000E+00 0.  1.
</event>
<event>
12    1  0.8196217E-002  0.2352185E+03  0.7818608E-02  0.1123258E+00
         21   -1    0    0  503  502  0.00000000000E+00  0.00000000000E+00  0.32045467127E+03  0.32045467127E+03  0.00000000000E+00 0. -1.
         21   -1    0    0  501  503 -0.00000000000E+00 -0.00000000000E+00 -0.50580261801E+03  0.50580261801E+03  0.00000000000E+00 0. -1.
          6    2    1    2  501    0 -0.49942708589E+02 -0.15242924797E+03 -0.42837634080E+03  0.48804061032E+03  0.17014228807E+03 0.  0.
         24    2    3    3    0    0 -0.69956391257E+02 -0.56450982359E+02 -0.31864266218E+03  0.34081308169E+03  0.80869032415E+02 0.  0.
         -6    2    1    2    0  502  0.49942708589E+02  0.15242924797E+03  0.24302839405E+03  0.33821667896E+03  0.17204293602E+03 0.  0.
        -24    2    5    5    0    0  0.52587165169E+01  0.51276426430E+01  0.68790198062E+02  0.10567536861E+03  0.79882697515E+02 0.  0.
          5    1    3    3  501    0  0.20013682668E+02 -0.95978265610E+02 -0.10973367862E+03  0.14722752863E+03  0.47000000000E+01 0. -1.
        -13    1    4    4    0    0 -0.19433833113E+02 -0.21670115413E+02 -0.23656241861E+03  0.23834648239E+03  0.00000000000E+00 0.  1.
         14    1    4    4    0    0 -0.50522558144E+02 -0.34780866946E+02 -0.82080243573E+02  0.10246659930E+03  0.00000000000E+00 0. -1.
         -5    1    5    5    0  502  0.44683992072E+02  0.14730160533E+03  0.17423819599E+03  0.23254131035E+03  0.47000000000E+01 0.  1.
         11    1    6    6    0    0  0.22126535362E+02  0.21340093211E+02  0.75348219808E+02  0.81377744953E+02  0.00000000000E+00 0. -1.
        -12    1    6    6    0    0 -0.16867818845E+02 -0.16212450568E+02 -0.65580217461E+01  0.24297623654E+02  0.00000000000E+00 0.  1.
</event>
<event>
12    1  0.8196217E-002  0.1755864E+03  0.7818608E-02  0.1172171E+00
         21   -1    0    0  503  502  0.00000000000E+00  0.00000000000E+00  0.25517660169E+03  0.25517660169E+03  0.00000000000E+00 0.  1.
         21   -1    0    0  501  503 -0.00000000000E+00 -0.00000000000E+00 -0.33463940216E+03  0.33463940216E+03  0.00000000000E+00 0.  1.
          6    2    1    2  501    0  0.32063609928E+02 -0.23165267883E+02 -0.27551018689E+03  0.32670543459E+03  0.17107271318E+03 0.  0.
         24    2    3    3    0    0  0.78949723958E+02 -0.38414808659E+02 -0.22397655927E+03  0.25523053719E+03  0.85254745179E+02 0.  0.
         -6    2    1    2    0  502 -0.32063609928E+02  0.23165267883E+02  0.19604738643E+03  0.26311056926E+03  0.17096166007E+03 0.  0.
        -24    2    5    5    0    0 -0.15031858756E+02 -0.24725738965E+02  0.19417880747E+03  0.21203013590E+03  0.80087766314E+02 0.  0.
          5    1    3    3  501    0 -0.46886114030E+02  0.15249540776E+02 -0.51533627620E+02  0.71474897401E+02  0.47000000000E+01 0. -1.
        -11    1    4    4    0    0  0.54964597589E+02 -0.19475118777E+02 -0.21587695560E+03  0.22361405859E+03  0.00000000000E+00 0.  1.
         12    1    4    4    0    0  0.23985126369E+02 -0.18939689882E+02 -0.80996036726E+01  0.31616478605E+02  0.00000000000E+00 0. -1.
         -5    1    5    5    0  502 -0.17031751172E+02  0.47891006848E+02  0.18685789571E+01  0.51080433360E+02  0.47000000000E+01 0.  1.
         11    1    6    6    0    0  0.34452063328E+01 -0.45484244532E+02  0.62060988552E+02  0.77021115594E+02  0.00000000000E+00 0. -1.
        -12    1    6    6    0    0 -0.18477065089E+02  0.20758505566E+02  0.13211781892E+03  0.13500902030E+03  0.00000000000E+00 0.  1.
</event>
<event>
12    1  0.8196217E-002  0.1718486E+03  0.7818608E-02  0.1176128E+00
         21   -1    0    0  501  502  0.00000000000E+00  0.00000000000E+00  0.11912085338E+03  0.11912085338E+03  0.00000000000E+00 0. -1.
         21   -1    0    0  502  503 -0.00000000000E+00 -0.00000000000E+00 -0.46250661264E+03  0.46250661264E+03  0.00000000000E+00 0. -1.
         -6    2    1    2    0  503 -0.11659659433E+02  0.60837511306E+01 -0.37048492678E+03  0.40840058575E+03  0.17134467538E+03 0.  0.
        -24    2    3    3    0    0 -0.22460113456E+02  0.41668520974E+02 -0.35624618208E+03  0.36830373422E+03  0.80595136686E+02 0.  0.
          6    2    1    2  501    0  0.11659659433E+02 -0.60837511306E+01  0.27099167522E+02  0.17322688027E+03  0.17058788785E+03 0.  0.
         24    2    5    5    0    0  0.60892705790E-01  0.60636526320E+02 -0.40676265669E+01  0.98530254733E+02  0.77555615399E+02 0.  0.
          5    1    5    5  501    0  0.11598766727E+02 -0.66720277450E+02  0.31166794089E+02  0.74696625535E+02  0.47000000000E+01 0. -1.
        -13    1    6    6    0    0 -0.15353719871E+00  0.10339811756E+02 -0.36995310355E+02  0.38413386587E+02  0.00000000000E+00 0.  1.
         14    1    6    6    0    0  0.21442990450E+00  0.50296714563E+02  0.32927683788E+02  0.60116868146E+02  0.00000000000E+00 0. -1.
         -5    1    3    3    0  503  0.10800454024E+02 -0.35584769843E+02 -0.14238744706E+02  0.40096851531E+02  0.47000000000E+01 0.  1.
         13    1    4    4    0    0 -0.18964105866E+02  0.20909858353E+02 -0.29319574746E+02  0.40700085392E+02  0.00000000000E+00 0. -1.
        -14    1    4    4    0    0 -0.34960075904E+01  0.20758662621E+02 -0.32692660733E+03  0.32760364882E+03  0.00000000000E+00 0.  1.
</event>
<event>
12    1  0.8196217E-002  0.3651670E+03  0.7818608E-02  0.1056636E+00
         21   -1    0    0  501  502  0.00000000000E+00  0.00000000000E+00  0.23959438622E+03  0.23959438622E+03  0.00000000000E+00 0. -1.
         21   -1    0    0  502  503 -0.00000000000E+00 -0.00000000000E+00 -0.61913739866E+03  0.61913739866E+03  0.00000000000E+00 0.  1.
         -6    2    1    2    0  503 -0.23456630433E+03  0.21988639179E+03 -0.32782053973E+03  0.49072722564E+03  0.17313441974E+03 0.  0.
        -24    2    3    3    0    0 -0.99122321703E+02  0.18641821300E+03 -0.20012410073E+03  0.30153509590E+03  0.79352212141E+02 0.  0.
          6    2    1    2  501    0  0.23456630433E+03 -0.21988639179E+03 -0.51722472701E+02  0.36800455924E+03  0.17140818247E+03 0.  0.
         24    2    5    5    0    0  0.25587852784E+03 -0.19883998337E+03 -0.44077299205E+02  0.33673635084E+03  0.80233419963E+02 0.  0.
          5    1    5    5  501    0 -0.21312223510E+02 -0.21046408420E+02 -0.76451734956E+01  0.31268208393E+02  0.47000000000E+01 0. -1.
        -11    1    6    6    0    0 -0.38945717980E+01 -0.65653565421E+01  0.59748388696E+01  0.96938277028E+01  0.00000000000E+00 0.  1.
         12    1    6    6    0    0  0.25977309964E+03 -0.19227462682E+03 -0.50052138075E+02  0.32704252314E+03  0.00000000000E+00 0. -1.
         -5    1    3    3    0  503 -0.13544398263E+03  0.33468178788E+02 -0.12769643900E+03  0.18919212974E+03  0.47000000000E+01 0.  1.
         11    1    4    4    0    0 -0.21670726163E+02  0.12011341390E+03 -0.91380192759E+02  0.15247029940E+03  0.00000000000E+00 0. -1.
        -12    1    4    4    0    0 -0.77451595541E+02  0.66304799097E+02 -0.10874390797E+03  0.14906479650E+03  0.00000000000E+00 0.  1.
</event>
<event>
12    1  0.8196217E-002  0.2131262E+03  0.7818608E-02  0.1139154E+00
         21   -1    0    0  501  502  0.00000000000E+00  0.00000000000E+00  0.31916454863E+03  0.31916454863E+03  0.00000000000E+00 0. -1.
         21   -1    0    0  502  503 -0.00000000000E+00 -0.00000000000E+00 -0.24731400636E+03  0.24731400636E+03  0.00000000000E+00 0.  1.
         -6    2    1    2    0  503 -0.11358044140E+03  0.57833850023E+02 -0.14873710873E+03  0.25989515107E+03  0.17081420069E+03 0.  0.
        -24    2    3    3    0    0 -0.13225643744E+03  0.80281880213E+02 -0.14990118781E+03  0.23029528675E+03  0.81416260393E+02 0.  0.
          6    2    1    2  501    0  0.11358044140E+03 -0.57833850023E+02  0.22058765100E+03  0.30658340392E+03  0.17055556547E+03 0.  0.
         24    2    5    5    0    0  0.28726178779E+02 -0.74909435523E+02  0.17501935131E+03  0.20865291102E+03  0.80421682810E+02 0.  0.
          5    1    5    5  501    0  0.84854262616E+02  0.17075585500E+02  0.45568299686E+02  0.97930492905E+02  0.47000000000E+01 0. -1.
        -11    1    6    6    0    0  0.35021670269E+01 -0.76724637434E+02  0.82404462304E+02  0.11264737268E+03  0.00000000000E+00 0.  1.
         12    1    6    6    0    0  0.25224011753E+02  0.18152019107E+01  0.92614889006E+02  0.96005538343E+02  0.00000000000E+00 0. -1.
         -5    1    3    3    0  503  0.18675996044E+02 -0.22448030191E+02  0.11640790779E+01  0.29599864320E+02  0.47000000000E+01 0.  1.
         11    1    4    4    0    0 -0.48856285231E+02  0.76091465685E+02 -0.89553962760E+02  0.12726649207E+03  0.00000000000E+00 0. -1.
        -12    1    4    4    0    0 -0.83400152209E+02  0.41904145285E+01 -0.60347225049E+02  0.10302879468E+03  0.00000000000E+00 0.  1.
</event>
<event>
12    1  0.8196217E-002  0.3068516E+03  0.7818608E-02  0.1082025E+00
         21   -1    0    0  501  502  0.00000000000E+00  0.00000000000E+00  0.29308729301E+03  0.29308729301E+03  0.00000000000E+00 0. -1.
         21   -1    0    0  502  503 -0.00000000000E+00 -0.00000000000E+00 -0.32088954702E+03  0.32088954702E+03  0.00000000000E+00 0.  1.
         -6    2    1    2    0  503  0.22553789907E+03 -0.11412060919E+03  0.33205385935E+01  0.30555091122E+03  0.17163762994E+03 0.  0.
        -24    2    3    3    0    0  0.38556388189E+02 -0.73443362327E+02 -0.31186728451E+01  0.11402995344E+03  0.78183000845E+02 0.  0.
          6    2    1    2  501    0 -0.22553789907E+03  0.11412060919E+03 -0.31122792606E+02  0.30842592881E+03  0.17397433140E+03 0.  0.
         24    2    5    5    0    0 -0.82074118046E+02  0.85086111380E+00 -0.49325045747E+02  0.12467254976E+03  0.79833575060E+02 0.  0.
          5    1    5    5  501    0 -0.14346378103E+03  0.11326974808E+03  0.18202253141E+02  0.18375337906E+03  0.47000000000E+01 0. -1.
        -11    1    6    6    0    0 -0.82399854484E+02  0.23185291196E+02 -0.54846637898E+02  0.10166340264E+03  0.00000000000E+00 0.  1.
         12    1    6    6    0    0  0.32573643823E+00 -0.22334430082E+02  0.55215921501E+01  0.23009147120E+02  0.00000000000E+00 0. -1.
         -5    1    3    3    0  503  0.18698151088E+03 -0.40677246862E+02  0.64392114387E+01  0.19152095778E+03  0.47000000000E+01 0.  1.
         11    1    4    4    0    0  0.44894917084E+02 -0.54356194203E+02 -0.33135560227E+02  0.77898105111E+02  0.00000000000E+00 0. -1.
        -12    1    4    4    0    0 -0.63385288955E+01 -0.19087168124E+02  0.30016887382E+02  0.36131848329E+02  0.00000000000E+00 0.  1.
</event>
<event>
12    1  0.8196217E-002  0.1862542E+03  0.7818608E-02  0.1163588E+00
         21   -1    0    0  501  502  0.00000000000E+00  0.00000000000E+00  0.43923836685E+03  0.43923836685E+03  0.00000000000E+00 0. -1.
         21   -1    0    0  502  503 -0.00000000000E+00 -0.00000000000E+00 -0.16178537039E+03  0.16178537039E+03  0.00000000000E+00 0. -1.
         -6    2    1    2    0  503 -0.24839845760E+02 -0.66709480638E+02 -0.78856347105E+02  0.20225963190E+03  0.17211467826E+03 0.  0.
        -24    2    3    3    0    0 -0.23031777171E+02  0.35009133974E+01 -0.99446420190E+02  0.12891926339E+03  0.78662995312E+02 0.  0.
          6    2    1    2  501    0  0.24839845760E+02  0.66709480638E+02  0.35630934356E+03  0.39876410534E+03  0.16428417651E+03 0.  0.
         24    2    5    5    0    0  0.31122327386E+02 -0.23714526316E+01  0.28881706456E+03  0.30186754894E+03  0.82063982797E+02 0.  0.
          5    1    5    5  501    0 -0.62824816262E+01  0.69080933270E+02  0.67492279006E+02  0.96896556400E+02  0.47000000000E+01 0. -1.
        -13    1    6    6    0    0 -0.88173849287E+01 -0.16031038158E+02  0.12067116285E+02  0.21917019798E+02  0.00000000000E+00 0.  1.
         14    1    6    6    0    0  0.39939712315E+02  0.13659585526E+02  0.27674994827E+03  0.27995052914E+03  0.00000000000E+00 0. -1.
         -5    1    3    3    0  503 -0.18080685885E+01 -0.70210394036E+02  0.20590073085E+02  0.73340368504E+02  0.47000000000E+01 0.  1.
         13    1    4    4    0    0  0.81385728465E+01  0.24164547004E+02 -0.85144068508E+02  0.88880110835E+02  0.00000000000E+00 0. -1.
        -14    1    4    4    0    0 -0.31170350018E+02 -0.20663633607E+02 -0.14302351682E+02  0.40039152560E+02  0.00000000000E+00 0.  1.
</event>
<event>
12    1  0.8196217E-002  0.1884348E+03  0.7818608E-02  0.1160559E+00
         21   -1    0    0  503  502  0.00000000000E+00  0.00000000000E+00  0.38405927752E+03  0.38405927752E+03  0.00000000000E+00 0. -1.
         21   -1    0    0  501  503 -0.00000000000E+00 -0.00000000000E+00 -0.14802493557E+03  0.14802493557E+03  0.00000000000E+00 0. -1.
          6    2    1    2  501    0  0.40459948074E+02  0.57694396785E+02 -0.46516955600E+02  0.19409152095E+03  0.17476281220E+03 0.  0.
         24    2    3    3    0    0 -0.25837489137E+02  0.84838568447E+02 -0.36476481239E+02  0.12159974651E+03  0.74771693347E+02 0.  0.
         -6    2    1    2    0  502 -0.40459948074E+02 -0.57694396785E+02  0.28255129756E+03  0.33799269214E+03  0.17157556170E+03 0.  0.
        -24    2    5    5    0    0 -0.77415550781E+02 -0.45205832765E+02  0.27516310767E+03  0.29801324551E+03  0.71136656257E+02 0.  0.
          5    1    3    3  501    0  0.66297437211E+02 -0.27144171662E+02 -0.10040474362E+02  0.72491774439E+02  0.47000000000E+01 0. -1.
        -11    1    4    4    0    0 -0.43050052356E+02  0.18521126225E+02 -0.21019718623E+02  0.51363096630E+02  0.00000000000E+00 0.  1.
         12    1    4    4    0    0  0.17212563218E+02  0.66317442222E+02 -0.15456762616E+02  0.70236649877E+02  0.00000000000E+00 0. -1.
         -5    1    5    5    0  502  0.36955602707E+02 -0.12488564020E+02  0.73881898917E+01  0.39979446627E+02  0.47000000000E+01 0.  1.
         13    1    6    6    0    0 -0.18043420858E+02 -0.49848379217E+02  0.15667362181E+03  0.16539966662E+03  0.00000000000E+00 0. -1.
        -14    1    6    6    0    0 -0.59372129923E+02  0.46425464523E+01  0.11848948586E+03  0.13261357890E+03  0.00000000000E+00 0.  1.
</event>
<event>
12    1  0.8196217E-002  0.4389339E+03  0.7818608E-02  0.1031108E+00
         21   -1    0    0  501  502  0.00000000000E+00  0.00000000000E+00  0.30278781382E+03  0.30278781382E+03  0.00000000000E+00 0.  1.
         21   -1    0    0  502  503 -0.00000000000E+00 -0.00000000000E+00 -0.64218691846E+03  0.64218691846E+03  0.00000000000E+00 0. -1.
         -6    2    1    2    0  503  0.33196278441E+03  0.22971595555E+03 -0.12213867231E+03  0.45561042671E+03  0.17232032726E+03 0.  0.
        -24    2    3    3    0    0  0.16377392283E+03  0.19380376589E+03 -0.87415385286E+02  0.28009696515E+03  0.80193907696E+02 0.  0.
          6    2    1    2  501    0 -0.33196278441E+03 -0.22971595555E+03 -0.21726043233E+03  0.48936430557E+03  0.17119175694E+03 0.  0.
         24    2    5    5    0    0 -0.28279679009E+03 -0.14364174979E+03 -0.11481019209E+03  0.34673119013E+03  0.80213223573E+02 0.  0.
          5    1    5    5  501    0 -0.49165994321E+02 -0.86074205760E+02 -0.10245024024E+03  0.14263311544E+03  0.47000000000E+01 0. -1.
        -11    1    6    6    0    0 -0.73541438291E+02 -0.16096988899E+01 -0.35535363191E+02  0.81692694370E+02  0.00000000000E+00 0.  1.
         12    1    6    6    0    0 -0.20925535180E+03 -0.14203205090E+03 -0.79274828897E+02  0.26503849576E+03  0.00000000000E+00 0. -1.
         -5    1    3    3    0  503  0.16818886158E+03  0.35912189657E+02 -0.34723287025E+02  0.17551346156E+03  0.47000000000E+01 0.  1.
         13    1    4    4    0    0  0.11654464723E+03  0.83599924651E+02 -0.67647221274E+02  0.15858041729E+03  0.00000000000E+00 0. -1.
        -14    1    4    4    0    0  0.47229275594E+02  0.11020384124E+03 -0.19768164012E+02  0.12151654787E+03  0.00000000000E+00 0.  1.
</event>
<event>
12    1  0.8196217E-002  0.2009596E+03  0.7818608E-02  0.1148985E+00
         21   -1    0    0  501  502  0.00000000000E+00  0.00000000000E+00  0.14556463712E+03  0.14556463712E+03  0.00000000000E+00 0.  1.
         21   -1    0    0  502  503 -0.00000000000E+00 -0.00000000000E+00 -0.30782881082E+03  0.30782881082E+03  0.00000000000E+00 0.  1.
         -6    2    1    2    0  503  0.98520442342E+02  0.31922785757E+02 -0.15282301837E+03  0.25246710068E+03  0.17221910514E+03 0.  0.
        -24    2    3    3    0    0  0.23728106238E+02 -0.38957100775E+02 -0.45234902169E+02  0.10341964313E+03  0.81047809874E+02 0.  0.
          6    2    1    2  501    0 -0.98520442342E+02 -0.31922785757E+02 -0.94411553331E+01  0.20092634726E+03  0.17192126046E+03 0.  0.
         24    2    5    5    0    0 -0.59286555566E+02  0.39662266004E+02 -0.39177750392E+02  0.11392018315E+03  0.79717758299E+02 0.  0.
          5    1    5    5  501    0 -0.39233886776E+02 -0.71585051761E+02  0.29736595059E+02  0.87006164108E+02  0.47000000000E+01 0. -1.
        -13    1    6    6    0    0 -0.51833133261E+02 -0.10079218461E+02 -0.35211101380E+02  0.63467204199E+02  0.00000000000E+00 0.  1.
         14    1    6    6    0    0 -0.74534223051E+01  0.49741484465E+02 -0.39666490121E+01  0.50452978953E+02  0.00000000000E+00 0. -1.
         -5    1    3    3    0  503  0.74792336104E+02  0.70879886532E+02 -0.10758811620E+03  0.14904745755E+03  0.47000000000E+01 0.  1.
         13    1    4    4    0    0 -0.27544136104E+02 -0.14463417967E+01 -0.23622734009E+02  0.36315353507E+02  0.00000000000E+00 0. -1.
        -14    1    4    4    0    0  0.51272242341E+02 -0.37510758978E+02 -0.21612168160E+02  0.67104289627E+02  0.00000000000E+00 0.  1.
</event>
<event>
12    1  0.8196217E-002  0.2534988E+03  0.7818608E-02  0.1111222E+00
         21   -1    0    0  501  502  0.00000000000E+00  0.00000000000E+00  0.80071553573E+02  0.80071553573E+02  0.00000000000E+00 0. -1.
         21   -1    0    0  502  503 -0.00000000000E+00 -0.00000000000E+00 -0.89625819785E+03  0.89625819785E+03  0.00000000000E+00 0.  1.
         -6    2    1    2    0  503 -0.18287056968E+03  0.31591811543E+02 -0.56828551215E+03  0.62226205892E+03  0.17269035537E+03 0.  0.
        -24    2    3    3    0    0 -0.47498488118E+02  0.44468411167E+02 -0.14541564307E+03  0.17804091640E+03  0.79494104800E+02 0.  0.
          6    2    1    2  501    0  0.18287056968E+03 -0.31591811543E+02 -0.24790113214E+03  0.35406769251E+03  0.17166616368E+03 0.  0.
         24    2    5    5    0    0  0.91417352645E+02  0.45937592510E+02 -0.15335913755E+03  0.20131044018E+03  0.80867011107E+02 0.  0.
          5    1    5    5  501    0  0.91453217039E+02 -0.77529404052E+02 -0.94541994590E+02  0.15275725233E+03  0.47000000000E+01 0. -1.
        -13    1    6    6    0    0  0.61998003765E+02 -0.11786175818E+02 -0.95376480781E+02  0.11436493998E+03  0.00000000000E+00 0.  1.
         14    1    6    6    0    0  0.29419348880E+02  0.57723768328E+02 -0.57982656765E+02  0.86945500194E+02  0.00000000000E+00 0. -1.
         -5    1    3    3    0  503 -0.13537208157E+03 -0.12876599624E+02 -0.42286986908E+03  0.44422114252E+03  0.47000000000E+01 0.  1.
         13    1    4    4    0    0  0.20584446704E+02  0.20852822964E+02 -0.29699947783E+02  0.41721056674E+02  0.00000000000E+00 0. -1.
        -14    1    4    4    0    0 -0.68082934822E+02  0.23615588203E+02 -0.11571569528E+03  0.13631985972E+03  0.00000000000E+00 0.  1.
</event>
<event>
12    1  0.8196217E-002  0.1944713E+03  0.7818608E-02  0.1154496E+00
         21   -1    0    0  503  502  0.00000000000E+00  0.00000000000E+00  0.92434977246E+03  0.92434977246E+03  0.00000000000E+00 0.  1.
         21   -1    0    0  501  503 -0.00000000000E+00 -0.00000000000E+00 -0.40962273486E+02  0.40962273486E+02  0.00000000000E+00 0.  1.
          6    2    1    2  501    0  0.90463711998E+02  0.37789600231E+01  0.42405671033E+03  0.46650960151E+03  0.17207309782E+03 0.  0.
         24    2    3    3    0    0  0.10278199788E+02  0.10945290697E+02  0.85927374552E+02  0.11889687105E+03  0.80793016207E+02 0.  0.
         -6    2    1    2    0  502 -0.90463711998E+02 -0.37789600231E+01  0.45933078864E+03  0.49880244444E+03  0.17210793548E+03 0.  0.
        -24    2    5    5    0    0 -0.44692607990E+02  0.54872457207E+02  0.16349947529E+03  0.19372337491E+03  0.76080561232E+02 0.  0.
          5    1    3    3  501    0  0.80185512210E+02 -0.71663306741E+01  0.33812933578E+03  0.34761273046E+03  0.47000000000E+01 0. -1.
        -13    1    4    4    0    0 -0.64403945542E+00  0.13439726752E+02  0.10000454203E+03  0.10090564637E+03  0.00000000000E+00 0.  1.
         14    1    4    4    0    0  0.10922239243E+02 -0.24944360549E+01 -0.14077167477E+02  0.17991224680E+02  0.00000000000E+00 0. -1.
         -5    1    5    5    0  502 -0.45771104008E+02 -0.58651417230E+02  0.29583131335E+03  0.30507906953E+03  0.47000000000E+01 0.  1.
         11    1    6    6    0    0  0.16564264935E+02 -0.48197020392E+01  0.39325270847E+02  0.42942768049E+02  0.00000000000E+00 0. -1.
        -12    1    6    6    0    0 -0.61256872925E+02  0.59692159246E+02  0.12417420444E+03  0.15078060686E+03  0.00000000000E+00 0.  1.
</event>
<event>
12    1  0.8196217E-002  0.1919638E+03  0.7818608E-02  0.1156774E+00
         21   -1    0    0  501  502  0.00000000000E+00  0.00000000000E+00  0.15769036565E+03  0.15769036565E+03  0.00000000000E+00 0. -1.
         21   -1    0    0  502  503 -0.00000000000E+00 -0.00000000000E+00 -0.41517220632E+03  0.41517220632E+03  0.00000000000E+00 0. -1.
         -6    2    1    2    0  503  0.81660045260E+02 -0.21254634881E+02 -0.31838475894E+03  0.37177811324E+03  0.17242386222E+03 0.  0.
        -24    2    3    3    0    0  0.78377234362E+02 -0.53923743301E+02 -0.13562756165E+03  0.18603546694E+03  0.84638044180E+02 0.  0.
          6    2    1    2  501    0 -0.81660045260E+02  0.21254634881E+02  0.60902918271E+02  0.20108445873E+03  0.17206298729E+03 0.  0.
         24    2    5    5    0    0 -0.12283468651E+03  0.22036801219E+02  0.59317332244E+02  0.15960474141E+03  0.79882080344E+02 0.  0.
          5    1    5    5  501    0  0.41174641245E+02 -0.78216633799E+00  0.15855860272E+01  0.41479717319E+02  0.47000000000E+01 0. -1.
        -11    1    6    6    0    0 -0.39016062254E+02 -0.30195689999E+02  0.22170414567E+02  0.54088446921E+02  0.00000000000E+00 0.  1.
         12    1    6    6    0    0 -0.83818624252E+02  0.52232491218E+02  0.37146917677E+02  0.10551629449E+03  0.00000000000E+00 0. -1.
         -5    1    3    3    0  503  0.32828108982E+01  0.32669108420E+02 -0.18275719729E+03  0.18574264630E+03  0.47000000000E+01 0.  1.
         13    1    4    4    0    0  0.11496623403E+02 -0.46117496603E+02 -0.97959252334E+02  0.10888071896E+03  0.00000000000E+00 0. -1.
        -14    1    4    4    0    0  0.66880610959E+02 -0.78062466983E+01 -0.37668309316E+02  0.77154747984E+02  0.00000000000E+00 0.  1.
</event>
<event>
12    1  0.8196217E-002  0.2333436E+03  0.7818608E-02  0.1124967E+00
         21   -1    0    0  501  502  0.00000000000E+00  0.00000000000E+00  0.25216036150E+03  0.25216036150E+03  0.00000000000E+00 0.  1.
         21   -1    0    0  502  503 -0.00000000000E+00 -0.00000000000E+00 -0.26083420654E+03  0.26083420654E+03  0.00000000000E+00 0.  1.
         -6    2    1    2    0  503 -0.13543975170E+03  0.72226624224E+02 -0.11477907302E+03  0.25665975510E+03  0.17070261480E+03 0.  0.
        -24    2    3    3    0    0 -0.31334483515E+02  0.50344469395E+02 -0.42579607458E+02  0.12800677849E+03  0.10514892730E+03 0.  0.
          6    2    1    2  501    0  0.13543975170E+03 -0.72226624224E+02  0.10610522798E+03  0.25633481294E+03  0.17575154432E+03 0.  0.
         24    2    5    5    0    0  0.11514997327E+03 -0.49770246092E+02  0.14389252400E+03  0.20769394773E+03  0.81823735675E+02 0.  0.
          5    1    5    5  501    0  0.20289778429E+02 -0.22456378132E+02 -0.37787296023E+02  0.48640865208E+02  0.47000000000E+01 0. -1.
        -11    1    6    6    0    0  0.12584616229E+03 -0.50369143045E+02  0.11816716835E+03  0.17982710255E+03  0.00000000000E+00 0.  1.
         12    1    6    6    0    0 -0.10696189021E+02  0.59889695271E+00  0.25725355644E+02  0.27866845178E+02  0.00000000000E+00 0. -1.
         -5    1    3    3    0  503 -0.10410526818E+03  0.21882154830E+02 -0.72199465563E+02  0.12865297661E+03  0.47000000000E+01 0.  1.
         11    1    4    4    0    0 -0.11047021348E+02 -0.69029137884E+01 -0.62689239273E+02  0.64028334510E+02  0.00000000000E+00 0. -1.
        -12    1    4    4    0    0 -0.20287462167E+02  0.57247383183E+02  0.20109631815E+02  0.63978443981E+02  0.00000000000E+00 0.  1.
</event>
<event>
12    1  0.8196217E-002  0.1993684E+03  0.7818608E-02  0.1150563E+00
         21   -1    0    0  503  502  0.00000000000E+00  0.00000000000E+00  0.77072248659E+02  0.77072248659E+02  0.00000000000E+00 0. -1.
         21   -1    0    0  501  503 -0.00000000000E+00 -0.00000000000E+00 -0.62406324568E+03  0.62406324568E+03  0.00000000000E+00 0. -1.
          6    2    1    2  501    0 -0.16377400649E+02  0.97516507602E+02 -0.42268565628E+03  0.46734454237E+03  0.17311865513E+03 0.  0.
         24    2    3    3    0    0 -0.52982866776E+02  0.11361440442E+03 -0.25013931295E+03  0.29016262165E+03  0.76871672669E+02 0.  0.
         -6    2    1    2    0  502  0.16377400649E+02 -0.97516507602E+02 -0.12430534075E+03  0.23379095197E+03  0.17154796116E+03 0.  0.
        -24    2    5    5    0    0 -0.19420336600E+02 -0.54112651355E+02  0.76668236167E+00  0.96566778831E+02  0.77583673937E+02 0.  0.
          5    1    3    3  501    0  0.36605466127E+02 -0.16097896823E+02 -0.17254634333E+03  0.17718192072E+03  0.47000000000E+01 0. -1.
        -13    1    4    4    0    0 -0.18975313646E+02  0.14340929676E+02 -0.61544879878E+01  0.24568323393E+02  0.00000000000E+00 0.  1.
         14    1    4    4    0    0 -0.34007553130E+02  0.99273474748E+02 -0.24398482496E+03  0.26559429826E+03  0.00000000000E+00 0. -1.
         -5    1    5    5    0  502  0.35797737249E+02 -0.43403856247E+02 -0.12507202311E+03  0.13722417314E+03  0.47000000000E+01 0.  1.
         11    1    6    6    0    0  0.30172262911E+02 -0.23517060508E+02  0.16295579161E+01  0.38289333281E+02  0.00000000000E+00 0. -1.
        -12    1    6    6    0    0 -0.49592599511E+02 -0.30595590847E+02 -0.86287555438E+00  0.58277445549E+02  0.00000000000E+00 0.  1.
</event>
<event>
12    1  0.8196217E-002  0.1879058E+03  0.7818608E-02  0.1160906E+00
         21   -1    0    0  503  502  0.00000000000E+00  0.00000000000E+00  0.98400558108E+02  0.98400558108E+02  0.00000000000E+00 0. -1.
         21   -1    0    0  501  503 -0.00000000000E+00 -0.00000000000E+00 -0.36180204769E+03  0.36180204769E+03  0.00000000000E+00 0. -1.
          6    2    1    2  501    0  0.63251867954E+02  0.35845902622E+02 -0.16554353859E+03  0.25042611417E+03  0.17327102458E+03 0.  0.
         24    2    3    3    0    0  0.17945903011E+02 -0.11190216002E+02 -0.12083599828E+02  0.83581666504E+02  0.79953769277E+02 0.  0.
         -6    2    1    2    0  502 -0.63251867954E+02 -0.35845902622E+02 -0.97857950991E+02  0.20977649162E+03  0.17071693042E+03 0.  0.
        -24    2    5    5    0    0 -0.62103099040E+02  0.37148127549E+02 -0.33941903186E+02  0.11263330206E+03  0.79356346003E+02 0.  0.
          5    1    3    3  501    0  0.45305964943E+02  0.47036118623E+02 -0.15345993876E+03  0.16684444767E+03  0.47000000000E+01 0. -1.
        -11    1    4    4    0    0  0.30685667671E+01 -0.18160317837E+02 -0.43992137793E+02  0.47691943067E+02  0.00000000000E+00 0.  1.
         12    1    4    4    0    0  0.14877336244E+02  0.69701018356E+01  0.31908537964E+02  0.35889723436E+02  0.00000000000E+00 0. -1.
         -5    1    5    5    0  502 -0.11487689140E+01 -0.72994030171E+02 -0.63916047805E+02  0.97143189559E+02  0.47000000000E+01 0.  1.
         13    1    6    6    0    0 -0.60145849388E+02 -0.93406952538E+01 -0.19051882081E+02  0.63778883631E+02  0.00000000000E+00 0. -1.
        -14    1    6    6    0    0 -0.19572496520E+01  0.46488822803E+02 -0.14890021106E+02  0.48854418432E+02  0.00000000000E+00 0.  1.
</event>
<event>
12    1  0.8196217E-002  0.1833833E+03  0.7818608E-02  0.1164675E+00
         21   -1    0    0  501  502  0.00000000000E+00  0.00000000000E+00  0.20476481044E+03  0.20476481044E+03  0.00000000000E+00 0. -1.
         21   -1    0    0  502  503 -0.00000000000E+00 -0.00000000000E+00 -0.16676060690E+03  0.16676060690E+03  0.00000000000E+00 0. -1.
         -6    2    1    2    0  503 -0.61138752925E+02 -0.37924627250E+01 -0.56444707814E+01  0.18301905980E+03  0.17237107158E+03 0.  0.
        -24    2    3    3    0    0 -0.84753410966E+02  0.47805021429E+02 -0.29331311624E+01  0.12601560545E+03  0.80017928075E+02 0.  0.
          6    2    1    2  501    0  0.61138752925E+02  0.37924627250E+01  0.43648674315E+02  0.18850635754E+03  0.17284996437E+03 0.  0.
         24    2    5    5    0    0  0.51528806348E+02 -0.60189394268E+02  0.49653010245E+02  0.12335905409E+03  0.80461504667E+02 0.  0.
          5    1    5    5  501    0  0.96099465768E+01  0.63981856993E+02 -0.60043359305E+01  0.65147303454E+02  0.47000000000E+01 0. -1.
        -13    1    6    6    0    0  0.46307621200E+02 -0.16696720107E+02 -0.91137809856E+01  0.50062333619E+02  0.00000000000E+00 0.  1.
         14    1    6    6    0    0  0.52211851480E+01 -0.43492674160E+02  0.58766791231E+02  0.73296720469E+02  0.00000000000E+00 0. -1.
         -5    1    3    3    0  503  0.23614658041E+02 -0.51597484154E+02 -0.27113396190E+01  0.57003454351E+02  0.47000000000E+01 0.  1.
         13    1    4    4    0    0 -0.24300473218E+02  0.31494399466E+02 -0.37349710116E+02  0.54565658084E+02  0.00000000000E+00 0. -1.
        -14    1    4    4    0    0 -0.60452937748E+02  0.16310621963E+02  0.34416578954E+02  0.71449947362E+02  0.00000000000E+00 0.  1.
</event>
<event>
12    1  0.8196217E-002  0.2210265E+03  0.7818608E-02  0.1133161E+00
         21   -1    0    0  503  502  0.00000000000E+00  0.00000000000E+00  0.41886362838E+02  0.41886362838E+02  0.00000000000E+00 0.  1.
         21   -1    0    0  501  503 -0.00000000000E+00 -0.00000000000E+00 -0.14281823630E+04  0.14281823630E+04  0.00000000000E+00 0.  1.
          6    2    1    2  501    0 -0.10437591496E+03  0.88380383254E+02 -0.10088636398E+04  0.10327916281E+04  0.17362971976E+03 0.  0.
         24    2    3    3    0    0 -0.12118506094E+03  0.11095552967E+03 -0.73386963800E+03  0.75632105886E+03  0.80373813813E+02 0.  0.
         -6    2    1    2    0  502  0.10437591496E+03 -0.88380383254E+02 -0.37743236034E+03  0.43727709772E+03  0.17335123245E+03 0.  0.
        -24    2    5    5    0    0  0.11464814380E+03 -0.66164622678E+02 -0.38017019023E+03  0.41220431535E+03  0.88662674711E+02 0.  0.
          5    1    3    3  501    0  0.16809145976E+02 -0.22575146414E+02 -0.27499400178E+03  0.27647056921E+03  0.47000000000E+01 0. -1.
        -13    1    4    4    0    0 -0.98488949486E+02  0.43601568718E+02 -0.36049331297E+03  0.37624008115E+03  0.00000000000E+00 0.  1.
         14    1    4    4    0    0 -0.22696111453E+02  0.67353960949E+02 -0.37337632502E+03  0.38008097771E+03  0.00000000000E+00 0. -1.
         -5    1    5    5    0  502 -0.10272228833E+02 -0.22215760576E+02  0.27378298881E+01  0.25072782368E+02  0.47000000000E+01 0.  1.
         13    1    6    6    0    0  0.19828169787E+01  0.15717228788E+02 -0.76427241492E+02  0.78051816673E+02  0.00000000000E+00 0. -1.
        -14    1    6    6    0    0  0.11266532682E+03 -0.81881851465E+02 -0.30374294874E+03  0.33415249868E+03  0.00000000000E+00 0.  1.
</event>
<event>
12    1  0.8196217E-002  0.1762767E+03  0.7818608E-02  0.1171636E+00
         21   -1    0    0  501  502  0.00000000000E+00  0.00000000000E+00  0.16427688153E+04  0.16427688153E+04  0.00000000000E+00 0.  1.
         21   -1    0    0  502  503 -0.00000000000E+00 -0.00000000000E+00 -0.53187577188E+02  0.53187577188E+02  0.00000000000E+00 0.  1.
         -6    2    1    2    0  503  0.34321802868E+02 -0.26478440309E+02  0.11274997496E+03  0.20864202081E+03  0.17011714211E+03 0.  0.
        -24    2    3    3    0    0  0.83428974519E+02 -0.14214955114E+00  0.91647776875E+02  0.14887156588E+03  0.82480386309E+02 0.  0.
          6    2    1    2  501    0 -0.34321802868E+02  0.26478440309E+02  0.14768312632E+04  0.14873143717E+04  0.17086359010E+03 0.  0.
         24    2    5    5    0    0  0.18482202337E+02  0.11424717068E+02  0.12859710567E+04  0.12886574162E+04  0.80276159107E+02 0.  0.
          5    1    5    5  501    0 -0.52804005206E+02  0.15053723240E+02  0.19086020650E+03  0.19865695552E+03  0.47000000000E+01 0. -1.
        -13    1    6    6    0    0  0.28090234132E+02 -0.14472982085E+02  0.11167293244E+04  0.11171763122E+04  0.00000000000E+00 0.  1.
         14    1    6    6    0    0 -0.96080317945E+01  0.25897699153E+02  0.16924173230E+03  0.17148110405E+03  0.00000000000E+00 0. -1.
         -5    1    3    3    0  503 -0.49107171650E+02 -0.26336290757E+02  0.21102198083E+02  0.59770454928E+02  0.47000000000E+01 0.  1.
         13    1    4    4    0    0  0.26963969954E+02 -0.10321629668E+02  0.86586763819E+02  0.91273541529E+02  0.00000000000E+00 0. -1.
        -14    1    4    4    0    0  0.56465004565E+02  0.10179480117E+02  0.50610130560E+01  0.57598024351E+02  0.00000000000E+00 0.  1.
</event>
<event>
12    1  0.8196217E-002  0.3000553E+03  0.7818608E-02  0.1085214E+00
         21   -1    0    0  503  502  0.00000000000E+00  0.00000000000E+00  0.20491290559E+04  0.20491290559E+04  0.00000000000E+00 0.  1.
         21   -1    0    0  501  503 -0.00000000000E+00 -0.00000000000E+00 -0.44245605946E+02  0.44245605946E+02  0.00000000000E+00 0. -1.
          6    2    1    2  501    0  0.24136953595E+03  0.52447794996E+02  0.10900281584E+04  0.11305726687E+04  0.17036181761E+03 0.  0.
         24    2    3    3    0    0  0.13873907941E+03  0.78683678580E+01  0.85877240858E+03  0.87362588864E+03  0.80135511426E+02 0.  0.
         -6    2    1    2    0  502 -0.24136953595E+03 -0.52447794996E+02  0.91485529149E+03  0.96280199314E+03  0.17034508957E+03 0.  0.
        -24    2    5    5    0    0 -0.44385696494E+02 -0.47840034240E+02  0.33411440181E+03  0.34952722975E+03  0.79234411144E+02 0.  0.
          5    1    3    3  501    0  0.10263045653E+03  0.44579427138E+02  0.23125574986E+03  0.25694678005E+03  0.47000000000E+01 0. -1.
        -13    1    4    4    0    0  0.87024582655E+02  0.43570101534E+02  0.49778006052E+03  0.50720471250E+03  0.00000000000E+00 0.  1.
         14    1    4    4    0    0  0.51714496759E+02 -0.35701733676E+02  0.36099234806E+03  0.36642117614E+03  0.00000000000E+00 0. -1.
         -5    1    5    5    0  502 -0.19698383945E+03 -0.46077607566E+01  0.58074088968E+03  0.61327476339E+03  0.47000000000E+01 0.  1.
         13    1    6    6    0    0 -0.38515175388E+02 -0.21216460631E+00  0.60381676729E+02  0.71619903892E+02  0.00000000000E+00 0. -1.
        -14    1    6    6    0    0 -0.58705211055E+01 -0.47627869633E+02  0.27373272508E+03  0.27790732586E+03  0.00000000000E+00 0.  1.
</event>
<event>
12    1  0.8196217E-002  0.1859963E+03  0.7818608E-02  0.1162155E+00
         21   -1    0    0  503  502  0.00000000000E+00  0.00000000000E+00  0.35500305143E+03  0.35500305143E+03  0.00000000000E+00 0. -1.
         21   -1    0    0  501  503 -0.00000000000E+00 -0.00000000000E+00 -0.12981953141E+03  0.12981953141E+03  0.00000000000E+00 0. -1.
          6    2    1    2  501    0  0.69628458258E+02 -0.61933263432E+01 -0.85615514374E+01  0.18619321653E+03  0.17236047757E+03 0.  0.
         24    2    3    3    0    0  0.66899446538E+02 -0.67007807323E+02 -0.16632550360E+02  0.12460523373E+03  0.79273200721E+02 0.  0.
         -6    2    1    2    0  502 -0.69628458258E+02  0.61933263432E+01  0.23374507146E+03  0.29862936631E+03  0.17220993147E+03 0.  0.
        -24    2    5    5    0    0 -0.37747496555E+02  0.47136289372E+01  0.30985054292E+02  0.93319113793E+02  0.79380675330E+02 0.  0.
          5    1    3    3  501    0  0.27290117199E+01  0.60814480980E+02  0.80709989225E+01  0.61587982800E+02  0.47000000000E+01 0. -1.
        -13    1    4    4    0    0 -0.80829079836E+01 -0.97971184091E+01  0.19778442667E+02  0.23505397783E+02  0.00000000000E+00 0.  1.
         14    1    4    4    0    0  0.74982354522E+02 -0.57210688914E+02 -0.36410993027E+02  0.10109983595E+03  0.00000000000E+00 0. -1.
         -5    1    5    5    0  502 -0.31880961703E+02  0.14796974060E+01  0.20276001717E+03  0.20531025251E+03  0.47000000000E+01 0.  1.
         13    1    6    6    0    0 -0.26014955138E+02  0.12438862624E+01  0.58045785606E+02  0.63621052888E+02  0.00000000000E+00 0. -1.
        -14    1    6    6    0    0 -0.11732541416E+02  0.34697426748E+01 -0.27060731314E+02  0.29698060906E+02  0.00000000000E+00 0.  1.
</event>
<event>
12    1  0.8196217E-002  0.1829520E+03  0.7818608E-02  0.1165128E+00
         21   -1    0    0  503  502  0.00000000000E+00  0.00000000000E+00  0.10700399977E+03  0.10700399977E+03  0.00000000000E+00 0. -1.
         21   -1    0    0  501  503 -0.00000000000E+00 -0.00000000000E+00 -0.32133288432E+03  0.32133288432E+03  0.00000000000E+00 0. -1.
          6    2    1    2  501    0  0.58865970765E+02  0.54479146309E+01 -0.14439599214E+03  0.23307002370E+03  0.17313737642E+03 0.  0.
         24    2    3    3    0    0 -0.25510278820E+02 -0.17745215345E+02 -0.32064093700E+02  0.90599612108E+02  0.78832205451E+02 0.  0.
         -6    2    1    2    0  502 -0.58865970765E+02 -0.54479146309E+01 -0.69932892407E+02  0.19526686039E+03  0.17246348900E+03 0.  0.
        -24    2    5    5    0    0  0.59319663146E+01 -0.41769238470E+02  0.47412828978E+01  0.89832835173E+02  0.79168181772E+02 0.  0.
          5    1    3    3  501    0  0.84376249586E+02  0.23193129976E+02 -0.11233189844E+03  0.14247041159E+03  0.47000000000E+01 0. -1.
        -13    1    4    4    0    0  0.20046622694E+02  0.76895779368E+01  0.98985685109E+01  0.23642722958E+02  0.00000000000E+00 0.  1.
         14    1    4    4    0    0 -0.45556901515E+02 -0.25434793282E+02 -0.41962662210E+02  0.66956889151E+02  0.00000000000E+00 0. -1.
         -5    1    5    5    0  502 -0.64797937080E+02  0.36321323839E+02 -0.74674175304E+02  0.10543402521E+03  0.47000000000E+01 0.  1.
         11    1    6    6    0    0 -0.21208503541E+02  0.57684999691E+01 -0.20041305802E+02  0.29744413805E+02  0.00000000000E+00 0. -1.
        -12    1    6    6    0    0  0.27140469855E+02 -0.47537738439E+02  0.24782588700E+02  0.60088421368E+02  0.00000000000E+00 0.  1.
</event>
<event>
12    1  0.8196217E-002  0.2682583E+03  0.7818608E-02  0.1102693E+00
         21   -1    0    0  501  502  0.00000000000E+00  0.00000000000E+00  0.23805897332E+03  0.23805897332E+03  0.00000000000E+00 0.  1.
         21   -1    0    0  502  503 -0.00000000000E+00 -0.00000000000E+00 -0.78623259152E+03  0.78623259152E+03  0.00000000000E+00 0. -1.
         -6    2    1    2    0  503  0.93622801023E+02  0.18153432680E+03 -0.67777119858E+03  0.72892820092E+03  0.17390394991E+03 0.  0.
        -24    2    3    3    0    0  0.32800024618E+02  0.14112427062E+03 -0.59922602259E+03  0.62157915602E+03  0.79353132732E+02 0.  0.
          6    2    1    2  501    0 -0.93622801023E+02 -0.18153432680E+03  0.12959758039E+03  0.29536336392E+03  0.16948168993E+03 0.  0.
         24    2    5    5    0    0 -0.47540963241E+02 -0.31625850965E+02  0.89252877112E+02  0.13335758629E+03  0.80980442786E+02 0.  0.
          5    1    5    5  501    0 -0.46081837782E+02 -0.14990847584E+03  0.40344703279E+02  0.16200577762E+03  0.47000000000E+01 0. -1.
        -11    1    6    6    0    0  0.22755383209E+01 -0.42604884610E+02  0.19420458443E+02  0.46877590312E+02  0.00000000000E+00 0.  1.
         12    1    6    6    0    0 -0.49816501562E+02  0.10979033645E+02  0.69832418669E+02  0.86479995981E+02  0.00000000000E+00 0. -1.
         -5    1    3    3    0  503  0.60822776405E+02  0.40410056177E+02 -0.78545175989E+02  0.10734904490E+03  0.47000000000E+01 0.  1.
         11    1    4    4    0    0 -0.14236603652E+02  0.96668147869E+02 -0.30299706915E+03  0.31836242808E+03  0.00000000000E+00 0. -1.
        -12    1    4    4    0    0  0.47036628269E+02  0.44456122755E+02 -0.29622895344E+03  0.30321672794E+03  0.00000000000E+00 0.  1.
</event>
<event>
12    1  0.8196217E-002  0.2275827E+03  0.7818608E-02  0.1128542E+00
         21   -1    0    0  503  502  0.00000000000E+00  0.00000000000E+00  0.15576057120E+04  0.15576057120E+04  0.00000000000E+00 0.  1.
         21   -1    0    0  501  503 -0.00000000000E+00 -0.00000000000E+00 -0.11963945703E+03  0.11963945703E+03  0.00000000000E+00 0. -1.
          6    2    1    2  501    0 -0.14159830443E+03 -0.42000182060E+02  0.52700351506E+01  0.22658589308E+03  0.17175359840E+03 0.  0.
         24    2    3    3    0    0 -0.12468315574E+02 -0.12534824865E+01  0.35738782375E+02  0.87714434153E+02  0.79117199657E+02 0.  0.
         -6    2    1    2    0  502  0.14159830443E+03  0.42000182060E+02  0.14326962199E+04  0.14506592760E+04  0.17314670508E+03 0.  0.
        -24    2    5    5    0    0  0.39521541100E+02  0.63445248236E+02  0.49629442177E+03  0.50845442886E+03  0.81427890869E+02 0.  0.
          5    1    3    3  501    0 -0.12912998885E+03 -0.40746699574E+02 -0.30468747224E+02  0.13887145893E+03  0.47000000000E+01 0. -1.
        -13    1    4    4    0    0 -0.23434032986E+02  0.17281609100E+02  0.52761894708E+02  0.60262969129E+02  0.00000000000E+00 0.  1.
         14    1    4    4    0    0  0.10965717411E+02 -0.18535091586E+02 -0.17023112333E+02  0.27451465024E+02  0.00000000000E+00 0. -1.
         -5    1    5    5    0  502  0.10207676333E+03 -0.21445066175E+02  0.93640179810E+03  0.94220484713E+03  0.47000000000E+01 0.  1.
         11    1    6    6    0    0 -0.12652279412E+02 -0.12235700451E+02  0.57432789301E+02  0.60069275230E+02  0.00000000000E+00 0. -1.
        -12    1    6    6    0    0  0.52173820511E+02  0.75680948686E+02  0.43886163247E+03  0.44838515363E+03  0.00000000000E+00 0.  1.
</event>
<event>
12    1  0.8196217E-002  0.2563997E+03  0.7818608E-02  0.1109476E+00
         21   -1    0    0  503  502  0.00000000000E+00  0.00000000000E+00  0.60383824457E+03  0.60383824457E+03  0.00000000000E+00 0.  1.
         21   -1    0    0  501  503 -0.00000000000E+00 -0.00000000000E+00 -0.18991983869E+03  0.18991983869E+03  0.00000000000E+00 0.  1.
          6    2    1    2  501    0  0.11717558316E+03  0.14760525042E+03 -0.52744030714E+02  0.26176844918E+03  0.17384867262E+03 0.  0.
         24    2    3    3    0    0  0.11554756846E+03  0.17691303283E+03 -0.53934991279E+02  0.23201773611E+03  0.79207227096E+02 0.  0.
         -6    2    1    2    0  502 -0.11717558316E+03 -0.14760525042E+03  0.46666243660E+03  0.53198963408E+03  0.17239986599E+03 0.  0.
        -24    2    5    5    0    0 -0.57915137086E+02 -0.39190434045E+01  0.15831767611E+03  0.18665485755E+03  0.80037661601E+02 0.  0.
          5    1    3    3  501    0  0.16280147012E+01 -0.29307782407E+02  0.11909605646E+01  0.29750713076E+02  0.47000000000E+01 0. -1.
        -11    1    4    4    0    0  0.25788490019E+02  0.86373725915E+02  0.75839428127E+01  0.90459841557E+02  0.00000000000E+00 0.  1.
         12    1    4    4    0    0  0.89759078437E+02  0.90539306912E+02 -0.61518934091E+02  0.14155789455E+03  0.00000000000E+00 0. -1.
         -5    1    5    5    0  502 -0.59260446070E+02 -0.14368620702E+03  0.30834476049E+03  0.34533477652E+03  0.47000000000E+01 0.  1.
         11    1    6    6    0    0 -0.38256838290E+02 -0.11841969182E+02  0.16584763513E+02  0.43345960490E+02  0.00000000000E+00 0. -1.
        -12    1    6    6    0    0 -0.19658298797E+02  0.79229257777E+01  0.14173291260E+03  0.14330889706E+03  0.00000000000E+00 0.  1.
</event>
<event>
12    1  0.8196217E-002  0.2275990E+03  0.7818608E-02  0.1128373E+00
         21   -1    0    0  503  502  0.00000000000E+00  0.00000000000E+00  0.28092256416E+03  0.28092256416E+03  0.00000000000E+00 0. -1.
         21   -1    0    0  501  503 -0.00000000000E+00 -0.00000000000E+00 -0.18477263144E+03  0.18477263144E+03  0.00000000000E+00 0.  1.
          6    2    1    2  501    0 -0.11689348360E+03  0.91223531838E+02  0.60469860171E+02  0.23549500851E+03  0.17267158357E+03 0.  0.
         24    2    3    3    0    0 -0.36422239943E+01  0.35321865318E+02  0.64839660997E+02  0.10903541306E+03  0.80147611922E+02 0.  0.
         -6    2    1    2    0  502  0.11689348360E+03 -0.91223531838E+02  0.35680072546E+02  0.23020018709E+03  0.17243328938E+03 0.  0.
        -24    2    5    5    0    0  0.23542892176E+02 -0.90368966129E+02 -0.17346736789E+02  0.12273393326E+03  0.77729603665E+02 0.  0.
          5    1    3    3  501    0 -0.11325125961E+03  0.55901666520E+02 -0.43698008254E+01  0.12645959545E+03  0.47000000000E+01 0. -1.
        -13    1    4    4    0    0  0.51125618833E+01  0.27400984778E+02 -0.12679580715E+02  0.30622279845E+02  0.00000000000E+00 0.  1.
         14    1    4    4    0    0 -0.87547858775E+01  0.79208805395E+01  0.77519241711E+02  0.78413133210E+02  0.00000000000E+00 0. -1.
         -5    1    5    5    0  502  0.93350591428E+02 -0.85456570860E+00  0.53026809335E+02  0.10746625382E+03  0.47000000000E+01 0.  1.
         11    1    6    6    0    0  0.18756464964E+02  0.62997996201E+01  0.99833160087E+01  0.22162108468E+02  0.00000000000E+00 0. -1.
        -12    1    6    6    0    0  0.47864272123E+01 -0.96668765749E+02 -0.27330052798E+02  0.10057182480E+03  0.00000000000E+00 0.  1.
</event>
<event>
12    1  0.8196217E-002  0.2242468E+03  0.7818608E-02  0.1130990E+00
         21   -1    0    0  501  502  0.00000000000E+00  0.00000000000E+00  0.22342884617E+03  0.22342884617E+03  0.00000000000E+00 0. -1.
         21   -1    0    0  502  503 -0.00000000000E+00 -0.00000000000E+00 -0.22867769201E+03  0.22867769201E+03  0.00000000000E+00 0.  1.
         -6    2    1    2    0  503  0.12288676982E+03 -0.76413762621E+02  0.30454282786E+02  0.22503534719E+03  0.16962671615E+03 0.  0.
        -24    2    3    3    0    0  0.14993220288E+03 -0.43306707083E+02  0.44875265452E+01  0.17479696540E+03  0.78604738286E+02 0.  0.
          6    2    1    2  501    0 -0.12288676982E+03  0.76413762621E+02 -0.35703128626E+02  0.22707119099E+03  0.17130788385E+03 0.  0.
         24    2    5    5    0    0  0.28316605813E+01  0.56880722158E+02 -0.13364548275E+02  0.97812668700E+02  0.78391786258E+02 0.  0.
          5    1    5    5  501    0 -0.12571843040E+03  0.19533040463E+02 -0.22338580351E+02  0.12925852229E+03  0.47000000000E+01 0. -1.
        -11    1    6    6    0    0  0.27498970830E+02  0.65277506272E+02 -0.93371837078E+01  0.71445988140E+02  0.00000000000E+00 0.  1.
         12    1    6    6    0    0 -0.24667310249E+02 -0.83967841138E+01 -0.40273645675E+01  0.26366680559E+02  0.00000000000E+00 0. -1.
         -5    1    3    3    0  503 -0.27045433055E+02 -0.33107055538E+02  0.25966756241E+02  0.50238381793E+02  0.47000000000E+01 0.  1.
         11    1    4    4    0    0  0.38822665777E+02  0.19572635391E+02  0.16637449994E+02  0.46552037297E+02  0.00000000000E+00 0. -1.
        -12    1    4    4    0    0  0.11110953710E+03 -0.62879342474E+02 -0.12149923449E+02  0.12824492810E+03  0.00000000000E+00 0.  1.
</event>
<event>
12    1  0.8196217E-002  0.1877250E+03  0.7818608E-02  0.1161301E+00
         21   -1    0    0  501  502  0.00000000000E+00  0.00000000000E+00  0.85717958621E+03  0.85717958621E+03  0.00000000000E+00 0.  1.
         21   -1    0    0  502  503 -0.00000000000E+00 -0.00000000000E+00 -0.16587637760E+03  0.16587637760E+03  0.00000000000E+00 0.  1.
         -6    2    1    2    0  503 -0.59194447195E+01  0.65392083394E+02 -0.98511557590E+02  0.21200282427E+03  0.17586786553E+03 0.  0.
        -24    2    3    3    0    0 -0.47048820627E+02  0.94882213336E+02 -0.43784339181E+02  0.13731379053E+03  0.75642466795E+02 0.  0.
          6    2    1    2  501    0  0.59194447195E+01 -0.65392083394E+02  0.78981476621E+03  0.81105313953E+03  0.17230399251E+03 0.  0.
         24    2    5    5    0    0 -0.51381697310E+02 -0.74946946552E+02  0.44969113556E+03  0.46597214844E+03  0.81552450044E+02 0.  0.
          5    1    5    5  501    0  0.57301142030E+02  0.95548631580E+01  0.34012363065E+03  0.34508099109E+03  0.47000000000E+01 0. -1.
        -11    1    6    6    0    0 -0.13513637592E+02 -0.33082909849E+02  0.45490911304E+02  0.57849116988E+02  0.00000000000E+00 0.  1.
         12    1    6    6    0    0 -0.37868059718E+02 -0.41864036703E+02  0.40420022425E+03  0.40812303145E+03  0.00000000000E+00 0. -1.
         -5    1    3    3    0  503  0.41129375907E+02 -0.29490129943E+02 -0.54727218409E+02  0.74689033742E+02  0.47000000000E+01 0.  1.
         11    1    4    4    0    0 -0.25881879780E+01 -0.67081549955E+00  0.15949667780E+02  0.16172217310E+02  0.00000000000E+00 0. -1.
        -12    1    4    4    0    0 -0.44460632649E+02  0.95553028836E+02 -0.59734006961E+02  0.12114157322E+03  0.00000000000E+00 0.  1.
</event>
<event>
12    1  0.8196217E-002  0.2315613E+03  0.7818608E-02  0.1125833E+00
         21   -1    0    0  503  502  0.00000000000E+00  0.00000000000E+00  0.48844109290E+03  0.48844109290E+03  0.00000000000E+00 0.  1.
         21   -1    0    0  501  503 -0.00000000000E+00 -0.00000000000E+00 -0.85034422988E+03  0.85034422988E+03  0.00000000000E+00 0. -1.
          6    2    1    2  501    0  0.29745886133E+02  0.15629571286E+03 -0.80588717156E+03  0.83804343505E+03  0.16598041495E+03 0.  0.
         24    2    3    3    0    0 -0.17800295189E+02  0.13976391298E+03 -0.44241646207E+03  0.47107342752E+03  0.79542732724E+02 0.  0.
         -6    2    1    2    0  502 -0.29745886133E+02 -0.15629571286E+03  0.44398403458E+03  0.50074188774E+03  0.16824817256E+03 0.  0.
        -24    2    5    5    0    0 -0.75801315450E+02 -0.88811772783E+02  0.34206023657E+03  0.37002947311E+03  0.79266860129E+02 0.  0.
          5    1    3    3  501    0  0.47546181322E+02  0.16531799873E+02 -0.36347070949E+03  0.36697000753E+03  0.47000000000E+01 0. -1.
        -13    1    4    4    0    0 -0.24997503619E+02  0.68268996850E+02 -0.11645256927E+03  0.13728340033E+03  0.00000000000E+00 0.  1.
         14    1    4    4    0    0  0.71972084294E+01  0.71494916134E+02 -0.32596389280E+03  0.33379002719E+03  0.00000000000E+00 0. -1.
         -5    1    5    5    0  502  0.46055429317E+02 -0.67483940075E+02  0.10192379801E+03  0.13071241463E+03  0.47000000000E+01 0.  1.
         11    1    6    6    0    0  0.64455994103E+01 -0.23453696065E+01 -0.88376023105E+00  0.69157459826E+01  0.00000000000E+00 0. -1.
        -12    1    6    6    0    0 -0.82246914860E+02 -0.86466403176E+02  0.34294399681E+03  0.36311372713E+03  0.00000000000E+00 0.  1.
</event>
<event>
12    1  0.8196217E-002  0.2183355E+03  0.7818608E-02  0.1135508E+00
         21   -1    0    0  503  502  0.00000000000E+00  0.00000000000E+00  0.35029461377E+02  0.35029461377E+02  0.00000000000E+00 0. -1.
         21   -1    0    0  501  503 -0.00000000000E+00 -0.00000000000E+00 -0.14494084709E+04  0.14494084709E+04  0.00000000000E+00 0.  1.
          6    2    1    2  501    0  0.84018148913E+02  0.10509268979E+03 -0.90612423215E+03  0.93205767119E+03  0.17195015421E+03 0.  0.
         24    2    3    3    0    0  0.54266974015E+02  0.14097501202E+03 -0.70789956512E+03  0.72837217324E+03  0.81150292454E+02 0.  0.
         -6    2    1    2    0  502 -0.84018148913E+02 -0.10509268979E+03 -0.50825477740E+03  0.55238026112E+03  0.16940339822E+03 0.  0.
        -24    2    5    5    0    0 -0.10219997707E+03 -0.26660175043E+02 -0.31578581335E+03  0.34369717515E+03  0.85155552079E+02 0.  0.
          5    1    3    3  501    0  0.29751174898E+02 -0.35882322225E+02 -0.19822466703E+03  0.20368549795E+03  0.47000000000E+01 0. -1.
        -13    1    4    4    0    0  0.26811005818E+02  0.56643604906E+02 -0.47572828777E+03  0.47983823503E+03  0.00000000000E+00 0.  1.
         14    1    4    4    0    0  0.27455968197E+02  0.84331407111E+02 -0.23217127735E+03  0.24853393820E+03  0.00000000000E+00 0. -1.
         -5    1    5    5    0  502  0.18181828156E+02 -0.78432514749E+02 -0.19246896405E+03  0.20868308597E+03  0.47000000000E+01 0.  1.
         13    1    6    6    0    0 -0.54428472846E+02  0.95381286906E+00 -0.55932553077E+02  0.78050105119E+02  0.00000000000E+00 0. -1.
        -14    1    6    6    0    0 -0.47771504222E+02 -0.27613987912E+02 -0.25985326027E+03  0.26564707003E+03  0.00000000000E+00 0.  1.
</event>
<event>
12    1  0.8196217E-002  0.1819050E+03  0.7818608E-02  0.1166335E+00
         21   -1    0    0  503  502  0.00000000000E+00  0.00000000000E+00  0.23152379718E+03  0.23152379718E+03  0.00000000000E+00 0.  1.
         21   -1    0    0  501  503 -0.00000000000E+00 -0.00000000000E+00 -0.16236955071E+03  0.16236955071E+03  0.00000000000E+00 0.  1.
          6    2    1    2  501    0  0.11435157074E+02  0.50883017954E+02 -0.35509380636E+02  0.18533841880E+03  0.17426866912E+03 0.  0.
         24    2    3    3    0    0 -0.37382163153E+01  0.19465093429E+02  0.47558816267E+02  0.95117952283E+02  0.79954485293E+02 0.  0.
         -6    2    1    2    0  502 -0.11435157074E+02 -0.50883017954E+02  0.10466362710E+03  0.20855492910E+03  0.17268711382E+03 0.  0.
        -24    2    5    5    0    0 -0.58132730623E+02 -0.15157513955E+02  0.11083275494E+03  0.14924959081E+03  0.79889775257E+02 0.  0.
          5    1    3    3  501    0  0.15173373390E+02  0.31417924525E+02 -0.83068196904E+02  0.90220466516E+02  0.47000000000E+01 0. -1.
        -11    1    4    4    0    0 -0.12826245962E+02 -0.20487796089E+02 -0.85517792729E+01  0.25639721192E+02  0.00000000000E+00 0.  1.
         12    1    4    4    0    0  0.90880296464E+01  0.39952889518E+02  0.56110595540E+02  0.69478231091E+02  0.00000000000E+00 0. -1.
         -5    1    5    5    0  502  0.46697573548E+02 -0.35725503999E+02 -0.61691278317E+01  0.59305338288E+02  0.47000000000E+01 0.  1.
         13    1    6    6    0    0  0.20300582427E+01 -0.18340169543E+02 -0.46208798319E+01  0.19021973761E+02  0.00000000000E+00 0. -1.
        -14    1    6    6    0    0 -0.60162788865E+02  0.31826555878E+01  0.11545363477E+03  0.13022761705E+03  0.00000000000E+00 0.  1.
</event>
<event>
12    1  0.8196217E-002  0.2229015E+03  0.7818608E-02  0.1131742E+00
         21   -1    0    0  501  502  0.00000000000E+00  0.00000000000E+00  0.43768031797E+02  0.43768031797E+02  0.00000000000E+00 0.  1.
         21   -1    0    0  502  503 -0.00000000000E+00 -0.00000000000E+00 -0.13984709287E+04  0.13984709287E+04  0.00000000000E+00 0.  1.
         -6    2    1    2    0  503  0.13708477413E+03  0.37424229258E+02 -0.99031983542E+03  0.10150952920E+04  0.17173312756E+03 0.  0.
        -24    2    3    3    0    0  0.14714027240E+03  0.42144840009E+02 -0.98788581519E+03  0.10027903472E+04  0.79016765852E+02 0.  0.
          6    2    1    2  501    0 -0.13708477413E+03 -0.37424229258E+02 -0.36438306147E+03  0.42714366852E+03  0.17170873547E+03 0.  0.
         24    2    5    5    0    0 -0.88264933167E+02  0.40549845885E+02 -0.25467444753E+03  0.28389073404E+03  0.79371822569E+02 0.  0.
          5    1    5    5  501    0 -0.48819840966E+02 -0.77974075143E+02 -0.10970861394E+03  0.14325293448E+03  0.47000000000E+01 0. -1.
        -13    1    6    6    0    0 -0.65245366171E+02 -0.12711122578E+02 -0.15319215336E+03  0.16699211447E+03  0.00000000000E+00 0.  1.
         14    1    6    6    0    0 -0.23019566996E+02  0.53260968463E+02 -0.10148229418E+03  0.11689861957E+03  0.00000000000E+00 0. -1.
         -5    1    3    3    0  503 -0.10055498265E+02 -0.47206107508E+01 -0.24340202371E+01  0.12304944768E+02  0.47000000000E+01 0.  1.
         11    1    4    4    0    0  0.49787873763E+01 -0.15410181445E+02 -0.16004674735E+03  0.16086399023E+03  0.00000000000E+00 0. -1.
        -12    1    4    4    0    0  0.14216148502E+03  0.57555021453E+02 -0.82783906784E+03  0.84192635697E+03  0.00000000000E+00 0.  1.
</event>
<event>
12    1  0.8196217E-002  0.1796701E+03  0.7818608E-02  0.1168148E+00
         21   -1    0    0  501  502  0.00000000000E+00  0.00000000000E+00  0.28985797788E+02  0.28985797788E+02  0.00000000000E+00 0. -1.
         21   -1    0    0  502  503 -0.00000000000E+00 -0.00000000000E+00 -0.12674462553E+04  0.12674462553E+04  0.00000000000E+00 0. -1.
         -6    2    1    2    0  503  0.41279727872E+02  0.26462850400E+02 -0.84531567212E+03  0.86417730374E+03  0.17274121793E+03 0.  0.
        -24    2    3    3    0    0  0.54966798258E+02  0.35709776317E+02 -0.83996376377E+03  0.84618912824E+03  0.78742487037E+02 0.  0.
          6    2    1    2  501    0 -0.41279727872E+02 -0.26462850400E+02 -0.39314478540E+03  0.43225474936E+03  0.17284978356E+03 0.  0.
         24    2    5    5    0    0 -0.68242119763E+02  0.23098194338E+02 -0.16385590141E+03  0.19607949652E+03  0.80049353771E+02 0.  0.
          5    1    5    5  501    0  0.26962391891E+02 -0.49561044738E+02 -0.22928888399E+03  0.23617525284E+03  0.47000000000E+01 0. -1.
        -13    1    6    6    0    0 -0.10283384942E+02 -0.13989585660E+02 -0.10227454574E+03  0.10373783890E+03  0.00000000000E+00 0.  1.
         14    1    6    6    0    0 -0.57958734822E+02  0.37087779998E+02 -0.61581355670E+02  0.92341657628E+02  0.00000000000E+00 0. -1.
         -5    1    3    3    0  503 -0.13687070386E+02 -0.92469259168E+01 -0.53519083494E+01  0.17988175495E+02  0.47000000000E+01 0.  1.
         13    1    4    4    0    0  0.90942769216E+01  0.37081379055E+02 -0.15291946893E+03  0.15761376375E+03  0.00000000000E+00 0. -1.
        -14    1    4    4    0    0  0.45872521336E+02 -0.13716027380E+01 -0.68704429484E+03  0.68857536449E+03  0.00000000000E+00 0.  1.
</event>
<event>
12    1  0.8196217E-002  0.2004272E+03  0.7818608E-02  0.1149566E+00
         21   -1    0    0  501  502  0.00000000000E+00  0.00000000000E+00  0.89886342205E+03  0.89886342205E+03  0.00000000000E+00 0. -1.
         21   -1    0    0  502  503 -0.00000000000E+00 -0.00000000000E+00 -0.48902841255E+02  0.48902841255E+02  0.00000000000E+00 0.  1.
         -6    2    1    2    0  503  0.16394359192E+01  0.10060779529E+03  0.28182181472E+03  0.34531070021E+03  0.17231171812E+03 0.  0.
        -24    2    3    3    0    0 -0.52026416423E+02  0.20340134719E+02  0.10106093714E+03  0.14032410088E+03  0.79731243469E+02 0.  0.
          6    2    1    2  501    0 -0.16394359192E+01 -0.10060779529E+03  0.56813876607E+03  0.60245556309E+03  0.17333906590E+03 0.  0.
         24    2    5    5    0    0  0.12615114808E+02 -0.11878436232E+03  0.29261523306E+03  0.32592547965E+03  0.79591945659E+02 0.  0.
          5    1    5    5  501    0 -0.14254550728E+02  0.18176567033E+02  0.27552353301E+03  0.27653008344E+03  0.47000000000E+01 0. -1.
        -11    1    6    6    0    0 -0.27640295317E+02 -0.84090434374E+02  0.15640929111E+03  0.17971937409E+03  0.00000000000E+00 0.  1.
         12    1    6    6    0    0  0.40255410125E+02 -0.34693927951E+02  0.13620594195E+03  0.14620610556E+03  0.00000000000E+00 0. -1.
         -5    1    3    3    0  503  0.53665852342E+02  0.80267660572E+02  0.18076087759E+03  0.20498659933E+03  0.47000000000E+01 0.  1.
         11    1    4    4    0    0  0.37429562096E+01 -0.14369453745E+02  0.62315378213E+02  0.64060106806E+02  0.00000000000E+00 0. -1.
        -12    1    4    4    0    0 -0.55769372632E+02  0.34709588463E+02  0.38745558926E+02  0.76263994070E+02  0.00000000000E+00 0.  1.
</event>
<event>
12    1  0.8196217E-002  0.1886605E+03  0.7818608E-02  0.1160329E+00
         21   -1    0    0  501  502  0.00000000000E+00  0.00000000000E+00  0.87682332660E+02  0.87682332660E+02  0.00000000000E+00 0. -1.
         21   -1    0    0  502  503 -0.00000000000E+00 -0.00000000000E+00 -0.41362537502E+03  0.41362537502E+03  0.00000000000E+00 0. -1.
         -6    2    1    2    0  503  0.68233497961E+02  0.19174857477E+02 -0.20756378117E+03  0.27858272007E+03  0.17176182133E+03 0.  0.
        -24    2    3    3    0    0 -0.20404529095E+02 -0.20778388861E+02 -0.74559382240E+02  0.11376396547E+03  0.80839669149E+02 0.  0.
          6    2    1    2  501    0 -0.68233497961E+02 -0.19174857477E+02 -0.11837926119E+03  0.22272498761E+03  0.17484074245E+03 0.  0.
         24    2    5    5    0    0  0.23124390092E+02  0.15011886611E+01 -0.14214807243E+02  0.82560491179E+02  0.77956288869E+02 0.  0.
          5    1    5    5  501    0 -0.91357888053E+02 -0.20676046138E+02 -0.10416445394E+03  0.14016449643E+03  0.47000000000E+01 0. -1.
        -11    1    6    6    0    0  0.69009805159E+01 -0.93297817000E+01  0.31116682325E+02  0.33210183341E+02  0.00000000000E+00 0.  1.
         12    1    6    6    0    0  0.16223409576E+02  0.10830970361E+02 -0.45331489568E+02  0.49350307838E+02  0.00000000000E+00 0. -1.
         -5    1    3    3    0  503  0.88638027057E+02  0.39953246338E+02 -0.13300439893E+03  0.16481875460E+03  0.47000000000E+01 0.  1.
         11    1    4    4    0    0  0.16018577064E+02  0.20629438124E+02 -0.42758156712E+02  0.50104176411E+02  0.00000000000E+00 0. -1.
        -12    1    4    4    0    0 -0.36423106159E+02 -0.41407826985E+02 -0.31801225529E+02  0.63659789059E+02  0.00000000000E+00 0.  1.
</event>
<event>
12    1  0.8196217E-002  0.3184888E+03  0.7818608E-02  0.1076357E+00
         21   -1    0    0  503  502  0.00000000000E+00  0.00000000000E+00  0.27160043032E+03  0.27160043032E+03  0.00000000000E+00 0. -1.
         21   -1    0    0  501  503 -0.00000000000E+00 -0.00000000000E+00 -0.43799639420E+03  0.43799639420E+03  0.00000000000E+00 0.  1.
          6    2    1    2  501    0  0.24312963399E+03  0.11383279729E+03  0.53081203380E+02  0.32288193447E+03  0.17136278707E+03 0.  0.
         24    2    3    3    0    0  0.13646119295E+03  0.13167512185E+03  0.85966858375E+01  0.20584575562E+03  0.79615181989E+02 0.  0.
         -6    2    1    2    0  502 -0.24312963399E+03 -0.11383279729E+03 -0.21947716726E+03  0.38671489005E+03  0.17119653786E+03 0.  0.
        -24    2    5    5    0    0 -0.11330108373E+03 -0.11838821444E+03 -0.90539814771E+02  0.20362164836E+03  0.80071297771E+02 0.  0.
          5    1    3    3  501    0  0.10666844103E+03 -0.17842324562E+02  0.44484517543E+02  0.11703617885E+03  0.47000000000E+01 0. -1.
        -11    1    4    4    0    0  0.16218318586E+02  0.75075164767E+01 -0.24029545056E+02  0.29946881256E+02  0.00000000000E+00 0.  1.
         12    1    4    4    0    0  0.12024287437E+03  0.12416760537E+03  0.32626230893E+02  0.17589887436E+03  0.00000000000E+00 0. -1.
         -5    1    5    5    0  502 -0.12982855025E+03  0.45554171528E+01 -0.12893735249E+03  0.18309324169E+03  0.47000000000E+01 0.  1.
         11    1    6    6    0    0 -0.12435501265E+03 -0.11248821035E+03 -0.91556244424E+02  0.19105054968E+03  0.00000000000E+00 0. -1.
        -12    1    6    6    0    0  0.11053928916E+02 -0.59000040911E+01  0.10164296526E+01  0.12571098679E+02  0.00000000000E+00 0.  1.
</event>
<event>
12    1  0.8196217E-002  0.1835630E+03  0.7818608E-02  0.1165876E+00
         21   -1    0    0  501  502  0.00000000000E+00  0.00000000000E+00  0.44580048245E+02  0.44580048245E+02  0.00000000000E+00 0.  1.
         21   -1    0    0  502  503 -0.00000000000E+00 -0.00000000000E+00 -0.94933706433E+03  0.94933706433E+03  0.00000000000E+00 0.  1.
         -6    2    1    2    0  503 -0.64096178792E+02 -0.82363740547E+01 -0.68489798349E+03  0.70750244596E+03  0.16522198784E+03 0.  0.
        -24    2    3    3    0    0 -0.98400773802E+02 -0.31096165224E+02 -0.41199340317E+03  0.43146191406E+03  0.75967988383E+02 0.  0.
          6    2    1    2  501    0  0.64096178792E+02  0.82363740547E+01 -0.21985903260E+03  0.28641466661E+03  0.17181155096E+03 0.  0.
         24    2    5    5    0    0  0.22703881406E+02 -0.15348356312E+02 -0.29350308269E+02  0.89983442427E+02  0.80526648031E+02 0.  0.
          5    1    5    5  501    0  0.41392297387E+02  0.23584730366E+02 -0.19050872433E+03  0.19643122418E+03  0.47000000000E+01 0. -1.
        -13    1    6    6    0    0  0.16100419442E+02  0.20722466254E+02 -0.43397454765E+02  0.50714723641E+02  0.00000000000E+00 0.  1.
         14    1    6    6    0    0  0.66034619633E+01 -0.36070822565E+02  0.14047146496E+02  0.39268718786E+02  0.00000000000E+00 0. -1.
         -5    1    3    3    0  503  0.34304595010E+02  0.22859791170E+02 -0.27290458032E+03  0.27604053190E+03  0.47000000000E+01 0.  1.
         11    1    4    4    0    0 -0.66834672736E+01 -0.12709894698E+02 -0.73204244944E+01  0.16118274498E+02  0.00000000000E+00 0. -1.
        -12    1    4    4    0    0 -0.91717306528E+02 -0.18386270527E+02 -0.40467297867E+03  0.41534363957E+03  0.00000000000E+00 0.  1.
</event>
<event>
12    1  0.8196217E-002  0.1753676E+03  0.7818608E-02  0.1176486E+00
         21   -1    0    0  501  502  0.00000000000E+00  0.00000000000E+00  0.72929867574E+03  0.72929867574E+03  0.00000000000E+00 0. -1.
         21   -1    0    0  502  503 -0.00000000000E+00 -0.00000000000E+00 -0.61186368082E+02  0.61186368082E+02  0.00000000000E+00 0. -1.
         -6    2    1    2    0  503 -0.18023420719E+02 -0.18408221993E+02  0.83654927553E+02  0.18028488629E+03  0.15760960310E+03 0.  0.
        -24    2    3    3    0    0 -0.69623586647E+02 -0.65051779345E+01  0.59129893609E+02  0.12173724012E+03  0.80211284470E+02 0.  0.
          6    2    1    2  501    0  0.18023420719E+02  0.18408221993E+02  0.58445738011E+03  0.61020015754E+03  0.17346497273E+03 0.  0.
         24    2    5    5    0    0  0.99771954939E+01  0.60403519535E+02  0.21566892485E+03  0.23891137305E+03  0.82567726284E+02 0.  0.
          5    1    5    5  501    0  0.80462252247E+01 -0.41995297542E+02  0.36878845526E+03  0.37128878449E+03  0.47000000000E+01 0. -1.
        -13    1    6    6    0    0  0.29140254309E+02  0.59222258950E+02  0.20802731567E+03  0.21824709492E+03  0.00000000000E+00 0.  1.
         14    1    6    6    0    0 -0.19163058815E+02  0.11812605845E+01  0.76416091824E+01  0.20664278130E+02  0.00000000000E+00 0. -1.
         -5    1    3    3    0  503  0.51600165929E+02 -0.11903044059E+02  0.24525033944E+02  0.58547646167E+02  0.47000000000E+01 0.  1.
         11    1    4    4    0    0  0.15766516105E+02  0.72205416720E+01  0.68475302598E+00  0.17354772797E+02  0.00000000000E+00 0. -1.
        -12    1    4    4    0    0 -0.85390102752E+02 -0.13725719606E+02  0.58445140583E+02  0.10438246732E+03  0.00000000000E+00 0.  1.
</event>
<event>
12    1  0.8196217E-002  0.3711129E+03  0.7818608E-02  0.1054316E+00
         21   -1    0    0  501  502  0.00000000000E+00  0.00000000000E+00  0.83072581029E+03  0.83072581029E+03  0.00000000000E+00 0.  1.
         21   -1    0    0  502  503 -0.00000000000E+00 -0.00000000000E+00 -0.49840073359E+03  0.49840073359E+03  0.00000000000E+00 0. -1.
         -6    2    1    2    0  503  0.29972529847E+03  0.13560099381E+03 -0.37687784586E+03  0.52892504698E+03  0.17176120213E+03 0.  0.
        -24    2    3    3    0    0  0.17662216567E+03  0.14586697151E+03 -0.28560762154E+03  0.37526270465E+03  0.82327524157E+02 0.  0.
          6    2    1    2  501    0 -0.29972529847E+03 -0.13560099381E+03  0.70920292256E+03  0.80020149691E+03  0.17067737464E+03 0.  0.
         24    2    5    5    0    0 -0.24136716974E+03 -0.13864503500E+03  0.66818780951E+03  0.72865244468E+03  0.83539691198E+02 0.  0.
          5    1    5    5  501    0 -0.58358128727E+02  0.30440411859E+01  0.41015113052E+02  0.71549052223E+02  0.47000000000E+01 0. -1.
        -13    1    6    6    0    0 -0.17850391267E+03 -0.11992542221E+03  0.41883112953E+03  0.47081341187E+03  0.00000000000E+00 0.  1.
         14    1    6    6    0    0 -0.62863257069E+02 -0.18719612790E+02  0.24935667998E+03  0.25783903281E+03  0.00000000000E+00 0. -1.
         -5    1    3    3    0  503  0.12310313280E+03 -0.10265977703E+02 -0.91270224321E+02  0.15366234233E+03  0.47000000000E+01 0.  1.
         13    1    4    4    0    0  0.15877485839E+03  0.12199413377E+03 -0.28109254557E+03  0.34511598559E+03  0.00000000000E+00 0. -1.
        -14    1    4    4    0    0  0.17847307284E+02  0.23872837738E+02 -0.45150759617E+01  0.30146719057E+02  0.00000000000E+00 0.  1.
</event>
<event>
12    1  0.8196217E-002  0.2118327E+03  0.7818608E-02  0.1140416E+00
         21   -1    0    0  501  502  0.00000000000E+00  0.00000000000E+00  0.14686420392E+03  0.14686420392E+03  0.00000000000E+00 0. -1.
         21   -1    0    0  502  503 -0.00000000000E+00 -0.00000000000E+00 -0.36592414057E+03  0.36592414057E+03  0.00000000000E+00 0. -1.
         -6    2    1    2    0  503  0.10690730544E+03 -0.61429992418E+02 -0.38606164030E+01  0.21186790732E+03  0.17225065999E+03 0.  0.
        -24    2    3    3    0    0  0.25924231121E+02  0.12387121207E+02 -0.42456216380E+02  0.95596952530E+02  0.80689159698E+02 0.  0.
          6    2    1    2  501    0 -0.10690730544E+03  0.61429992418E+02 -0.21519932025E+03  0.30092043717E+03  0.17040993559E+03 0.  0.
         24    2    5    5    0    0 -0.12631063475E+03  0.53492889909E+02 -0.22640171601E+03  0.27669090033E+03  0.80524850759E+02 0.  0.
          5    1    5    5  501    0  0.19403329312E+02  0.79371025099E+01  0.11202395766E+02  0.24229536841E+02  0.47000000000E+01 0. -1.
        -13    1    6    6    0    0  0.93250878277E+01  0.87563017719E+00 -0.35249894006E+02  0.36472990262E+02  0.00000000000E+00 0.  1.
         14    1    6    6    0    0 -0.13563572257E+03  0.52617259731E+02 -0.19115182201E+03  0.24021791007E+03  0.00000000000E+00 0. -1.
         -5    1    3    3    0  503  0.80983074314E+02 -0.73817113626E+02  0.38595599977E+02  0.11627095479E+03  0.47000000000E+01 0.  1.
         13    1    4    4    0    0  0.44227788229E+02 -0.14111304906E+02 -0.57720813277E+01  0.46781867220E+02  0.00000000000E+00 0. -1.
        -14    1    4    4    0    0 -0.18303557108E+02  0.26498426113E+02 -0.36684135053E+02  0.48815085310E+02  0.00000000000E+00 0.  1.
</event>
<event>
12    1  0.8196217E-002  0.1929050E+03  0.7818608E-02  0.1155924E+00
         21   -1    0    0  501  502  0.00000000000E+00  0.00000000000E+00  0.33507212287E+02  0.33507212287E+02  0.00000000000E+00 0.  1.
         21   -1    0    0  502  503 -0.00000000000E+00 -0.00000000000E+00 -0.13132881110E+04  0.13132881110E+04  0.00000000000E+00 0.  1.
         -6    2    1    2    0  503 -0.23833108092E+02 -0.86649567073E+02 -0.90577124552E+03  0.92608524583E+03  0.17069320085E+03 0.  0.
        -24    2    3    3    0    0 -0.57208101748E+02 -0.19782416007E+02 -0.31820316418E+03  0.33376485424E+03  0.80508467485E+02 0.  0.
          6    2    1    2  501    0  0.23833108092E+02  0.86649567073E+02 -0.37400965319E+03  0.42071007746E+03  0.17040417858E+03 0.  0.
         24    2    5    5    0    0  0.45581848885E+02  0.10960060475E+03 -0.20804438464E+03  0.25169434381E+03  0.77314805913E+02 0.  0.
          5    1    5    5  501    0 -0.21748740794E+02 -0.22951037679E+02 -0.16596526855E+03  0.16901573365E+03  0.47000000000E+01 0. -1.
        -11    1    6    6    0    0 -0.13101578729E+02  0.59608138450E+02 -0.12029500610E+03  0.13489132673E+03  0.00000000000E+00 0.  1.
         12    1    6    6    0    0  0.58683427614E+02  0.49992466302E+02 -0.87749378543E+02  0.11680301708E+03  0.00000000000E+00 0. -1.
         -5    1    3    3    0  503  0.33374993657E+02 -0.66867151066E+02 -0.58756808134E+03  0.59232039159E+03  0.47000000000E+01 0.  1.
         11    1    4    4    0    0 -0.36539524893E+02 -0.47656705413E+02 -0.14198304976E+03  0.15416058144E+03  0.00000000000E+00 0. -1.
        -12    1    4    4    0    0 -0.20668576855E+02  0.27874289406E+02 -0.17622011442E+03  0.17960427279E+03  0.00000000000E+00 0.  1.
</event>
<event>
12    1  0.8196217E-002  0.1734419E+03  0.7818608E-02  0.1174398E+00
         21   -1    0    0  501  502  0.00000000000E+00  0.00000000000E+00  0.57593608803E+03  0.57593608803E+03  0.00000000000E+00 0. -1.
         21   -1    0    0  502  503 -0.00000000000E+00 -0.00000000000E+00 -0.74220312755E+02  0.74220312755E+02  0.00000000000E+00 0. -1.
         -6    2    1    2    0  503 -0.19929782491E+02 -0.14073418807E+02  0.73661870852E+02  0.18843609546E+03  0.17171730696E+03 0.  0.
        -24    2    3    3    0    0 -0.20304616587E+02 -0.60767695751E+02  0.11270540167E+01  0.10204231297E+03  0.79412675842E+02 0.  0.
          6    2    1    2  501    0  0.19929782491E+02  0.14073418807E+02  0.42805390442E+03  0.46172030532E+03  0.17134829414E+03 0.  0.
         24    2    5    5    0    0  0.14166632322E+02  0.28974979224E+02  0.43529323921E+03  0.44356077969E+03  0.78903221040E+02 0.  0.
          5    1    5    5  501    0  0.57631501693E+01 -0.14901560417E+02 -0.72393347869E+01  0.18159525624E+02  0.47000000000E+01 0. -1.
        -11    1    6    6    0    0  0.51493595883E+01 -0.23691309487E+02  0.23554304389E+03  0.23678749877E+03  0.00000000000E+00 0.  1.
         12    1    6    6    0    0  0.90172727333E+01  0.52666288711E+02  0.19975019532E+03  0.20677328092E+03  0.00000000000E+00 0. -1.
         -5    1    3    3    0  503  0.37483409647E+00  0.46694276943E+02  0.72534816835E+02  0.86393782491E+02  0.47000000000E+01 0.  1.
         13    1    4    4    0    0 -0.39448523909E+02 -0.66412510356E+02 -0.11974237476E+02  0.78167703903E+02  0.00000000000E+00 0. -1.
        -14    1    4    4    0    0  0.19143907321E+02  0.56448146051E+01  0.13101291493E+02  0.23874609070E+02  0.00000000000E+00 0.  1.
</event>
<event>
12    1  0.8196217E-002  0.1779433E+03  0.7818608E-02  0.1169838E+00
         21   -1    0    0  503  502  0.00000000000E+00  0.00000000000E+00  0.35693726779E+03  0.35693726779E+03  0.00000000000E+00 0.  1.
         21   -1    0    0  501  503 -0.00000000000E+00 -0.00000000000E+00 -0.10851188689E+03  0.10851188689E+03  0.00000000000E+00 0.  1.
          6    2    1    2  501    0 -0.44851251779E+02  0.16128487256E+02  0.24680203972E+02  0.17964669237E+03  0.17144112320E+03 0.  0.
         24    2    3    3    0    0 -0.99296452195E+02  0.11615173461E+02  0.24489815788E+02  0.12481261448E+03  0.70595608813E+02 0.  0.
         -6    2    1    2    0  502  0.44851251779E+02 -0.16128487256E+02  0.22374517692E+03  0.28580246231E+03  0.17131660859E+03 0.  0.
        -24    2    5    5    0    0  0.88395706312E+02 -0.42457260072E+02  0.14410005312E+03  0.19117287104E+03  0.78522745015E+02 0.  0.
          5    1    3    3  501    0  0.54445200416E+02  0.45133137946E+01  0.19038818376E+00  0.54834077884E+02  0.47000000000E+01 0. -1.
        -11    1    4    4    0    0 -0.95713263611E+02  0.29816080711E+02  0.31345522396E+02  0.10503603798E+03  0.00000000000E+00 0.  1.
         12    1    4    4    0    0 -0.35831885838E+01 -0.18200907250E+02 -0.68557066071E+01  0.19776576504E+02  0.00000000000E+00 0. -1.
         -5    1    5    5    0  502 -0.43544454534E+02  0.26328772816E+02  0.79645123797E+02  0.94629591266E+02  0.47000000000E+01 0.  1.
         13    1    6    6    0    0 -0.10547806484E+02 -0.17194702140E+02  0.42890683824E+02  0.47397518524E+02  0.00000000000E+00 0. -1.
        -14    1    6    6    0    0  0.98943512796E+02 -0.25262557932E+02  0.10120936930E+03  0.14377535252E+03  0.00000000000E+00 0.  1.
</event>
<event>
12    1  0.8196217E-002  0.1874229E+03  0.7818608E-02  0.1160949E+00
         21   -1    0    0  503  502  0.00000000000E+00  0.00000000000E+00  0.12951513242E+04  0.12951513242E+04  0.00000000000E+00 0.  1.
         21   -1    0    0  501  503 -0.00000000000E+00 -0.00000000000E+00 -0.27336821507E+02  0.27336821507E+02  0.00000000000E+00 0.  1.
          6    2    1    2  501    0  0.28249700360E+02 -0.68297802775E+02  0.56309651403E+03  0.59327296946E+03  0.17155901824E+03 0.  0.
         24    2    3    3    0    0  0.81849602849E+02 -0.36874635563E+02  0.30841054799E+03  0.33107572255E+03  0.80218275464E+02 0.  0.
         -6    2    1    2    0  502 -0.28249700360E+02  0.68297802775E+02  0.70471798869E+03  0.72921517628E+03  0.17223441671E+03 0.  0.
        -24    2    5    5    0    0  0.23373948996E+02 -0.85558456112E+01  0.46159303793E+03  0.46901656728E+03  0.79302356416E+02 0.  0.
          5    1    3    3  501    0 -0.53599902489E+02 -0.31423167212E+02  0.25468596605E+03  0.26219724691E+03  0.47000000000E+01 0. -1.
        -11    1    4    4    0    0  0.57173353036E+01 -0.35912942548E+02  0.50974701731E+02  0.62616671758E+02  0.00000000000E+00 0.  1.
         12    1    4    4    0    0  0.76132267545E+02 -0.96169301489E+00  0.25743584626E+03  0.26845905079E+03  0.00000000000E+00 0. -1.
         -5    1    5    5    0  502 -0.51623649356E+02  0.76853648386E+02  0.24312495075E+03  0.26019860899E+03  0.47000000000E+01 0.  1.
         11    1    6    6    0    0  0.29304506563E+02  0.22789852372E+02  0.37321938285E+03  0.37506111397E+03  0.00000000000E+00 0. -1.
        -12    1    6    6    0    0 -0.59305575666E+01 -0.31345697983E+02  0.88373655079E+02  0.93955453312E+02  0.00000000000E+00 0.  1.
</event>
<event>
12    1  0.8196217E-002  0.1847819E+03  0.7818608E-02  0.1163357E+00
         21   -1    0    0  503  502  0.00000000000E+00  0.00000000000E+00  0.16337594379E+03  0.16337594379E+03  0.00000000000E+00 0. -1.
         21   -1    0    0  501  503 -0.00000000000E+00 -0.00000000000E+00 -0.21647312676E+03  0.21647312676E+03  0.00000000000E+00 0.  1.
          6    2    1    2  501    0  0.14971404228E+02  0.64079709898E+02  0.99486280696E+01  0.18460787305E+03  0.17219390067E+03 0.  0.
         24    2    3    3    0    0 -0.87908450187E+01 -0.31208065783E+02 -0.46868267520E+01  0.85206206965E+02  0.78656907099E+02 0.  0.
         -6    2    1    2    0  502 -0.14971404228E+02 -0.64079709898E+02 -0.63045811037E+02  0.19524119750E+03  0.17266730654E+03 0.  0.
        -24    2    5    5    0    0 -0.56954678266E+02 -0.57006304381E+02  0.67411071342E+01  0.11335754643E+03  0.79441404144E+02 0.  0.
          5    1    3    3  501    0  0.23762249247E+02  0.95287775681E+02  0.14635454822E+02  0.99401666090E+02  0.47000000000E+01 0. -1.
        -11    1    4    4    0    0  0.25471553928E+01 -0.50623329475E+02  0.17495711345E+02  0.53621911596E+02  0.00000000000E+00 0.  1.
         12    1    4    4    0    0 -0.11338000412E+02  0.19415263692E+02 -0.22182538097E+02  0.31584295369E+02  0.00000000000E+00 0. -1.
         -5    1    5    5    0  502  0.41983274038E+02 -0.70734055176E+01 -0.69786918171E+02  0.81883651069E+02  0.47000000000E+01 0.  1.
         11    1    6    6    0    0 -0.62783137392E+02 -0.76118493565E+01  0.69176317745E+01  0.63620092901E+02  0.00000000000E+00 0. -1.
        -12    1    6    6    0    0  0.58284591256E+01 -0.49394455024E+02 -0.17652464028E+00  0.49737453532E+02  0.00000000000E+00 0.  1.
</event>
<event>
12    1  0.8196217E-002  0.1949016E+03  0.7818608E-02  0.1154236E+00
         21   -1    0    0  503  502  0.00000000000E+00  0.00000000000E+00  0.37064954866E+03  0.37064954866E+03  0.00000000000E+00 0.  1.
         21   -1    0    0  501  503 -0.00000000000E+00 -0.00000000000E+00 -0.15720292727E+03  0.15720292727E+03  0.00000000000E+00 0.  1.
          6    2    1    2  501    0  0.14245304524E+02  0.89355797081E+02 -0.49303448628E+02  0.20104097788E+03  0.17262461460E+03 0.  0.
         24    2    3    3    0    0  0.49015970519E+01 -0.17198633851E+02 -0.46473305434E+02  0.93937050168E+02  0.79652888311E+02 0.  0.
         -6    2    1    2    0  502 -0.14245304524E+02 -0.89355797081E+02  0.26275007002E+03  0.32681149806E+03  0.17199060671E+03 0.  0.
        -24    2    5    5    0    0  0.47651999466E+02 -0.13052568865E+02  0.11313725162E+03  0.14775970581E+03  0.81189964594E+02 0.  0.
          5    1    3    3  501    0  0.93437074723E+01  0.10655443093E+03 -0.28301431942E+01  0.10710392771E+03  0.47000000000E+01 0. -1.
        -13    1    4    4    0    0  0.38078713948E+02  0.87735454417E+01 -0.17585633865E+02  0.42851115201E+02  0.00000000000E+00 0.  1.
         14    1    4    4    0    0 -0.33177116896E+02 -0.25972179293E+02 -0.28887671569E+02  0.51085934967E+02  0.00000000000E+00 0. -1.
         -5    1    5    5    0  502 -0.61897303991E+02 -0.76303228216E+02  0.14961281840E+03  0.17905179225E+03  0.47000000000E+01 0.  1.
         13    1    6    6    0    0 -0.75182319664E+01  0.16414230859E+02  0.68705397045E+02  0.71037893899E+02  0.00000000000E+00 0. -1.
        -14    1    6    6    0    0  0.55170231433E+02 -0.29466799724E+02  0.44431854575E+02  0.76721811913E+02  0.00000000000E+00 0.  1.
</event>
<event>
12    1  0.8196217E-002  0.1852476E+03  0.7818608E-02  0.1162965E+00
         21   -1    0    0  501  502  0.00000000000E+00  0.00000000000E+00  0.93913008150E+02  0.93913008150E+02  0.00000000000E+00 0.  1.
         21   -1    0    0  502  503 -0.00000000000E+00 -0.00000000000E+00 -0.44180523116E+03  0.44180523116E+03  0.00000000000E+00 0. -1.
         -6    2    1    2    0  503 -0.43034843226E+02 -0.53385404491E+02 -0.61910520661E+02  0.19531916010E+03  0.17208911236E+03 0.  0.
        -24    2    3    3    0    0  0.13924041698E+02 -0.19472401215E+01  0.19080971887E+02  0.83641448852E+02  0.80213077466E+02 0.  0.
          6    2    1    2  501    0  0.43034843226E+02  0.53385404491E+02 -0.28598170235E+03  0.34039907921E+03  0.17141761841E+03 0.  0.
         24    2    5    5    0    0  0.79707817512E+01  0.74097623677E+02 -0.27893520068E+03  0.29880307439E+03  0.76970383215E+02 0.  0.
          5    1    5    5  501    0  0.35064061475E+02 -0.20712219186E+02 -0.70465016712E+01  0.41596004814E+02  0.47000000000E+01 0. -1.
        -11    1    6    6    0    0 -0.59438878381E+01  0.30792476796E+02 -0.23085634718E+02  0.38941660984E+02  0.00000000000E+00 0.  1.
         12    1    6    6    0    0  0.13914669589E+02  0.43305146881E+02 -0.25584956596E+03  0.25986141341E+03  0.00000000000E+00 0. -1.
         -5    1    3    3    0  503 -0.56958884924E+02 -0.51438164370E+02 -0.80991492548E+02  0.11167771125E+03  0.47000000000E+01 0.  1.
         11    1    4    4    0    0  0.29864610184E+02  0.22412299118E+02 -0.13724572751E+02  0.39781528256E+02  0.00000000000E+00 0. -1.
        -12    1    4    4    0    0 -0.15940568487E+02 -0.24359539239E+02  0.32805544638E+02  0.43859920596E+02  0.00000000000E+00 0.  1.
</event>
<event>
12    1  0.8196217E-002  0.2529221E+03  0.7818608E-02  0.1111612E+00
         21   -1    0    0  501  502  0.00000000000E+00  0.00000000000E+00  0.95346435790E+02  0.95346435790E+02  0.00000000000E+00 0.  1.
         21   -1    0    0  502  503 -0.00000000000E+00 -0.00000000000E+00 -0.67543825992E+03  0.67543825992E+03  0.00000000000E+00 0. -1.
         -6    2    1    2    0  503 -0.18148753210E+03  0.35047052557E+02 -0.32951888350E+03  0.41539413818E+03  0.17263712014E+03 0.  0.
        -24    2    3    3    0    0 -0.10865891369E+03 -0.11244694283E+02 -0.29057104984E+03  0.32059984916E+03  0.80121942078E+02 0.  0.
          6    2    1    2  501    0  0.18148753210E+03 -0.35047052557E+02 -0.25057294063E+03  0.35539055753E+03  0.17131733597E+03 0.  0.
         24    2    5    5    0    0  0.17453404910E+03 -0.26023229912E+02 -0.12218290853E+03  0.22641044029E+03  0.72067201589E+02 0.  0.
          5    1    5    5  501    0  0.69534830018E+01 -0.90238226450E+01 -0.12839003210E+03  0.12898011724E+03  0.47000000000E+01 0. -1.
        -11    1    6    6    0    0  0.11887072834E+03 -0.20104999824E+02 -0.40091509674E+02  0.12705034522E+03  0.00000000000E+00 0.  1.
         12    1    6    6    0    0  0.55663320762E+02 -0.59182300881E+01 -0.82091398852E+02  0.99360095064E+02  0.00000000000E+00 0. -1.
         -5    1    3    3    0  503 -0.72828618407E+02  0.46291746840E+02 -0.38947833667E+02  0.94794289026E+02  0.47000000000E+01 0.  1.
         11    1    4    4    0    0 -0.10072419659E+03  0.18740790597E+01 -0.15960601785E+03  0.18874044846E+03  0.00000000000E+00 0. -1.
        -12    1    4    4    0    0 -0.79347171067E+01 -0.13118773343E+02 -0.13096503199E+03  0.13185940070E+03  0.00000000000E+00 0.  1.
</event>
<event>
12    1  0.8196217E-002  0.2405898E+03  0.7818608E-02  0.1119754E+00
         21   -1    0    0  501  502  0.00000000000E+00  0.00000000000E+00  0.11430123854E+03  0.11430123854E+03  0.00000000000E+00 0. -1.
         21   -1    0    0  502  503 -0.00000000000E+00 -0.00000000000E+00 -0.82177117600E+03  0.82177117600E+03  0.00000000000E+00 0. -1.
         -6    2    1    2    0  503  0.16450036416E+03 -0.63066602845E+01 -0.64475687981E+03  0.68744339710E+03  0.17253071143E+03 0.  0.
        -24    2    3    3    0    0  0.88541034648E+02 -0.10791527817E+02 -0.16527502140E+03  0.20193863263E+03  0.74211904452E+02 0.  0.
          6    2    1    2  501    0 -0.16450036416E+03  0.63066602845E+01 -0.62713057651E+02  0.24862901744E+03  0.17545175103E+03 0.  0.
         24    2    5    5    0    0 -0.98818554705E+02 -0.66476198602E+02 -0.47834835944E+02  0.14935718799E+03  0.76388522299E+02 0.  0.
          5    1    5    5  501    0 -0.65681809455E+02  0.72782858886E+02 -0.14878221707E+02  0.99271829449E+02  0.47000000000E+01 0. -1.
        -11    1    6    6    0    0 -0.55529772209E+02 -0.68651050659E+02 -0.50316458690E+01  0.88441165858E+02  0.00000000000E+00 0.  1.
         12    1    6    6    0    0 -0.43288782495E+02  0.21748520570E+01 -0.42803190075E+02  0.60916022129E+02  0.00000000000E+00 0. -1.
         -5    1    3    3    0  503  0.75959329511E+02  0.44848675325E+01 -0.47948185841E+03  0.48550476447E+03  0.47000000000E+01 0.  1.
         13    1    4    4    0    0  0.66686855096E+02 -0.40898889135E+02 -0.12129289770E+03  0.14433233459E+03  0.00000000000E+00 0. -1.
        -14    1    4    4    0    0  0.21854179553E+02  0.30107361319E+02 -0.43982123694E+02  0.57606298042E+02  0.00000000000E+00 0.  1.
</event>
<event>
12    1  0.8196217E-002  0.2298292E+03  0.7818608E-02  0.1127257E+00
         21   -1    0    0  503  502  0.00000000000E+00  0.00000000000E+00  0.19535614796E+03  0.19535614796E+03  0.00000000000E+00 0.  1.
         21   -1    0    0  501  503 -0.00000000000E+00 -0.00000000000E+00 -0.53961184608E+03  0.53961184608E+03  0.00000000000E+00 0.  1.
          6    2    1    2  501    0  0.13308891983E+03  0.70848214461E+02 -0.43379771544E+03  0.49091947499E+03  0.17346279982E+03 0.  0.
         24    2    3    3    0    0  0.33534679882E+02  0.86136587626E+02 -0.28844646201E+03  0.31401877425E+03  0.82839257927E+02 0.  0.
         -6    2    1    2    0  502 -0.13308891983E+03 -0.70848214461E+02  0.89542017322E+02  0.24404851906E+03  0.16973442997E+03 0.  0.
        -24    2    5    5    0    0 -0.66974252373E+02 -0.64103412263E+02 -0.11602250052E+02  0.12293330766E+03  0.79894855790E+02 0.  0.
          5    1    3    3  501    0  0.99554239947E+02 -0.15288373165E+02 -0.14535125344E+03  0.17690070074E+03  0.47000000000E+01 0. -1.
        -13    1    4    4    0    0  0.36736378863E+02  0.10010767407E+03 -0.22523378147E+03  0.24920145316E+03  0.00000000000E+00 0.  1.
         14    1    4    4    0    0 -0.32016989809E+01 -0.13971086447E+02 -0.63212680537E+02  0.64817321092E+02  0.00000000000E+00 0. -1.
         -5    1    5    5    0  502 -0.66114667455E+02 -0.67448021988E+01  0.10114426737E+03  0.12111521140E+03  0.47000000000E+01 0.  1.
         11    1    6    6    0    0  0.38852761621E+01 -0.49683907673E+02 -0.84978179014E+01  0.50554910361E+02  0.00000000000E+00 0. -1.
        -12    1    6    6    0    0 -0.70859528535E+02 -0.14419504590E+02 -0.31044321509E+01  0.72378397301E+02  0.00000000000E+00 0.  1.
</event>
<event>
12    1  0.8196217E-002  0.1989493E+03  0.7818608E-02  0.1150701E+00
         21   -1    0    0  501  502  0.00000000000E+00  0.00000000000E+00  0.34613664979E+03  0.34613664979E+03  0.00000000000E+00 0. -1.
         21   -1    0    0  502  503 -0.00000000000E+00 -0.00000000000E+00 -0.14907170998E+03  0.14907170998E+03  0.00000000000E+00 0. -1.
         -6    2    1    2    0  503 -0.45839457647E+02 -0.88901707907E+02 -0.21367347023E+02  0.19975361991E+03  0.17158139644E+03 0.  0.
        -24    2    3    3    0    0 -0.57774004544E+02 -0.12485936331E+03 -0.49051188420E+00  0.15624133847E+03  0.74050111664E+02 0.  0.
          6    2    1    2  501    0  0.45839457647E+02  0.88901707907E+02  0.21843228683E+03  0.29545473986E+03  0.17197694563E+03 0.  0.
         24    2    5    5    0    0  0.13883429252E+02  0.85863127973E+02  0.58022468034E+02  0.13179710733E+03  0.80241163691E+02 0.  0.
          5    1    5    5  501    0  0.31956028395E+02  0.30385799340E+01  0.16040981880E+03  0.16365763253E+03  0.47000000000E+01 0. -1.
        -11    1    6    6    0    0  0.42956492730E+02  0.50286022512E+02  0.54533342705E+02  0.85719483166E+02  0.00000000000E+00 0.  1.
         12    1    6    6    0    0 -0.29073063477E+02  0.35577105461E+02  0.34891253289E+01  0.46077624163E+02  0.00000000000E+00 0. -1.
         -5    1    3    3    0  503  0.11934546897E+02  0.35957655399E+02 -0.20876835139E+02  0.43512281448E+02  0.47000000000E+01 0.  1.
         13    1    4    4    0    0 -0.58150847335E+02 -0.40080260077E+02 -0.82568188911E+01  0.71106422718E+02  0.00000000000E+00 0. -1.
        -14    1    4    4    0    0  0.37684279107E+00 -0.84779103229E+02  0.77663070070E+01  0.85134915747E+02  0.00000000000E+00 0.  1.
</event>
<event>
12    1  0.8196217E-002  0.1905106E+03  0.7818608E-02  0.1158056E+00
         21   -1    0    0  501  502  0.00000000000E+00  0.00000000000E+00  0.62965453150E+02  0.62965453150E+02  0.00000000000E+00 0.  1.
         21   -1    0    0  502  503 -0.00000000000E+00 -0.00000000000E+00 -0.12434956170E+04  0.12434956170E+04  0.00000000000E+00 0.  1.
         -6    2    1    2    0  503  0.34475418873E+02 -0.75148890315E+02 -0.10691433921E+04  0.10859842938E+04  0.17163444623E+03 0.  0.
        -24    2    3    3    0    0  0.43713374395E+02  0.16668414584E+02 -0.43127913509E+03  0.44146225557E+03  0.81844581882E+02 0.  0.
          6    2    1    2  501    0 -0.34475418873E+02  0.75148890315E+02 -0.11138677170E+03  0.22047677637E+03  0.17136827532E+03 0.  0.
         24    2    5    5    0    0  0.24260674125E+02  0.85505700272E+02 -0.10746441820E+03  0.16052123459E+03  0.79490002432E+02 0.  0.
          5    1    5    5  501    0 -0.58736092997E+02 -0.10356809957E+02 -0.39223534957E+01  0.59955541779E+02  0.47000000000E+01 0. -1.
        -13    1    6    6    0    0  0.53041364910E+02  0.45815658705E+02 -0.66836022791E+02  0.96847895778E+02  0.00000000000E+00 0.  1.
         14    1    6    6    0    0 -0.28780690786E+02  0.39690041566E+02 -0.40628395410E+02  0.63673338810E+02  0.00000000000E+00 0. -1.
         -5    1    3    3    0  503 -0.92379555221E+01 -0.91817304899E+02 -0.63786425703E+03  0.64452203818E+03  0.47000000000E+01 0.  1.
         13    1    4    4    0    0  0.49421630320E+02 -0.16864747202E+02 -0.16622939418E+03  0.17423871192E+03  0.00000000000E+00 0. -1.
        -14    1    4    4    0    0 -0.57082559248E+01  0.33533161786E+02 -0.26504974091E+03  0.26722354366E+03  0.00000000000E+00 0.  1.
</event>
<event>
12    1  0.8196217E-002  0.2610941E+03  0.7818608E-02  0.1106512E+00
         21   -1    0    0  501  502  0.00000000000E+00  0.00000000000E+00  0.26477158443E+03  0.26477158443E+03  0.00000000000E+00 0.  1.
         21   -1    0    0  502  503 -0.00000000000E+00 -0.00000000000E+00 -0.25794297020E+03  0.25794297020E+03  0.00000000000E+00 0. -1.
         -6    2    1    2    0  503  0.11349725171E+03 -0.16028439077E+03 -0.95724169087E+01  0.26126951988E+03  0.17203900367E+03 0.  0.
        -24    2    3    3    0    0  0.14597304166E+03 -0.10507267342E+03 -0.13483077821E+02  0.19692362697E+03  0.79048882857E+02 0.  0.
          6    2    1    2  501    0 -0.11349725171E+03  0.16028439077E+03  0.16401031140E+02  0.26144503475E+03  0.17178998896E+03 0.  0.
         24    2    5    5    0    0 -0.90082514626E+02  0.18690731352E+03 -0.16239164241E+01  0.22139483296E+03  0.77225848455E+02 0.  0.
          5    1    5    5  501    0 -0.23414737081E+02 -0.26622922757E+02  0.18024947564E+02  0.40050201790E+02  0.47000000000E+01 0. -1.
        -13    1    6    6    0    0  0.66301740748E+01  0.66953081560E+02  0.96608904055E+00  0.67287500078E+02  0.00000000000E+00 0.  1.
         14    1    6    6    0    0 -0.96712688700E+02  0.11995423196E+03 -0.25900054647E+01  0.15410733289E+03  0.00000000000E+00 0. -1.
         -5    1    3    3    0  503 -0.32475789951E+02 -0.55211717349E+02  0.39106609119E+01  0.64345892910E+02  0.47000000000E+01 0.  1.
         13    1    4    4    0    0 -0.38872613059E+01  0.17472370641E+01 -0.12159350533E+02  0.12884620414E+02  0.00000000000E+00 0. -1.
        -14    1    4    4    0    0  0.14986030296E+03 -0.10681991048E+03 -0.13237272873E+01  0.18403900655E+03  0.00000000000E+00 0.  1.
</event>
<event>
12    1  0.8196217E-002  0.2678112E+03  0.7818608E-02  0.1102643E+00
         21   -1    0    0  501  502  0.00000000000E+00  0.00000000000E+00  0.27841026121E+03  0.27841026121E+03  0.00000000000E+00 0.  1.
         21   -1    0    0  502  503 -0.00000000000E+00 -0.00000000000E+00 -0.53591582763E+03  0.53591582763E+03  0.00000000000E+00 0. -1.
         -6    2    1    2    0  503  0.16526140245E+03  0.12099422897E+03 -0.42244591536E+03  0.49979759805E+03  0.17142389865E+03 0.  0.
        -24    2    3    3    0    0  0.13429252478E+03  0.11581946519E+03 -0.42563905324E+03  0.46788935940E+03  0.79392809899E+02 0.  0.
          6    2    1    2  501    0 -0.16526140245E+03 -0.12099422897E+03  0.16494034894E+03  0.31452849079E+03  0.17254540918E+03 0.  0.
         24    2    5    5    0    0 -0.80719330602E+02 -0.63853937741E+01  0.11879587679E+03  0.16474882152E+03  0.80457008785E+02 0.  0.
          5    1    5    5  501    0 -0.84542071844E+02 -0.11460883520E+03  0.46144472147E+02  0.14977966927E+03  0.47000000000E+01 0. -1.
        -11    1    6    6    0    0 -0.47525572203E+02 -0.37504710902E+02  0.96891753215E+02  0.11425101835E+03  0.00000000000E+00 0.  1.
         12    1    6    6    0    0 -0.33193758399E+02  0.31119317128E+02  0.21904123579E+02  0.50497803170E+02  0.00000000000E+00 0. -1.
         -5    1    3    3    0  503  0.30968877668E+02  0.51747637805E+01  0.31931378832E+01  0.31908238650E+02  0.47000000000E+01 0.  1.
         11    1    4    4    0    0  0.10481120104E+03  0.39920352121E+02 -0.26620283256E+03  0.28886496921E+03  0.00000000000E+00 0. -1.
        -12    1    4    4    0    0  0.29481323734E+02  0.75899113071E+02 -0.15943622069E+03  0.17902439019E+03  0.00000000000E+00 0.  1.
</event>
<event>
12    1  0.8196217E-002  0.1802500E+03  0.7818608E-02  0.1167721E+00
         21   -1    0    0  503  502  0.00000000000E+00  0.00000000000E+00  0.11354896075E+03  0.11354896075E+03  0.00000000000E+00 0.  1.
         21   -1    0    0  501  503 -0.00000000000E+00 -0.00000000000E+00 -0.52539541561E+03  0.52539541561E+03  0.00000000000E+00 0.  1.
          6    2    1    2  501    0 -0.52938211952E+02 -0.13251635023E+02 -0.42218773288E+03  0.45905612736E+03  0.17179052988E+03 0.  0.
         24    2    3    3    0    0 -0.81691796296E+01 -0.39907441520E+02 -0.38512576127E+03  0.39494311764E+03  0.77452403411E+02 0.  0.
         -6    2    1    2    0  502  0.52938211952E+02  0.13251635023E+02  0.10341278017E+02  0.17988824901E+03  0.17109874337E+03 0.  0.
        -24    2    5    5    0    0 -0.38223933858E+01  0.33655202485E+02  0.56863916724E+02  0.10356972048E+03  0.79661148814E+02 0.  0.
          5    1    3    3  501    0 -0.44769032322E+02  0.26655806497E+02 -0.37061971605E+02  0.64113009712E+02  0.47000000000E+01 0. -1.
        -13    1    4    4    0    0  0.19008061848E+01  0.22801008422E+02 -0.13218178437E+03  0.13414739345E+03  0.00000000000E+00 0.  1.
         14    1    4    4    0    0 -0.10069985814E+02 -0.62708449943E+02 -0.25294397690E+03  0.26079572419E+03  0.00000000000E+00 0. -1.
         -5    1    5    5    0  502  0.56760605338E+02 -0.20403567462E+02 -0.46522638708E+02  0.76318528522E+02  0.47000000000E+01 0.  1.
         11    1    6    6    0    0 -0.21275019425E+01 -0.15401082194E+01 -0.19390635192E+02  0.19567701219E+02  0.00000000000E+00 0. -1.
        -12    1    6    6    0    0 -0.16948914433E+01  0.35195310705E+02  0.76254551916E+02  0.84002019265E+02  0.00000000000E+00 0.  1.
</event>
<event>
12    1  0.8196217E-002  0.2107850E+03  0.7818608E-02  0.1141320E+00
         21   -1    0    0  503  502  0.00000000000E+00  0.00000000000E+00  0.26793529309E+03  0.26793529309E+03  0.00000000000E+00 0. -1.
         21   -1    0    0  501  503 -0.00000000000E+00 -0.00000000000E+00 -0.17537022132E+03  0.17537022132E+03  0.00000000000E+00 0. -1.
          6    2    1    2  501    0  0.84821350828E+02 -0.88004481044E+02 -0.94980564295E+01  0.20911072081E+03  0.16940374919E+03 0.  0.
         24    2    3    3    0    0  0.22200100126E+02 -0.73148044013E+02  0.51054530463E+02  0.12061868422E+03  0.78094949343E+02 0.  0.
         -6    2    1    2    0  502 -0.84821350828E+02  0.88004481044E+02  0.10206312820E+03  0.23419479361E+03  0.17172905687E+03 0.  0.
        -24    2    5    5    0    0 -0.16445145227E+02  0.10330093909E+03  0.32438480175E+02  0.13530612523E+03  0.79460466342E+02 0.  0.
          5    1    3    3  501    0  0.62621250702E+02 -0.14856437031E+02 -0.60552586892E+02  0.88492036591E+02  0.47000000000E+01 0. -1.
        -13    1    4    4    0    0 -0.19978866215E+01 -0.81049039353E+02  0.26615147240E+02  0.85330559552E+02  0.00000000000E+00 0.  1.
         14    1    4    4    0    0  0.24197986748E+02  0.79009953396E+01  0.24439383223E+02  0.35288124664E+02  0.00000000000E+00 0. -1.
         -5    1    5    5    0  502 -0.68376205601E+02 -0.15296458042E+02  0.69624648021E+02  0.98888668375E+02  0.47000000000E+01 0.  1.
         11    1    6    6    0    0  0.83304194380E+01  0.47183341347E+02  0.52202606120E+02  0.70857432034E+02  0.00000000000E+00 0. -1.
        -12    1    6    6    0    0 -0.24775564665E+02  0.56117597739E+02 -0.19764125945E+02  0.64448693197E+02  0.00000000000E+00 0.  1.
</event>
<event>
12    1  0.8196217E-002  0.4268732E+03  0.7818608E-02  0.1035418E+00
         21   -1    0    0  503  502  0.00000000000E+00  0.00000000000E+00  0.40964406298E+03  0.40964406298E+03  0.00000000000E+00 0. -1.
         21   -1    0    0  501  503 -0.00000000000E+00 -0.00000000000E+00 -0.43772846427E+03  0.43772846427E+03  0.00000000000E+00 0.  1.
          6    2    1    2  501    0  0.15011592264E+02  0.38258430931E+03 -0.49297697202E+01  0.42690162354E+03  0.18874477983E+03 0.  0.
         24    2    3    3    0    0  0.16444049751E+02  0.39450580960E+03 -0.24081020212E+02  0.40381408363E+03  0.81121378348E+02 0.  0.
         -6    2    1    2    0  502 -0.15011592264E+02 -0.38258430931E+03 -0.23154631574E+02  0.42047090371E+03  0.17223107232E+03 0.  0.
        -24    2    5    5    0    0 -0.25088777839E+02 -0.90828526683E+02  0.19147778168E+02  0.12545468342E+03  0.80578980820E+02 0.  0.
          5    1    3    3  501    0 -0.14324574878E+01 -0.11921500285E+02  0.19151250492E+02  0.23087539906E+02  0.47000000000E+01 0. -1.
        -13    1    4    4    0    0  0.31328550314E+02  0.68927199193E+02 -0.18073055913E+02  0.77840042416E+02  0.00000000000E+00 0.  1.
         14    1    4    4    0    0 -0.14884500563E+02  0.32557861041E+03 -0.60079642985E+01  0.32597404121E+03  0.00000000000E+00 0. -1.
         -5    1    5    5    0  502  0.10077185575E+02 -0.29175578263E+03 -0.42302409742E+02  0.29501622030E+03  0.47000000000E+01 0.  1.
         13    1    6    6    0    0  0.27719577307E+02 -0.19607563441E+02 -0.29439674737E+01  0.34080763704E+02  0.00000000000E+00 0. -1.
        -14    1    6    6    0    0 -0.52808355146E+02 -0.71220963242E+02  0.22091745642E+02  0.91373919714E+02  0.00000000000E+00 0.  1.
</event>
<event>
12    1  0.8196217E-002  0.1667605E+03  0.7818608E-02  0.1184722E+00
         21   -1    0    0  503  502  0.00000000000E+00  0.00000000000E+00  0.17217849158E+03  0.17217849158E+03  0.00000000000E+00 0.  1.
         21   -1    0    0  501  503 -0.00000000000E+00 -0.00000000000E+00 -0.34405380371E+03  0.34405380371E+03  0.00000000000E+00 0.  1.
          6    2    1    2  501    0 -0.40773342620E+01 -0.25625919426E+02 -0.27841378168E+03  0.31834467971E+03  0.15217026275E+03 0.  0.
         24    2    3    3    0    0 -0.72463066523E+01 -0.60395189131E+02 -0.12060044365E+03  0.15664717149E+03  0.79333356775E+02 0.  0.
         -6    2    1    2    0  502  0.40773342620E+01  0.25625919426E+02  0.10653846955E+03  0.19788761558E+03  0.16472932497E+03 0.  0.
        -24    2    5    5    0    0  0.22214390019E+02  0.39591072277E+02  0.11548386382E+01  0.89944213974E+02  0.77638237018E+02 0.  0.
          5    1    3    3  501    0  0.31689723904E+01  0.34769269705E+02 -0.15781333803E+03  0.16169750822E+03  0.47000000000E+01 0. -1.
        -13    1    4    4    0    0  0.90530376448E+00  0.99247598463E+01 -0.67300466694E+02  0.68034353456E+02  0.00000000000E+00 0.  1.
         14    1    4    4    0    0 -0.81516104168E+01 -0.70319948977E+02 -0.53299976956E+02  0.88612818035E+02  0.00000000000E+00 0. -1.
         -5    1    5    5    0  502 -0.18137055757E+02 -0.13965152851E+02  0.10538363091E+03  0.10794340160E+03  0.47000000000E+01 0.  1.
         11    1    6    6    0    0 -0.23508188587E+02 -0.43638778950E+01 -0.93182649234E+01  0.25661418942E+02  0.00000000000E+00 0. -1.
        -12    1    6    6    0    0  0.45722578606E+02  0.43954950172E+02  0.10473103562E+02  0.64282795033E+02  0.00000000000E+00 0.  1.
</event>
<event>
12    1  0.8196217E-002  0.1727169E+03  0.7818608E-02  0.1176935E+00
         21   -1    0    0  501  502  0.00000000000E+00  0.00000000000E+00  0.51074500014E+02  0.51074500014E+02  0.00000000000E+00 0. -1.
         21   -1    0    0  502  503 -0.00000000000E+00 -0.00000000000E+00 -0.56145308947E+03  0.56145308947E+03  0.00000000000E+00 0. -1.
         -6    2    1    2    0  503 -0.31518109588E+02 -0.14250301505E+02 -0.26607842023E+03  0.31333916306E+03  0.16182472946E+03 0.  0.
        -24    2    3    3    0    0 -0.39545026508E+02 -0.11247045560E+02 -0.60912838633E+02  0.10794087481E+03  0.79060441362E+02 0.  0.
          6    2    1    2  501    0  0.31518109588E+02  0.14250301505E+02 -0.24430016922E+03  0.29918842643E+03  0.16921784628E+03 0.  0.
         24    2    5    5    0    0  0.50326810339E+02 -0.42363324035E+02 -0.12214667989E+03  0.16316477121E+03  0.85880685232E+02 0.  0.
          5    1    5    5  501    0 -0.18808700751E+02  0.56613625540E+02 -0.12215348933E+03  0.13602365521E+03  0.47000000000E+01 0. -1.
        -13    1    6    6    0    0  0.13772671014E+02  0.22056105210E+02 -0.82085954104E+01  0.27267916725E+02  0.00000000000E+00 0.  1.
         14    1    6    6    0    0  0.36554139325E+02 -0.64419429245E+02 -0.11393808448E+03  0.13589685449E+03  0.00000000000E+00 0. -1.
         -5    1    3    3    0  503  0.80269169202E+01 -0.30032559450E+01 -0.20516558160E+03  0.20539828825E+03  0.47000000000E+01 0.  1.
         11    1    4    4    0    0  0.12625691649E+02  0.17611674671E+02 -0.38629056466E+02  0.44292021604E+02  0.00000000000E+00 0. -1.
        -12    1    4    4    0    0 -0.52170718157E+02 -0.28858720231E+02 -0.22283782166E+02  0.63648853203E+02  0.00000000000E+00 0.  1.
</event>
<event>
12    1  0.8196217E-002  0.1900563E+03  0.7818608E-02  0.1158692E+00
         21   -1    0    0  501  502  0.00000000000E+00  0.00000000000E+00  0.32569314305E+03  0.32569314305E+03  0.00000000000E+00 0.  1.
         21   -1    0    0  502  503 -0.00000000000E+00 -0.00000000000E+00 -0.11469819136E+03  0.11469819136E+03  0.00000000000E+00 0. -1.
         -6    2    1    2    0  503 -0.51182482494E+02  0.61221469799E+02  0.61465050623E+02  0.19856375048E+03  0.17111953623E+03 0.  0.
        -24    2    3    3    0    0  0.56851000291E+00  0.27228174442E+02 -0.28682321639E+02  0.89099838259E+02  0.79839895517E+02 0.  0.
          6    2    1    2  501    0  0.51182482494E+02 -0.61221469799E+02  0.14952990106E+03  0.24182758392E+03  0.17249253362E+03 0.  0.
         24    2    5    5    0    0 -0.33156782716E+02 -0.77891354989E+01  0.92322471699E+02  0.12666289324E+03  0.79749651237E+02 0.  0.
          5    1    5    5  501    0  0.84339265210E+02 -0.53432334300E+02  0.57207429362E+02  0.11516469068E+03  0.47000000000E+01 0. -1.
        -11    1    6    6    0    0 -0.13964934547E+02  0.35499564061E+02  0.51849293398E+02  0.64370705071E+02  0.00000000000E+00 0.  1.
         12    1    6    6    0    0 -0.19191848169E+02 -0.43288699560E+02  0.40473178301E+02  0.62292188174E+02  0.00000000000E+00 0. -1.
         -5    1    3    3    0  503 -0.51750992497E+02  0.33993295357E+02  0.90147372261E+02  0.10946391222E+03  0.47000000000E+01 0.  1.
         13    1    4    4    0    0  0.39358014329E+02  0.12380457143E+02 -0.22833089914E+02  0.47155901073E+02  0.00000000000E+00 0. -1.
        -14    1    4    4    0    0 -0.38789504326E+02  0.14847717299E+02 -0.58492317244E+01  0.41943937186E+02  0.00000000000E+00 0.  1.
</event>
<event>
12    1  0.8196217E-002  0.2153471E+03  0.7818608E-02  0.1140719E+00
         21   -1    0    0  501  502  0.00000000000E+00  0.00000000000E+00  0.84180539117E+03  0.84180539117E+03  0.00000000000E+00 0.  1.
         21   -1    0    0  502  503 -0.00000000000E+00 -0.00000000000E+00 -0.60263458273E+02  0.60263458273E+02  0.00000000000E+00 0. -1.
         -6    2    1    2    0  503  0.10722665634E+03 -0.69057400214E+02  0.20011590718E+03  0.28204417511E+03  0.15243378909E+03 0.  0.
        -24    2    3    3    0    0  0.57546957852E+02 -0.14545353517E+02  0.39696352802E+02  0.10541983052E+03  0.77552050741E+02 0.  0.
          6    2    1    2  501    0 -0.10722665634E+03  0.69057400214E+02  0.58142602572E+03  0.62002467433E+03  0.17351626160E+03 0.  0.
         24    2    5    5    0    0 -0.11069118105E+03  0.10635387153E+03  0.51954599205E+03  0.54753841169E+03  0.79414047052E+02 0.  0.
          5    1    5    5  501    0  0.34645247116E+01 -0.37296471321E+02  0.61880033670E+02  0.72486262640E+02  0.47000000000E+01 0. -1.
        -11    1    6    6    0    0 -0.28046725741E+01 -0.97910437540E+01  0.72640900684E+02  0.73351422469E+02  0.00000000000E+00 0.  1.
         12    1    6    6    0    0 -0.10788650848E+03  0.11614491529E+03  0.44690509137E+03  0.47418698923E+03  0.00000000000E+00 0. -1.
         -5    1    3    3    0  503  0.49679698490E+02 -0.54512046696E+02  0.16041955437E+03  0.17662434459E+03  0.47000000000E+01 0.  1.
         13    1    4    4    0    0  0.61966048814E+02  0.18216499744E+02  0.25422330839E+02  0.69411288518E+02  0.00000000000E+00 0. -1.
        -14    1    4    4    0    0 -0.44190909619E+01 -0.32761853261E+02  0.14274021964E+02  0.36008542001E+02  0.00000000000E+00 0.  1.
</event>
<event>
12    1  0.8196217E-002  0.1929309E+03  0.7818608E-02  0.1155959E+00
         21   -1    0    0  503  502  0.00000000000E+00  0.00000000000E+00  0.14611150653E+03  0.14611150653E+03  0.00000000000E+00 0. -1.
         21   -1    0    0  501  503 -0.00000000000E+00 -0.00000000000E+00 -0.12763396245E+04  0.12763396245E+04  0.00000000000E+00 0. -1.
          6    2    1    2  501    0 -0.42092189147E+02  0.75182222748E+02 -0.12017779165E+04  0.12171657635E+04  0.17262159886E+03 0.  0.
         24    2    3    3    0    0  0.38937169203E+02  0.47936665612E+02 -0.51052909227E+03  0.52063500021E+03  0.81282361748E+02 0.  0.
         -6    2    1    2    0  502  0.42092189147E+02 -0.75182222748E+02  0.71549798501E+02  0.20528536751E+03  0.17204240594E+03 0.  0.
        -24    2    5    5    0    0  0.46861509482E+02 -0.11294493279E+03  0.30475458699E+02  0.14908963745E+03  0.79664342708E+02 0.  0.
          5    1    3    3  501    0 -0.81029358350E+02  0.27245557136E+02 -0.69124882418E+03  0.69653076331E+03  0.47000000000E+01 0. -1.
        -11    1    4    4    0    0  0.29371753512E+01  0.45915886112E+02 -0.12119053944E+03  0.12963040711E+03  0.00000000000E+00 0.  1.
         12    1    4    4    0    0  0.35999993852E+02  0.20207794995E+01 -0.38933855283E+03  0.39100459311E+03  0.00000000000E+00 0. -1.
         -5    1    5    5    0  502 -0.47693203351E+01  0.37762710040E+02  0.41074339802E+02  0.56195730053E+02  0.47000000000E+01 0.  1.
         11    1    6    6    0    0  0.62571362465E+02 -0.83413826475E+02  0.43779187070E+02  0.11309137486E+03  0.00000000000E+00 0. -1.
        -12    1    6    6    0    0 -0.15709852983E+02 -0.29531106313E+02 -0.13303728370E+02  0.35998262589E+02  0.00000000000E+00 0.  1.
</event>
<event>
12    1  0.8196217E-002  0.2336065E+03  0.7818608E-02  0.1124300E+00
         21   -1    0    0  501  502  0.00000000000E+00  0.00000000000E+00  0.20629462708E+03  0.20629462708E+03  0.00000000000E+00 0. -1.
         21   -1    0    0  502  503 -0.00000000000E+00 -0.00000000000E+00 -0.26587466980E+03  0.26587466980E+03  0.00000000000E+00 0. -1.
         -6    2    1    2    0  503 -0.10106572875E+03  0.11959813058E+03 -0.52622608630E+02  0.23946006524E+03  0.17336086508E+03 0.  0.
        -24    2    3    3    0    0 -0.72957519417E+02  0.10097495013E+03 -0.10073227876E+03  0.18052344978E+03  0.83204469486E+02 0.  0.
          6    2    1    2  501    0  0.10106572875E+03 -0.11959813058E+03 -0.69574340887E+01  0.23270923163E+03  0.17200926206E+03 0.  0.
         24    2    5    5    0    0  0.13214171412E+02 -0.10383387104E+03  0.31129242566E+02  0.13555423720E+03  0.80310860896E+02 0.  0.
          5    1    5    5  501    0  0.87851557335E+02 -0.15764259533E+02 -0.38086676654E+02  0.97154994434E+02  0.47000000000E+01 0. -1.
        -11    1    6    6    0    0 -0.23214330582E+02 -0.39785516794E+02  0.40426143823E+02  0.61286748938E+02  0.00000000000E+00 0.  1.
         12    1    6    6    0    0  0.36428501994E+02 -0.64048354249E+02 -0.92969012575E+01  0.74267488261E+02  0.00000000000E+00 0. -1.
         -5    1    3    3    0  503 -0.28108209330E+02  0.18623180443E+02  0.48109670133E+02  0.58936615460E+02  0.47000000000E+01 0.  1.
         13    1    4    4    0    0 -0.28908978366E+01  0.17380858122E+02 -0.62509700912E+02  0.64945471185E+02  0.00000000000E+00 0. -1.
        -14    1    4    4    0    0 -0.70066621580E+02  0.83594092012E+02 -0.38222577851E+02  0.11557797860E+03  0.00000000000E+00 0.  1.
</event>
<event>
12    1  0.8196217E-002  0.4413591E+03  0.7818608E-02  0.1030347E+00
         21   -1    0    0  503  502  0.00000000000E+00  0.00000000000E+00  0.12864106251E+04  0.12864106251E+04  0.00000000000E+00 0. -1.
         21   -1    0    0  501  503 -0.00000000000E+00 -0.00000000000E+00 -0.23376631161E+03  0.23376631161E+03  0.00000000000E+00 0.  1.
          6    2    1    2  501    0 -0.18041359317E+03  0.36437680102E+03  0.97770684048E+03  0.10727108389E+04  0.17169263296E+03 0.  0.
         24    2    3    3    0    0 -0.14070577804E+03  0.33584266437E+03  0.72552205966E+03  0.81578641183E+03  0.80850476167E+02 0.  0.
         -6    2    1    2    0  502  0.18041359317E+03 -0.36437680102E+03  0.74937472988E+02  0.44746609781E+03  0.17114545308E+03 0.  0.
        -24    2    5    5    0    0  0.21665919406E+02 -0.64782162885E+02  0.46913214720E+02  0.10722321372E+03  0.68042833222E+02 0.  0.
          5    1    3    3  501    0 -0.39707815132E+02  0.28534136650E+02  0.25218478083E+03  0.25692442706E+03  0.47000000000E+01 0. -1.
        -13    1    4    4    0    0 -0.21581433259E+02  0.61967081366E+01  0.46265210950E+02  0.51425938956E+02  0.00000000000E+00 0.  1.
         14    1    4    4    0    0 -0.11912434478E+03  0.32964595623E+03  0.67925684871E+03  0.76436047287E+03  0.00000000000E+00 0. -1.
         -5    1    5    5    0  502  0.15874767376E+03 -0.29959463813E+03  0.28024258268E+02  0.34024288409E+03  0.47000000000E+01 0.  1.
         11    1    6    6    0    0  0.86453309712E+01  0.13894589563E+02  0.48792412510E+01  0.17076544203E+02  0.00000000000E+00 0. -1.
        -12    1    6    6    0    0  0.13020588435E+02 -0.78676752448E+02  0.42033973469E+02  0.90146669514E+02  0.00000000000E+00 0.  1.
</event>
<event>
12    1  0.8196217E-002  0.1918365E+03  0.7818608E-02  0.1158094E+00
         21   -1    0    0  503  502  0.00000000000E+00  0.00000000000E+00  0.17585219583E+03  0.17585219583E+03  0.00000000000E+00 0.  1.
         21   -1    0    0  501  503 -0.00000000000E+00 -0.00000000000E+00 -0.49341702632E+03  0.49341702632E+03  0.00000000000E+00 0.  1.
          6    2    1    2  501    0  0.56036072632E+02 -0.50899169871E+02 -0.41640843204E+03  0.45847269893E+03  0.17626816633E+03 0.  0.
         24    2    3    3    0    0  0.51570354038E+02 -0.83163414217E+02 -0.17694228343E+03  0.21675581818E+03  0.78095186616E+02 0.  0.
         -6    2    1    2    0  502 -0.56036072632E+02  0.50899169871E+02  0.98843601550E+02  0.21079652322E+03  0.17010099854E+03 0.  0.
        -24    2    5    5    0    0 -0.28115131499E+02 -0.33043411803E+02  0.76677394033E+02  0.11947639002E+03  0.80702275886E+02 0.  0.
          5    1    3    3  501    0  0.44657185938E+01  0.32264244346E+02 -0.23946614862E+03  0.24171688075E+03  0.47000000000E+01 0. -1.
        -13    1    4    4    0    0  0.71356539378E+02 -0.52113190110E+02 -0.12660845705E+03  0.15439314004E+03  0.00000000000E+00 0.  1.
         14    1    4    4    0    0 -0.19786185339E+02 -0.31050224107E+02 -0.50333826378E+02  0.62362678143E+02  0.00000000000E+00 0. -1.
         -5    1    5    5    0  502 -0.27920941133E+02  0.83942581674E+02  0.22166207516E+02  0.91320133199E+02  0.47000000000E+01 0.  1.
         13    1    6    6    0    0  0.19497330517E+02 -0.36408766782E+02  0.21646728682E+02  0.46629658572E+02  0.00000000000E+00 0. -1.
        -14    1    6    6    0    0 -0.47612462016E+02  0.33653549791E+01  0.55030665351E+02  0.72846731446E+02  0.00000000000E+00 0.  1.
</event>
<event>
12    1  0.8196217E-002  0.2280958E+03  0.7818608E-02  0.1128391E+00
         21   -1    0    0  501  502  0.00000000000E+00  0.00000000000E+00  0.97960732747E+03  0.97960732747E+03  0.00000000000E+00 0. -1.
         21   -1    0    0  502  503 -0.00000000000E+00 -0.00000000000E+00 -0.57324665703E+02  0.57324665703E+02  0.00000000000E+00 0.  1.
         -6    2    1    2    0  503 -0.12781194262E+03 -0.75706828888E+02  0.30998633548E+03  0.38352974598E+03  0.17010620579E+03 0.  0.
        -24    2    3    3    0    0 -0.67391545734E+02  0.23440685703E+02  0.17936804527E+03  0.20870388478E+03  0.79330509087E+02 0.  0.
          6    2    1    2  501    0  0.12781194262E+03  0.75706828888E+02  0.61229632628E+03  0.65340224719E+03  0.17309040655E+03 0.  0.
         24    2    5    5    0    0  0.93277473852E+02  0.93365868419E+02  0.58633027429E+03  0.60648959361E+03  0.81415994086E+02 0.  0.
          5    1    5    5  501    0  0.34534468766E+02 -0.17659039532E+02  0.25966051997E+02  0.46912653586E+02  0.47000000000E+01 0. -1.
        -11    1    6    6    0    0  0.17555713993E+02  0.35930346056E+02  0.63150319967E+02  0.74747279372E+02  0.00000000000E+00 0.  1.
         12    1    6    6    0    0  0.75721759859E+02  0.57435522364E+02  0.52317995432E+03  0.53174231424E+03  0.00000000000E+00 0. -1.
         -5    1    3    3    0  503 -0.60420396884E+02 -0.99147514591E+02  0.13061829021E+03  0.17482586120E+03  0.47000000000E+01 0.  1.
         13    1    4    4    0    0 -0.17451950680E+02 -0.29051742663E+02  0.65300876448E+02  0.73571589620E+02  0.00000000000E+00 0. -1.
        -14    1    4    4    0    0 -0.49939595054E+02  0.52492428365E+02  0.11406716883E+03  0.13513229516E+03  0.00000000000E+00 0.  1.
</event>
<event>
12    1  0.8196217E-002  0.2330687E+03  0.7818608E-02  0.1125261E+00
         21   -1    0    0  503  502  0.00000000000E+00  0.00000000000E+00  0.44619184829E+03  0.44619184829E+03  0.00000000000E+00 0. -1.
         21   -1    0    0  501  503 -0.00000000000E+00 -0.00000000000E+00 -0.35674093827E+03  0.35674093827E+03  0.00000000000E+00 0. -1.
          6    2    1    2  501    0 -0.13903918587E+03  0.66320581730E+02 -0.28253757298E+03  0.36626289773E+03  0.17490201641E+03 0.  0.
         24    2    3    3    0    0 -0.15314292235E+03  0.89961230116E+02 -0.27508865736E+03  0.33736009540E+03  0.81192899744E+02 0.  0.
         -6    2    1    2    0  502  0.13903918587E+03 -0.66320581730E+02  0.37198848300E+03  0.43666988883E+03  0.16904095822E+03 0.  0.
        -24    2    5    5    0    0  0.15914708618E+03 -0.83204404330E+02  0.28578080030E+03  0.34642995489E+03  0.78053058130E+02 0.  0.
          5    1    3    3  501    0  0.14103736483E+02 -0.23640648386E+02 -0.74489156182E+01  0.28902802334E+02  0.47000000000E+01 0. -1.
        -11    1    4    4    0    0 -0.15754358210E+03  0.65954196279E+02 -0.23719678789E+03  0.29228796153E+03  0.00000000000E+00 0.  1.
         12    1    4    4    0    0  0.44006597489E+01  0.24007033837E+02 -0.37891869471E+02  0.45072133874E+02  0.00000000000E+00 0. -1.
         -5    1    5    5    0  502 -0.20107900317E+02  0.16883822600E+02  0.86207682695E+02  0.90239933934E+02  0.47000000000E+01 0.  1.
         11    1    6    6    0    0  0.36720230246E+02 -0.40667451551E+02  0.14533561432E+03  0.15532114381E+03  0.00000000000E+00 0. -1.
        -12    1    6    6    0    0  0.12242685594E+03 -0.42536952779E+02  0.14044518598E+03  0.19110881108E+03  0.00000000000E+00 0.  1.
</event>
<event>
12    1  0.8196217E-002  0.1913796E+03  0.7818608E-02  0.1157978E+00
         21   -1    0    0  503  502  0.00000000000E+00  0.00000000000E+00  0.63036426963E+03  0.63036426963E+03  0.00000000000E+00 0. -1.
         21   -1    0    0  501  503 -0.00000000000E+00 -0.00000000000E+00 -0.70623625063E+02  0.70623625063E+02  0.00000000000E+00 0. -1.
          6    2    1    2  501    0 -0.69222929263E+02  0.27065471348E+02  0.12844772734E+03  0.23048856858E+03  0.17635704668E+03 0.  0.
         24    2    3    3    0    0 -0.30342726530E+00  0.51798520185E+02  0.12645799711E+03  0.15708781595E+03  0.77471143819E+02 0.  0.
         -6    2    1    2    0  502  0.69222929263E+02 -0.27065471348E+02  0.43129291723E+03  0.47049932611E+03  0.17271850435E+03 0.  0.
        -24    2    5    5    0    0  0.94594879325E+02 -0.17093578744E+02  0.42363385609E+03  0.44179521997E+03  0.80479753530E+02 0.  0.
          5    1    3    3  501    0 -0.68919501998E+02 -0.24733048837E+02  0.19897302262E+01  0.73400752631E+02  0.47000000000E+01 0. -1.
        -11    1    4    4    0    0 -0.22715130244E+02  0.32755144451E+02  0.12071062607E+03  0.12712172071E+03  0.00000000000E+00 0.  1.
         12    1    4    4    0    0  0.22411702979E+02  0.19043375734E+02  0.57473710368E+01  0.29966095235E+02  0.00000000000E+00 0. -1.
         -5    1    5    5    0  502 -0.25371950062E+02 -0.99718926033E+01  0.76590611325E+01  0.28704106143E+02  0.47000000000E+01 0.  1.
         13    1    6    6    0    0  0.28861368666E+02  0.29148912683E+02  0.19986788671E+03  0.20403384486E+03  0.00000000000E+00 0. -1.
        -14    1    6    6    0    0  0.65733510658E+02 -0.46242491428E+02  0.22376596939E+03  0.23776137511E+03  0.00000000000E+00 0.  1.
</event>
<event>
12    1  0.8196217E-002  0.2002188E+03  0.7818608E-02  0.1149712E+00
         21   -1    0    0  501  502  0.00000000000E+00  0.00000000000E+00  0.32541341979E+02  0.32541341979E+02  0.00000000000E+00 0.  1.
         21   -1    0    0  502  503 -0.00000000000E+00 -0.00000000000E+00 -0.13106331428E+04  0.13106331428E+04  0.00000000000E+00 0.  1.
         -6    2    1    2    0  503  0.96698428898E+02  0.37523739804E+02 -0.80727206237E+03  0.83155078908E+03  0.17038167434E+03 0.  0.
        -24    2    3    3    0    0  0.39691160262E+02 -0.32655913320E+02 -0.26117949129E+03  0.27800386373E+03  0.80184940596E+02 0.  0.
          6    2    1    2  501    0 -0.96698428898E+02 -0.37523739804E+02 -0.47081973842E+03  0.51162369566E+03  0.17125700766E+03 0.  0.
         24    2    5    5    0    0  0.21549206344E+02 -0.17293672985E+02 -0.18349966822E+03  0.20022897575E+03  0.75206881839E+02 0.  0.
          5    1    5    5  501    0 -0.11824763524E+03 -0.20230066819E+02 -0.28732007020E+03  0.31139471991E+03  0.47000000000E+01 0. -1.
        -13    1    6    6    0    0 -0.19537852952E+02 -0.22312625017E+02 -0.34059752681E+02  0.45162458811E+02  0.00000000000E+00 0.  1.
         14    1    6    6    0    0  0.41087059297E+02  0.50189520328E+01 -0.14943991554E+03  0.15506651694E+03  0.00000000000E+00 0. -1.
         -5    1    3    3    0  503  0.57007268636E+02  0.70179653123E+02 -0.54609257107E+03  0.55354692536E+03  0.47000000000E+01 0.  1.
         11    1    4    4    0    0  0.55927997626E+02 -0.12508338779E+02 -0.10432939243E+03  0.11903369936E+03  0.00000000000E+00 0. -1.
        -12    1    4    4    0    0 -0.16236837364E+02 -0.20147574541E+02 -0.15685009886E+03  0.15897016437E+03  0.00000000000E+00 0.  1.
</event>
<event>
12    1  0.8196217E-002  0.1980361E+03  0.7818608E-02  0.1151591E+00
         21   -1    0    0  501  502  0.00000000000E+00  0.00000000000E+00  0.17194814044E+03  0.17194814044E+03  0.00000000000E+00 0. -1.
         21   -1    0    0  502  503 -0.00000000000E+00 -0.00000000000E+00 -0.23583728434E+03  0.23583728434E+03  0.00000000000E+00 0. -1.
         -6    2    1    2    0  503  0.80912532227E+02  0.54782210140E+02  0.73822800650E+01  0.19731474075E+03  0.17126202276E+03 0.  0.
        -24    2    3    3    0    0  0.10124243855E+03  0.51646160003E+02  0.51342187825E+02  0.14855304070E+03  0.80713248259E+02 0.  0.
          6    2    1    2  501    0 -0.80912532227E+02 -0.54782210140E+02 -0.71271423965E+02  0.21047068404E+03  0.17225087676E+03 0.  0.
         24    2    5    5    0    0 -0.22795265925E+02  0.26808023599E+02 -0.74230384734E+02  0.11014407574E+03  0.73370792037E+02 0.  0.
          5    1    5    5  501    0 -0.58117266302E+02 -0.81590233739E+02  0.29589607694E+01  0.10032660830E+03  0.47000000000E+01 0. -1.
        -13    1    6    6    0    0  0.19666902129E+02  0.19173173971E+02 -0.40501615763E+01  0.27763311190E+02  0.00000000000E+00 0.  1.
         14    1    6    6    0    0 -0.42462168054E+02  0.76348496282E+01 -0.70180223158E+02  0.82380764546E+02  0.00000000000E+00 0. -1.
         -5    1    3    3    0  503 -0.20329906322E+02  0.31360501364E+01 -0.43959907760E+02  0.48761700050E+02  0.47000000000E+01 0.  1.
         13    1    4    4    0    0  0.10305711114E+03  0.17008815007E+02  0.42439555278E+02  0.11274388585E+03  0.00000000000E+00 0. -1.
        -14    1    4    4    0    0 -0.18146725890E+01  0.34637344996E+02  0.89026325464E+01  0.35809154852E+02  0.00000000000E+00 0.  1.
</event>
<event>
12    1  0.8196217E-002  0.2064255E+03  0.7818608E-02  0.1144563E+00
         21   -1    0    0  503  502  0.00000000000E+00  0.00000000000E+00  0.19530016448E+03  0.19530016448E+03  0.00000000000E+00 0.  1.
         21   -1    0    0  501  503 -0.00000000000E+00 -0.00000000000E+00 -0.33128201476E+03  0.33128201476E+03  0.00000000000E+00 0.  1.
          6    2    1    2  501    0  0.11323910828E+03 -0.92984338793E+01 -0.22223402318E+03  0.30286158490E+03  0.17154481057E+03 0.  0.
         24    2    3    3    0    0  0.76959732276E+02 -0.54613996692E+02 -0.74534689611E+02  0.14409484880E+03  0.79387760189E+02 0.  0.
         -6    2    1    2    0  502 -0.11323910828E+03  0.92984338793E+01  0.86252172900E+02  0.22372059433E+03  0.17234242218E+03 0.  0.
        -24    2    5    5    0    0 -0.10267358793E+03  0.26764546156E+02  0.53631078874E-01  0.13501335725E+03  0.83488904484E+02 0.  0.
          5    1    3    3  501    0  0.36279375999E+02  0.45315562813E+02 -0.14769933357E+03  0.15876673611E+03  0.47000000000E+01 0. -1.
        -11    1    4    4    0    0  0.12868729257E+02 -0.30003995790E+02 -0.67626617656E+02  0.75094629446E+02  0.00000000000E+00 0.  1.
         12    1    4    4    0    0  0.64091003019E+02 -0.24610000902E+02 -0.69080719554E+01  0.69000219351E+02  0.00000000000E+00 0. -1.
         -5    1    5    5    0  502 -0.10565520347E+02 -0.17466112276E+02  0.86198541822E+02  0.88707237080E+02  0.47000000000E+01 0.  1.
         13    1    6    6    0    0 -0.38334679219E+02 -0.30235968878E+02 -0.37908737654E+01  0.48970727672E+02  0.00000000000E+00 0. -1.
        -14    1    6    6    0    0 -0.64338908708E+02  0.57000515034E+02  0.38445048443E+01  0.86042629582E+02  0.00000000000E+00 0.  1.
</event>
<event>
12    1  0.8196217E-002  0.1949027E+03  0.7818608E-02  0.1154126E+00
         21   -1    0    0  503  502  0.00000000000E+00  0.00000000000E+00  0.12728483301E+03  0.12728483301E+03  0.00000000000E+00 0.  1.
         21   -1    0    0  501  503 -0.00000000000E+00 -0.00000000000E+00 -0.36821056864E+03  0.36821056864E+03  0.00000000000E+00 0. -1.
          6    2    1    2  501    0 -0.78226665617E+02 -0.47645559087E+02 -0.12527518410E+02  0.19524082430E+03  0.17196665444E+03 0.  0.
         24    2    3    3    0    0 -0.10314062782E+03  0.43365378501E+01  0.14208800257E+02  0.13152454184E+03  0.80249737902E+02 0.  0.
         -6    2    1    2    0  502  0.78226665617E+02  0.47645559087E+02 -0.22839821722E+03  0.30025457736E+03  0.17203939978E+03 0.  0.
        -24    2    5    5    0    0  0.50423665614E+02  0.63396339346E+02 -0.24036180196E+03  0.26581170802E+03  0.79501109319E+02 0.  0.
          5    1    3    3  501    0  0.24913962202E+02 -0.51982096938E+02 -0.26736318667E+02  0.63716282460E+02  0.47000000000E+01 0. -1.
        -13    1    4    4    0    0 -0.50017384245E+02  0.31786156459E+02  0.34263660699E+02  0.68455072227E+02  0.00000000000E+00 0.  1.
         14    1    4    4    0    0 -0.53123243574E+02 -0.27449618609E+02 -0.20054860442E+02  0.63069469611E+02  0.00000000000E+00 0. -1.
         -5    1    5    5    0  502  0.27803000003E+02 -0.15750780258E+02  0.11963584740E+02  0.34442869331E+02  0.47000000000E+01 0.  1.
         13    1    6    6    0    0 -0.52496358410E+01 -0.13942842962E+02 -0.60015598151E+02  0.61837153620E+02  0.00000000000E+00 0. -1.
        -14    1    6    6    0    0  0.55673301455E+02  0.77339182307E+02 -0.18034620381E+03  0.20397455440E+03  0.00000000000E+00 0.  1.
</event>
<event>
12    1  0.8196217E-002  0.2098828E+03  0.7818608E-02  0.1142431E+00
         21   -1    0    0  501  502  0.00000000000E+00  0.00000000000E+00  0.15312938748E+03  0.15312938748E+03  0.00000000000E+00 0. -1.
         21   -1    0    0  502  503 -0.00000000000E+00 -0.00000000000E+00 -0.10020437534E+04  0.10020437534E+04  0.00000000000E+00 0. -1.
         -6    2    1    2    0  503 -0.71838057805E+02 -0.90797057180E+02 -0.91281643301E+03  0.93577794397E+03  0.17041627826E+03 0.  0.
        -24    2    3    3    0    0 -0.10590973639E+02  0.11259441829E+02 -0.39265330209E+03  0.40215025814E+03  0.85494273067E+02 0.  0.
          6    2    1    2  501    0  0.71838057805E+02  0.90797057180E+02  0.63902067112E+02  0.21939519690E+03  0.17505989289E+03 0.  0.
         24    2    5    5    0    0  0.68529863615E+02 -0.84845152239E+01  0.96811595411E+01  0.10612661526E+03  0.80005027410E+02 0.  0.
          5    1    5    5  501    0  0.33081941903E+01  0.99281572404E+02  0.54220907571E+02  0.11326858164E+03  0.47000000000E+01 0. -1.
        -11    1    6    6    0    0 -0.15004387098E+02 -0.23328763952E+01 -0.12287084209E+02  0.19533212302E+02  0.00000000000E+00 0.  1.
         12    1    6    6    0    0  0.83534250713E+02 -0.61516388287E+01  0.21968243750E+02  0.86593402958E+02  0.00000000000E+00 0. -1.
         -5    1    3    3    0  503 -0.61247084166E+02 -0.10205649901E+03 -0.52016313093E+03  0.53362768583E+03  0.47000000000E+01 0.  1.
         13    1    4    4    0    0 -0.42860979384E+02 -0.14411916951E+02 -0.22514626197E+03  0.22964234405E+03  0.00000000000E+00 0. -1.
        -14    1    4    4    0    0  0.32270005745E+02  0.25671358780E+02 -0.16750704012E+03  0.17250791409E+03  0.00000000000E+00 0.  1.
</event>
<event>
12    1  0.8196217E-002  0.1724207E+03  0.7818608E-02  0.1175644E+00
         21   -1    0    0  503  502  0.00000000000E+00  0.00000000000E+00  0.16903676923E+04  0.16903676923E+04  0.00000000000E+00 0. -1.
         21   -1    0    0  501  503 -0.00000000000E+00 -0.00000000000E+00 -0.22281365657E+02  0.22281365657E+02  0.00000000000E+00 0. -1.
          6    2    1    2  501    0 -0.42021535804E+00  0.14149494878E+02  0.43388288459E+03  0.46646005426E+03  0.17067583278E+03 0.  0.
         24    2    3    3    0    0  0.63057648248E+02 -0.99722016384E+01  0.27752371751E+03  0.29592684770E+03  0.80483374680E+02 0.  0.
         -6    2    1    2    0  502  0.42021535804E+00 -0.14149494878E+02  0.12342034420E+04  0.12461890037E+04  0.17183862129E+03 0.  0.
        -24    2    5    5    0    0 -0.48917865441E+02  0.44513030071E+02  0.64784912225E+03  0.65482700255E+03  0.68669867178E+02 0.  0.
          5    1    3    3  501    0 -0.63477863606E+02  0.24121696516E+02  0.15635916707E+03  0.17053320656E+03  0.47000000000E+01 0. -1.
        -11    1    4    4    0    0 -0.27061054749E+01 -0.12179392400E+02  0.16577972574E+03  0.16624854307E+03  0.00000000000E+00 0.  1.
         12    1    4    4    0    0  0.65763753723E+02  0.22071907614E+01  0.11174399177E+03  0.12967830463E+03  0.00000000000E+00 0. -1.
         -5    1    5    5    0  502  0.49338080799E+02 -0.58662524949E+02  0.58635431978E+03  0.59136200112E+03  0.47000000000E+01 0.  1.
         13    1    6    6    0    0 -0.10144024157E+02 -0.17057004758E+02  0.21404704439E+03  0.21496506658E+03  0.00000000000E+00 0. -1.
        -14    1    6    6    0    0 -0.38773841285E+02  0.61570034830E+02  0.43380207786E+03  0.43986193597E+03  0.00000000000E+00 0.  1.
</event>
<event>
12    1  0.8196217E-002  0.2220753E+03  0.7818608E-02  0.1134513E+00
         21   -1    0    0  501  502  0.00000000000E+00  0.00000000000E+00  0.41449996582E+03  0.41449996582E+03  0.00000000000E+00 0. -1.
         21   -1    0    0  502  503 -0.00000000000E+00 -0.00000000000E+00 -0.11998996030E+03  0.11998996030E+03  0.00000000000E+00 0.  1.
         -6    2    1    2    0  503 -0.34888286510E+02 -0.11930214722E+03  0.78770625797E+02  0.22487576961E+03  0.17004148141E+03 0.  0.
        -24    2    3    3    0    0 -0.52854305851E+02 -0.32430212854E+02 -0.68368230162E+01  0.10150544853E+03  0.80070703623E+02 0.  0.
          6    2    1    2  501    0  0.34888286510E+02  0.11930214722E+03  0.21573937972E+03  0.30961415651E+03  0.18403057106E+03 0.  0.
         24    2    5    5    0    0 -0.16766158312E+02  0.14215192244E+03  0.16028875600E+03  0.23032257078E+03  0.82871757500E+02 0.  0.
          5    1    5    5  501    0  0.51654444822E+02 -0.22849775220E+02  0.55450623714E+02  0.79291585732E+02  0.47000000000E+01 0. -1.
        -13    1    6    6    0    0  0.31575883646E+02  0.44687946957E+02  0.37858246103E+02  0.66537927750E+02  0.00000000000E+00 0.  1.
         14    1    6    6    0    0 -0.48342041959E+02  0.97463975484E+02  0.12243050990E+03  0.16378464303E+03  0.00000000000E+00 0. -1.
         -5    1    3    3    0  503  0.17966019341E+02 -0.86871934366E+02  0.85607448813E+02  0.12337032108E+03  0.47000000000E+01 0.  1.
         13    1    4    4    0    0 -0.24598806432E+02 -0.39875749198E+02  0.29126262315E+02  0.55168068739E+02  0.00000000000E+00 0. -1.
        -14    1    4    4    0    0 -0.28255499419E+02  0.74455363438E+01 -0.35963085332E+02  0.46337379786E+02  0.00000000000E+00 0.  1.
</event>
<event>
12    1  0.8196217E-002  0.2151433E+03  0.7818608E-02  0.1137656E+00
         21   -1    0    0  501  502  0.00000000000E+00  0.00000000000E+00  0.18862181506E+03  0.18862181506E+03  0.00000000000E+00 0.  1.
         21   -1    0    0  502  503 -0.00000000000E+00 -0.00000000000E+00 -0.25127759943E+03  0.25127759943E+03  0.00000000000E+00 0.  1.
         -6    2    1    2    0  503  0.21640935651E+01  0.12880818213E+03  0.40107234735E+01  0.21466380552E+03  0.17166313645E+03 0.  0.
        -24    2    3    3    0    0 -0.20395886397E+02  0.68183975747E+01  0.97065747591E+01  0.90385919506E+02  0.87252015014E+02 0.  0.
          6    2    1    2  501    0 -0.21640935651E+01 -0.12880818213E+03 -0.66666507838E+02  0.22523560897E+03  0.17230909784E+03 0.  0.
         24    2    5    5    0    0  0.20473849919E+02 -0.10615771075E+03 -0.10853519718E+03  0.17231493734E+03  0.78891764592E+02 0.  0.
          5    1    5    5  501    0 -0.22637943485E+02 -0.22650471377E+02  0.41868689342E+02  0.52920671632E+02  0.47000000000E+01 0. -1.
        -13    1    6    6    0    0  0.19368490008E+01 -0.18190777322E+02 -0.73644791503E+02  0.75882877378E+02  0.00000000000E+00 0.  1.
         14    1    6    6    0    0  0.18537000919E+02 -0.87966933427E+02 -0.34890405678E+02  0.96432059959E+02  0.00000000000E+00 0. -1.
         -5    1    3    3    0  503  0.22559979962E+02  0.12198978455E+03 -0.56958512856E+01  0.12427788602E+03  0.47000000000E+01 0.  1.
         13    1    4    4    0    0 -0.82161436462E-02  0.11691515833E+02 -0.37207811631E+02  0.39001446849E+02  0.00000000000E+00 0. -1.
        -14    1    4    4    0    0 -0.20387670253E+02 -0.48731182588E+01  0.46914386390E+02  0.51384472657E+02  0.00000000000E+00 0.  1.
</event>
<event>
12    1  0.8196217E-002  0.2010034E+03  0.7818608E-02  0.1148977E+00
         21   -1    0    0  503  502  0.00000000000E+00  0.00000000000E+00  0.73581079552E+02  0.73581079552E+02  0.00000000000E+00 0.  1.
         21   -1    0    0  501  503 -0.00000000000E+00 -0.00000000000E+00 -0.54965487820E+03  0.54965487820E+03  0.00000000000E+00 0. -1.
          6    2    1    2  501    0  0.48921292893E+02 -0.91496326027E+02 -0.25522057130E+03  0.32486906276E+03  0.17215544532E+03 0.  0.
         24    2    3    3    0    0 -0.29572090436E+02 -0.58535816003E+01 -0.95517124136E+02  0.12732622707E+03  0.78610903484E+02 0.  0.
         -6    2    1    2    0  502 -0.48921292893E+02  0.91496326027E+02 -0.22085322736E+03  0.29836689499E+03  0.17170260749E+03 0.  0.
        -24    2    5    5    0    0  0.39419636159E+02  0.39846184749E+02 -0.12938083933E+03  0.16103101254E+03  0.77781484026E+02 0.  0.
          5    1    3    3  501    0  0.78493383328E+02 -0.85642744427E+02 -0.15970344716E+03  0.19754283569E+03  0.47000000000E+01 0. -1.
        -11    1    4    4    0    0  0.21743856413E+01  0.26572620882E+02 -0.65502327596E+01  0.27454283503E+02  0.00000000000E+00 0.  1.
         12    1    4    4    0    0 -0.31746476077E+02 -0.32426202483E+02 -0.88966891377E+02  0.99871943568E+02  0.00000000000E+00 0. -1.
         -5    1    5    5    0  502 -0.88340929051E+02  0.51650141278E+02 -0.91472388022E+02  0.13733588246E+03  0.47000000000E+01 0.  1.
         13    1    6    6    0    0  0.51522803724E+02  0.18366167107E+01 -0.48193348820E+02  0.70573162994E+02  0.00000000000E+00 0. -1.
        -14    1    6    6    0    0 -0.12103167565E+02  0.38009568039E+02 -0.81187490515E+02  0.90457849542E+02  0.00000000000E+00 0.  1.
</event>
<event>
12    1  0.8196217E-002  0.2074386E+03  0.7818608E-02  0.1143618E+00
         21   -1    0    0  503  502  0.00000000000E+00  0.00000000000E+00  0.31116085753E+02  0.31116085753E+02  0.00000000000E+00 0. -1.
         21   -1    0    0  501  503 -0.00000000000E+00 -0.00000000000E+00 -0.22641621762E+04  0.22641621762E+04  0.00000000000E+00 0. -1.
          6    2    1    2  501    0 -0.93241856115E+02 -0.65682823441E+02 -0.18326573583E+04  0.18443599917E+04  0.17327004663E+03 0.  0.
         24    2    3    3    0    0 -0.97657830198E+02 -0.48735966711E+02 -0.18115345959E+04  0.18165219265E+04  0.78626148721E+02 0.  0.
         -6    2    1    2    0  502  0.93241856115E+02  0.65682823441E+02 -0.40038873213E+03  0.45091827023E+03  0.17322780545E+03 0.  0.
        -24    2    5    5    0    0  0.12585319410E+03  0.25622573457E+02 -0.33565756509E+03  0.36796926794E+03  0.78992647817E+02 0.  0.
          5    1    3    3  501    0  0.44159740833E+01 -0.16946856730E+02 -0.21122762402E+02  0.27838065156E+02  0.47000000000E+01 0. -1.
        -11    1    4    4    0    0  0.88900481688E+01 -0.12176873714E+02 -0.85780521594E+02  0.87095390778E+02  0.00000000000E+00 0.  1.
         12    1    4    4    0    0 -0.10654787837E+03 -0.36559092997E+02 -0.17257540743E+04  0.17294265358E+04  0.00000000000E+00 0. -1.
         -5    1    5    5    0  502 -0.32611337988E+02  0.40060249984E+02 -0.64731167038E+02  0.82949002286E+02  0.47000000000E+01 0.  1.
         13    1    6    6    0    0  0.44879521031E+02  0.95777532197E+01 -0.39584428326E+02  0.60603892041E+02  0.00000000000E+00 0. -1.
        -14    1    6    6    0    0  0.80973673072E+02  0.16044820237E+02 -0.29607313677E+03  0.30736537590E+03  0.00000000000E+00 0.  1.
</event>
<event>
12    1  0.8196217E-002  0.2121705E+03  0.7818608E-02  0.1139876E+00
         21   -1    0    0  503  502  0.00000000000E+00  0.00000000000E+00  0.67651153639E+02  0.67651153639E+02  0.00000000000E+00 0. -1.
         21   -1    0    0  501  503 -0.00000000000E+00 -0.00000000000E+00 -0.67505628953E+03  0.67505628953E+03  0.00000000000E+00 0.  1.
          6    2    1    2  501    0 -0.12239910558E+03 -0.17401837897E+02 -0.34864778356E+03  0.40808572007E+03  0.17232037874E+03 0.  0.
         24    2    3    3    0    0 -0.10805876253E+03  0.49031876285E+00 -0.35837349266E+03  0.38273904127E+03  0.79879139329E+02 0.  0.
         -6    2    1    2    0  502  0.12239910558E+03  0.17401837897E+02 -0.25875735233E+03  0.33462172311E+03  0.17242959485E+03 0.  0.
        -24    2    5    5    0    0  0.14677905602E+03  0.20005526644E+02 -0.15811776441E+03  0.23093190762E+03  0.79899975930E+02 0.  0.
          5    1    3    3  501    0 -0.14340343050E+02 -0.17892156660E+02  0.97257090923E+01  0.25346678798E+02  0.47000000000E+01 0. -1.
        -13    1    4    4    0    0 -0.55300071998E+02 -0.39451730490E+02 -0.19376971034E+03  0.20533201808E+03  0.00000000000E+00 0.  1.
         14    1    4    4    0    0 -0.52758690533E+02  0.39942049253E+02 -0.16460378231E+03  0.17740702319E+03  0.00000000000E+00 0. -1.
         -5    1    5    5    0  502 -0.24379950438E+02 -0.26036887468E+01 -0.10063958792E+03  0.10368981549E+03  0.47000000000E+01 0.  1.
         11    1    6    6    0    0  0.13674363221E+03 -0.89101769385E+01 -0.12088349142E+03  0.18273212827E+03  0.00000000000E+00 0. -1.
        -12    1    6    6    0    0  0.10035423808E+02  0.28915703582E+02 -0.37234272993E+02  0.48199779357E+02  0.00000000000E+00 0.  1.
</event>
<event>
12    1  0.8196217E-002  0.1845297E+03  0.7818608E-02  0.1163745E+00
         21   -1    0    0  503  502  0.00000000000E+00  0.00000000000E+00  0.14508631546E+03  0.14508631546E+03  0.00000000000E+00 0.  1.
         21   -1    0    0  501  503 -0.00000000000E+00 -0.00000000000E+00 -0.23387949508E+03  0.23387949508E+03  0.00000000000E+00 0.  1.
          6    2    1    2  501    0 -0.60483304544E+02  0.27114657915E+02 -0.53553491144E+02  0.19110139274E+03  0.17105066820E+03 0.  0.
         24    2    3    3    0    0 -0.10408444233E+03  0.16386089426E+02 -0.18267126279E+02  0.13380061662E+03  0.80416677639E+02 0.  0.
         -6    2    1    2    0  502  0.60483304544E+02 -0.27114657915E+02 -0.35239688484E+02  0.18786441780E+03  0.17221431133E+03 0.  0.
        -24    2    5    5    0    0  0.64284303199E+02  0.20466774945E+02 -0.66112496639E+02  0.13082354976E+03  0.90512863419E+02 0.  0.
          5    1    3    3  501    0  0.43601137791E+02  0.10728568489E+02 -0.35286364864E+02  0.57300776119E+02  0.47000000000E+01 0. -1.
        -11    1    4    4    0    0 -0.10043011138E+03  0.34558076616E+02 -0.31779902863E+02  0.11086221249E+03  0.00000000000E+00 0.  1.
         12    1    4    4    0    0 -0.36543309527E+01 -0.18171987189E+02  0.13512776584E+02  0.22938404132E+02  0.00000000000E+00 0. -1.
         -5    1    5    5    0  502 -0.38009986549E+01 -0.47581432860E+02  0.30872808155E+02  0.57040868044E+02  0.47000000000E+01 0.  1.
         13    1    6    6    0    0  0.62406176993E+00 -0.27129376321E+02 -0.37618311003E+02  0.46384586183E+02  0.00000000000E+00 0. -1.
        -14    1    6    6    0    0  0.63660241429E+02  0.47596151266E+02 -0.28494185636E+02  0.84438963573E+02  0.00000000000E+00 0.  1.
</event>
<event>
12    1  0.8196217E-002  0.2647551E+03  0.7818608E-02  0.1104447E+00
         21   -1    0    0  503  502  0.00000000000E+00  0.00000000000E+00  0.43863027875E+03  0.43863027875E+03  0.00000000000E+00 0. -1.
         21   -1    0    0  501  503 -0.00000000000E+00 -0.00000000000E+00 -0.27271429810E+03  0.27271429810E+03  0.00000000000E+00 0.  1.
          6    2    1    2  501    0 -0.47053703238E+02  0.19486676244E+03 -0.14650627211E+03  0.30182910261E+03  0.17160889640E+03 0.  0.
         24    2    3    3    0    0 -0.43373837181E+02  0.58397408372E+02 -0.44517371605E+01  0.10475295765E+03  0.75245047124E+02 0.  0.
         -6    2    1    2    0  502  0.47053703238E+02 -0.19486676244E+03  0.31242225276E+03  0.40951547423E+03  0.17293973958E+03 0.  0.
        -24    2    5    5    0    0  0.86817976277E+02 -0.12987696550E+03  0.27106921820E+03  0.32269937789E+03  0.79063140989E+02 0.  0.
          5    1    3    3  501    0 -0.36798660565E+01  0.13646935407E+03 -0.14205453495E+03  0.19707614496E+03  0.47000000000E+01 0. -1.
        -11    1    4    4    0    0  0.84966827744E+00  0.15074483649E+02 -0.33217827279E+02  0.36488163048E+02  0.00000000000E+00 0.  1.
         12    1    4    4    0    0 -0.44223505459E+02  0.43322924723E+02  0.28766090119E+02  0.68264794604E+02  0.00000000000E+00 0. -1.
         -5    1    5    5    0  502 -0.39764273039E+02 -0.64989796945E+02  0.41353034561E+02  0.86816096345E+02  0.47000000000E+01 0.  1.
         11    1    6    6    0    0  0.71695040965E+02 -0.54892519371E+02  0.19464621159E+03  0.21457053681E+03  0.00000000000E+00 0. -1.
        -12    1    6    6    0    0  0.15122935312E+02 -0.74984446124E+02  0.76423006609E+02  0.10812884108E+03  0.00000000000E+00 0.  1.
</event>
<event>
12    1  0.8196217E-002  0.1968585E+03  0.7818608E-02  0.1152640E+00
         21   -1    0    0  503  502  0.00000000000E+00  0.00000000000E+00  0.37156835026E+02  0.37156835026E+02  0.00000000000E+00 0. -1.
         21   -1    0    0  501  503 -0.00000000000E+00 -0.00000000000E+00 -0.22623483848E+04  0.22623483848E+04  0.00000000000E+00 0.  1.
          6    2    1    2  501    0 -0.18794655712E+02  0.93797377857E+02 -0.19599305164E+04  0.19697920915E+04  0.17205251410E+03 0.  0.
         24    2    3    3    0    0  0.49919995185E+02  0.85026891086E+02 -0.11996390046E+04  0.12063368554E+04  0.79958046480E+02 0.  0.
         -6    2    1    2    0  502  0.18794655712E+02 -0.93797377857E+02 -0.26526103334E+03  0.32971312825E+03  0.17086879164E+03 0.  0.
        -24    2    5    5    0    0 -0.34804930090E+02 -0.90761532694E+02 -0.11790097349E+03  0.17280803211E+03  0.80702772183E+02 0.  0.
          5    1    3    3  501    0 -0.68714650897E+02  0.87704867711E+01 -0.76029151182E+03  0.76345523617E+03  0.47000000000E+01 0. -1.
        -11    1    4    4    0    0  0.43380549935E+02  0.53223284451E+01 -0.56314284626E+03  0.56483631663E+03  0.00000000000E+00 0.  1.
         12    1    4    4    0    0  0.65394452500E+01  0.79704562641E+02 -0.63649615831E+03  0.64150053873E+03  0.00000000000E+00 0. -1.
         -5    1    5    5    0  502  0.53599585802E+02 -0.30358451634E+01 -0.14736005985E+03  0.15690509614E+03  0.47000000000E+01 0.  1.
         11    1    6    6    0    0  0.51014410800E+01 -0.71479230148E+02 -0.10411416002E+03  0.12639249725E+03  0.00000000000E+00 0. -1.
        -12    1    6    6    0    0 -0.39906371170E+02 -0.19282302546E+02 -0.13786813470E+02  0.46415534868E+02  0.00000000000E+00 0.  1.
</event>
<event>
12    1  0.8196217E-002  0.1981173E+03  0.7818608E-02  0.1151858E+00
         21   -1    0    0  501  502  0.00000000000E+00  0.00000000000E+00  0.92971217784E+02  0.92971217784E+02  0.00000000000E+00 0. -1.
         21   -1    0    0  502  503 -0.00000000000E+00 -0.00000000000E+00 -0.17868833735E+04  0.17868833735E+04  0.00000000000E+00 0. -1.
         -6    2    1    2    0  503  0.29601805900E+02 -0.92482364672E+02 -0.16711349887E+04  0.16828376667E+04  0.17268817952E+03 0.  0.
        -24    2    3    3    0    0 -0.12699195291E+02 -0.23754448055E+02 -0.13287228817E+04  0.13310123659E+04  0.73238505106E+02 0.  0.
          6    2    1    2  501    0 -0.29601805900E+02  0.92482364672E+02 -0.22777167017E+02  0.19701692458E+03  0.16990472196E+03 0.  0.
         24    2    5    5    0    0 -0.82104779554E+02  0.72633839302E+02 -0.33357058993E+02  0.13970592811E+03  0.79926112922E+02 0.  0.
          5    1    5    5  501    0  0.52502973654E+02  0.19848525370E+02  0.10579891976E+02  0.57310996467E+02  0.47000000000E+01 0. -1.
        -13    1    6    6    0    0 -0.36492070799E+02  0.74963110784E+02 -0.41791836353E+02  0.93261443241E+02  0.00000000000E+00 0.  1.
         14    1    6    6    0    0 -0.45612708754E+02 -0.23292714821E+01  0.84347773597E+01  0.46444484868E+02  0.00000000000E+00 0. -1.
         -5    1    3    3    0  503  0.42301001191E+02 -0.68727916617E+02 -0.34241210702E+03  0.35182530076E+03  0.47000000000E+01 0.  1.
         13    1    4    4    0    0  0.12939301225E+02 -0.31893487525E+02 -0.11243710858E+04  0.11248977548E+04  0.00000000000E+00 0. -1.
        -14    1    4    4    0    0 -0.25638496516E+02  0.81390394702E+01 -0.20435179586E+03  0.20611461117E+03  0.00000000000E+00 0.  1.
</event>
<event>
12    1  0.8196217E-002  0.3839099E+03  0.7818608E-02  0.1049631E+00
         21   -1    0    0  503  502  0.00000000000E+00  0.00000000000E+00  0.59899333018E+03  0.59899333018E+03  0.00000000000E+00 0. -1.
         21   -1    0    0  501  503 -0.00000000000E+00 -0.00000000000E+00 -0.32825287935E+03  0.32825287935E+03  0.00000000000E+00 0.  1.
          6    2    1    2  501    0  0.33772774139E+03  0.56753775071E+02  0.36887309850E+03  0.53240417105E+03  0.17351028863E+03 0.  0.
         24    2    3    3    0    0  0.67364194740E+02 -0.86213901146E+01  0.89165817086E+02  0.13790624601E+03  0.80345047461E+02 0.  0.
         -6    2    1    2    0  502 -0.33772774139E+03 -0.56753775071E+02 -0.98132647679E+02  0.39484203848E+03  0.17026215236E+03 0.  0.
        -24    2    5    5    0    0 -0.32860307577E+03 -0.52682333631E+02 -0.12684172055E+03  0.36408269806E+03  0.75577637393E+02 0.  0.
          5    1    3    3  501    0  0.27036354665E+03  0.65375165185E+02  0.27970728142E+03  0.39449792504E+03  0.47000000000E+01 0. -1.
        -13    1    4    4    0    0 -0.11099388808E+02  0.19010193591E+02  0.18266584527E+02  0.28605104484E+02  0.00000000000E+00 0.  1.
         14    1    4    4    0    0  0.78463583549E+02 -0.27631583705E+02  0.70899232559E+02  0.10930114153E+03  0.00000000000E+00 0. -1.
         -5    1    5    5    0  502 -0.91246656211E+01 -0.40714414402E+01  0.28709072873E+02  0.30759340424E+02  0.47000000000E+01 0.  1.
         13    1    6    6    0    0 -0.11547175993E+02 -0.15459396625E+02  0.28603287172E+01  0.19506709045E+02  0.00000000000E+00 0. -1.
        -14    1    6    6    0    0 -0.31705589978E+03 -0.37222937006E+02 -0.12970204927E+03  0.34457598902E+03  0.00000000000E+00 0.  1.
</event>
<event>
12    1  0.8196217E-002  0.1842515E+03  0.7818608E-02  0.1164658E+00
         21   -1    0    0  503  502  0.00000000000E+00  0.00000000000E+00  0.96919582670E+01  0.96919582670E+01  0.00000000000E+00 0. -1.
         21   -1    0    0  501  503 -0.00000000000E+00 -0.00000000000E+00 -0.34609175110E+04  0.34609175110E+04  0.00000000000E+00 0. -1.
          6    2    1    2  501    0 -0.26711445909E+02 -0.52617498938E+02 -0.18705126334E+04  0.18791943916E+04  0.17050497764E+03 0.  0.
         24    2    3    3    0    0  0.43302920038E+02 -0.57137115201E+02 -0.11853624217E+04  0.11904452784E+04  0.83283235779E+02 0.  0.
         -6    2    1    2    0  502  0.26711445909E+02  0.52617498938E+02 -0.15807129193E+04  0.15914150776E+04  0.17454659364E+03 0.  0.
        -24    2    5    5    0    0  0.79668211594E+02  0.11116196258E+02 -0.10349022799E+04  0.10414531505E+04  0.84447273329E+02 0.  0.
          5    1    3    3  501    0 -0.70014365947E+02  0.45196162630E+01 -0.68515021166E+03  0.68874911318E+03  0.47000000000E+01 0. -1.
        -11    1    4    4    0    0  0.48092635309E+02  0.33439442872E+01 -0.44604703269E+03  0.44864466887E+03  0.00000000000E+00 0.  1.
         12    1    4    4    0    0 -0.47897152705E+01 -0.60481059489E+02 -0.73931538902E+03  0.74180060957E+03  0.00000000000E+00 0. -1.
         -5    1    5    5    0  502 -0.52956765685E+02  0.41501302680E+02 -0.54581063947E+03  0.54996192715E+03  0.47000000000E+01 0.  1.
         11    1    6    6    0    0  0.24975683524E+02  0.34721201954E+02 -0.20492228510E+03  0.20933821811E+03  0.00000000000E+00 0. -1.
        -12    1    6    6    0    0  0.54692528070E+02 -0.23605005695E+02 -0.82997999478E+03  0.83211493236E+03  0.00000000000E+00 0.  1.
</event>
<event>
12    1  0.8196217E-002  0.3177653E+03  0.7818608E-02  0.1076736E+00
         21   -1    0    0  501  502  0.00000000000E+00  0.00000000000E+00  0.43685282326E+03  0.43685282326E+03  0.00000000000E+00 0. -1.
         21   -1    0    0  502  503 -0.00000000000E+00 -0.00000000000E+00 -0.81465392092E+03  0.81465392092E+03  0.00000000000E+00 0.  1.
         -6    2    1    2    0  503  0.12407666033E+03 -0.23610745729E+03 -0.71868349327E+03  0.78579945001E+03  0.17272250319E+03 0.  0.
        -24    2    3    3    0    0  0.43913264500E+02 -0.10861126789E+03 -0.19601284016E+03  0.24184343160E+03  0.79639372094E+02 0.  0.
          6    2    1    2  501    0 -0.12407666033E+03  0.23610745729E+03  0.34088239561E+03  0.46570729417E+03  0.17187416088E+03 0.  0.
         24    2    5    5    0    0 -0.14642516914E+03  0.15265436843E+03  0.28001684210E+03  0.35992175881E+03  0.79940942253E+02 0.  0.
          5    1    5    5  501    0  0.22348508813E+02  0.83453088857E+02  0.60865553513E+02  0.10578553535E+03  0.47000000000E+01 0. -1.
        -11    1    6    6    0    0 -0.22615499035E+02  0.54951225003E+02  0.36328227689E+02  0.69647957996E+02  0.00000000000E+00 0.  1.
         12    1    6    6    0    0 -0.12380967010E+03  0.97703143428E+02  0.24368861441E+03  0.29027380082E+03  0.00000000000E+00 0. -1.
         -5    1    3    3    0  503  0.80163395827E+02 -0.12749618940E+03 -0.52267065311E+03  0.54395601841E+03  0.47000000000E+01 0.  1.
         11    1    4    4    0    0  0.27167898628E+02 -0.35407534855E+02 -0.17070512591E+02  0.47782744171E+02  0.00000000000E+00 0. -1.
        -12    1    4    4    0    0  0.16745365872E+02 -0.73203733036E+02 -0.17894232757E+03  0.19406068743E+03  0.00000000000E+00 0.  1.
</event>
<event>
12    1  0.8196217E-002  0.2146671E+03  0.7818608E-02  0.1138130E+00
         21   -1    0    0  501  502  0.00000000000E+00  0.00000000000E+00  0.76208206624E+03  0.76208206624E+03  0.00000000000E+00 0.  1.
         21   -1    0    0  502  503 -0.00000000000E+00 -0.00000000000E+00 -0.93110272403E+02  0.93110272403E+02  0.00000000000E+00 0. -1.
         -6    2    1    2    0  503  0.99936686598E+02 -0.78754222183E+02  0.80683319802E+02  0.22932892517E+03  0.17289415544E+03 0.  0.
        -24    2    3    3    0    0  0.78132497358E+02  0.17116489052E+02  0.25106864940E+02  0.11629154960E+03  0.80595958338E+02 0.  0.
          6    2    1    2  501    0 -0.99936686598E+02  0.78754222183E+02  0.58828847404E+03  0.62586341347E+03  0.17155790509E+03 0.  0.
         24    2    5    5    0    0 -0.13988410332E+03  0.68498434499E+02  0.51484134735E+03  0.54149785354E+03  0.62439687363E+02 0.  0.
          5    1    5    5  501    0  0.39947416725E+02  0.10255787683E+02  0.73447126687E+02  0.84365559932E+02  0.47000000000E+01 0. -1.
        -13    1    6    6    0    0 -0.12146562357E+03  0.38474175977E+02  0.33877954000E+03  0.36194714621E+03  0.00000000000E+00 0.  1.
         14    1    6    6    0    0 -0.18418479752E+02  0.30024258522E+02  0.17606180735E+03  0.17955070733E+03  0.00000000000E+00 0. -1.
         -5    1    3    3    0  503  0.21804189241E+02 -0.95870711235E+02  0.55576454862E+02  0.11303737557E+03  0.47000000000E+01 0.  1.
         13    1    4    4    0    0  0.19799496144E+02 -0.23691127676E+02 -0.15273621342E+02  0.34446670188E+02  0.00000000000E+00 0. -1.
        -14    1    4    4    0    0  0.58333001213E+02  0.40807616728E+02  0.40380486282E+02  0.81844879412E+02  0.00000000000E+00 0.  1.
</event>
<event>
12    1  0.8196217E-002  0.2225905E+03  0.7818608E-02  0.1132123E+00
         21   -1    0    0  501  502  0.00000000000E+00  0.00000000000E+00  0.11211827213E+04  0.11211827213E+04  0.00000000000E+00 0. -1.
         21   -1    0    0  502  503 -0.00000000000E+00 -0.00000000000E+00 -0.15623695717E+03  0.15623695717E+03  0.00000000000E+00 0. -1.
         -6    2    1    2    0  503 -0.13785334785E+03 -0.26644133868E+02 -0.59083820350E+02  0.22947734607E+03  0.17162604450E+03 0.  0.
        -24    2    3    3    0    0 -0.50842469696E+02 -0.73910899340E+02 -0.55919960513E+02  0.13029498855E+03  0.76170626169E+02 0.  0.
          6    2    1    2  501    0  0.13785334785E+03  0.26644133868E+02  0.10240295845E+04  0.10479423324E+04  0.17272257163E+03 0.  0.
         24    2    5    5    0    0  0.14011089749E+03  0.68148294060E+02  0.72895658953E+03  0.74991908801E+03  0.82010216232E+02 0.  0.
          5    1    5    5  501    0 -0.22575496427E+01 -0.41504160192E+02  0.29507299494E+03  0.29802324437E+03  0.47000000000E+01 0. -1.
        -11    1    6    6    0    0  0.45250411588E+02  0.65547193094E+02  0.28412804914E+03  0.29508097630E+03  0.00000000000E+00 0.  1.
         12    1    6    6    0    0  0.94860485901E+02  0.26011009662E+01  0.44482854039E+03  0.45483811170E+03  0.00000000000E+00 0. -1.
         -5    1    3    3    0  503 -0.87010878150E+02  0.47266765472E+02 -0.31638598378E+01  0.99182357522E+02  0.47000000000E+01 0.  1.
         13    1    4    4    0    0 -0.67926135688E+02 -0.37811547985E+02 -0.36306353101E+02  0.85801074271E+02  0.00000000000E+00 0. -1.
        -14    1    4    4    0    0  0.17083665992E+02 -0.36099351355E+02 -0.19613607412E+02  0.44493914277E+02  0.00000000000E+00 0.  1.
</event>
<event>
12    1  0.8196217E-002  0.2192677E+03  0.7818608E-02  0.1136124E+00
         21   -1    0    0  503  502  0.00000000000E+00  0.00000000000E+00  0.28572240175E+03  0.28572240175E+03  0.00000000000E+00 0.  1.
         21   -1    0    0  501  503 -0.00000000000E+00 -0.00000000000E+00 -0.23092859535E+03  0.23092859535E+03  0.00000000000E+00 0. -1.
          6    2    1    2  501    0 -0.90567440795E+02 -0.78759591209E+02 -0.11457631231E+03  0.23958682062E+03  0.17282528383E+03 0.  0.
         24    2    3    3    0    0 -0.56090704228E+02  0.27436981669E+02 -0.77944924969E+02  0.12198449924E+03  0.70041785111E+02 0.  0.
         -6    2    1    2    0  502  0.90567440795E+02  0.78759591209E+02  0.16937011871E+03  0.27706417649E+03  0.18350146114E+03 0.  0.
        -24    2    5    5    0    0  0.13950797897E+02  0.90414774177E+02  0.44322999737E+02  0.12987441726E+03  0.80829325130E+02 0.  0.
          5    1    3    3  501    0 -0.34476736566E+02 -0.10619657288E+03 -0.36631387341E+02  0.11760232138E+03  0.47000000000E+01 0. -1.
        -11    1    4    4    0    0 -0.17630813388E+02  0.81214199078E+01  0.11614514675E+02  0.22620786750E+02  0.00000000000E+00 0.  1.
         12    1    4    4    0    0 -0.38459890840E+02  0.19315561761E+02 -0.89559439644E+02  0.99363712486E+02  0.00000000000E+00 0. -1.
         -5    1    5    5    0  502  0.76616642897E+02 -0.11655182969E+02  0.12504711897E+03  0.14718975923E+03  0.47000000000E+01 0.  1.
         11    1    6    6    0    0  0.42305311315E+02  0.77667111137E+02  0.44005226133E+02  0.98784510146E+02  0.00000000000E+00 0. -1.
        -12    1    6    6    0    0 -0.28354513418E+02  0.12747663041E+02  0.31777360386E+00  0.31089907112E+02  0.00000000000E+00 0.  1.
</event>
<event>
12    1  0.8196217E-002  0.1901719E+03  0.7818608E-02  0.1158388E+00
         21   -1    0    0  503  502  0.00000000000E+00  0.00000000000E+00  0.17963911690E+03  0.17963911690E+03  0.00000000000E+00 0. -1.
         21   -1    0    0  501  503 -0.00000000000E+00 -0.00000000000E+00 -0.20110542792E+03  0.20110542792E+03  0.00000000000E+00 0. -1.
          6    2    1    2  501    0  0.80071593012E+02 -0.13167189754E+02 -0.52349334299E+01  0.18988117074E+03  0.17158851820E+03 0.  0.
         24    2    3    3    0    0  0.31170177474E+02 -0.99758815282E+01  0.62602667740E+02  0.10606253902E+03  0.79114284426E+02 0.  0.
         -6    2    1    2    0  502 -0.80071593012E+02  0.13167189754E+02 -0.16231377594E+02  0.19086337408E+03  0.17198992718E+03 0.  0.
        -24    2    5    5    0    0 -0.96730183823E+02 -0.37494693426E+01 -0.60508232900E+02  0.14040337092E+03  0.81737832943E+02 0.  0.
          5    1    3    3  501    0  0.48901415539E+02 -0.31913082259E+01 -0.67837601169E+02  0.83818631713E+02  0.47000000000E+01 0. -1.
        -13    1    4    4    0    0  0.19960721640E+02 -0.44244422609E+02  0.43894717076E+02  0.65442688878E+02  0.00000000000E+00 0.  1.
         14    1    4    4    0    0  0.11209455833E+02  0.34268541081E+02  0.18707950664E+02  0.40619850147E+02  0.00000000000E+00 0. -1.
         -5    1    5    5    0  502  0.16658590811E+02  0.16916659097E+02  0.44276855306E+02  0.50460003157E+02  0.47000000000E+01 0.  1.
         11    1    6    6    0    0 -0.28444258829E+02  0.19365816072E+01  0.19892833061E+02  0.34764220340E+02  0.00000000000E+00 0. -1.
        -12    1    6    6    0    0 -0.68285924994E+02 -0.56860509498E+01 -0.80401065961E+02  0.10563915058E+03  0.00000000000E+00 0.  1.
</event>
<event>
12    1  0.8196217E-002  0.1849504E+03  0.7818608E-02  0.1163314E+00
         21   -1    0    0  501  502  0.00000000000E+00  0.00000000000E+00  0.16453545620E+03  0.16453545620E+03  0.00000000000E+00 0. -1.
         21   -1    0    0  502  503 -0.00000000000E+00 -0.00000000000E+00 -0.23249358453E+03  0.23249358453E+03  0.00000000000E+00 0. -1.
         -6    2    1    2    0  503 -0.67181223913E+02  0.11616399211E+02  0.31865695273E+02  0.18767545539E+03  0.17192555495E+03 0.  0.
        -24    2    3    3    0    0 -0.70171813779E+02  0.54526189622E+02 -0.18440351599E+02  0.12132048502E+03  0.80507296034E+02 0.  0.
          6    2    1    2  501    0  0.67181223913E+02 -0.11616399211E+02 -0.99823823606E+02  0.20935358534E+03  0.17092650572E+03 0.  0.
         24    2    5    5    0    0 -0.31864790984E+01 -0.43950264437E+02 -0.94641973623E+02  0.13159733777E+03  0.80118516852E+02 0.  0.
          5    1    5    5  501    0  0.70367703011E+02  0.32333865225E+02 -0.51818499827E+01  0.77756247574E+02  0.47000000000E+01 0. -1.
        -11    1    6    6    0    0 -0.35654579554E+02 -0.27309566415E+00 -0.48811976547E+02  0.60447768188E+02  0.00000000000E+00 0.  1.
         12    1    6    6    0    0  0.32468100456E+02 -0.43677168773E+02 -0.45829997076E+02  0.71149569578E+02  0.00000000000E+00 0. -1.
         -5    1    3    3    0  503  0.29905898665E+01 -0.42909790411E+02  0.50306046872E+02  0.66354970370E+02  0.47000000000E+01 0.  1.
         11    1    4    4    0    0  0.45878231134E+01  0.18078460452E+01  0.21095753284E+02  0.21664423252E+02  0.00000000000E+00 0. -1.
        -12    1    4    4    0    0 -0.74759636893E+02  0.52718343577E+02 -0.39536104883E+02  0.99656061768E+02  0.00000000000E+00 0.  1.
</event>
<event>
12    1  0.8196217E-002  0.2176191E+03  0.7818608E-02  0.1135791E+00
         21   -1    0    0  503  502  0.00000000000E+00  0.00000000000E+00  0.28666301172E+03  0.28666301172E+03  0.00000000000E+00 0.  1.
         21   -1    0    0  501  503 -0.00000000000E+00 -0.00000000000E+00 -0.16494119392E+03  0.16494119392E+03  0.00000000000E+00 0.  1.
          6    2    1    2  501    0  0.97611982984E+02 -0.88147652559E+02  0.69196552031E+02  0.22835551704E+03  0.17337811706E+03 0.  0.
         24    2    3    3    0    0  0.67345253482E+01  0.22192838680E+02  0.40584110734E+02  0.82497716044E+02  0.67977402039E+02 0.  0.
         -6    2    1    2    0  502 -0.97611982984E+02  0.88147652559E+02  0.52525265763E+02  0.22324868861E+03  0.17257741900E+03 0.  0.
        -24    2    5    5    0    0 -0.47033110742E+02 -0.22176695172E+02  0.12433272944E+02  0.95345827388E+02  0.78945051836E+02 0.  0.
          5    1    3    3  501    0  0.90877457636E+02 -0.11034049124E+03  0.28612441297E+02  0.14585780099E+03  0.47000000000E+01 0. -1.
        -11    1    4    4    0    0  0.24778558519E+02  0.17801727473E+01 -0.85858686950E+01  0.26284275119E+02  0.00000000000E+00 0.  1.
         12    1    4    4    0    0 -0.18044033171E+02  0.20412665933E+02  0.49169979429E+02  0.56213440925E+02  0.00000000000E+00 0. -1.
         -5    1    5    5    0  502 -0.50578872242E+02  0.11032434773E+03  0.40091992819E+02  0.12790286122E+03  0.47000000000E+01 0.  1.
         11    1    6    6    0    0  0.12920106383E+02  0.15142007812E+02 -0.85669418701E+01  0.21670303241E+02  0.00000000000E+00 0. -1.
        -12    1    6    6    0    0 -0.59953217125E+02 -0.37318702985E+02  0.21000214815E+02  0.73675524147E+02  0.00000000000E+00 0.  1.
</event>
<event>
12    1  0.8196217E-002  0.1951070E+03  0.7818608E-02  0.1154239E+00
         21   -1    0    0  503  502  0.00000000000E+00  0.00000000000E+00  0.39939897913E+03  0.39939897913E+03  0.00000000000E+00 0. -1.
         21   -1    0    0  501  503 -0.00000000000E+00 -0.00000000000E+00 -0.10123092744E+03  0.10123092744E+03  0.00000000000E+00 0.  1.
          6    2    1    2  501    0 -0.21556362996E+02  0.88345332031E+02  0.21349952240E+03  0.28922100970E+03  0.17261857347E+03 0.  0.
         24    2    3    3    0    0 -0.11097248325E+02  0.10519016232E+03  0.22851288946E+03  0.26391028910E+03  0.79008739212E+02 0.  0.
         -6    2    1    2    0  502  0.21556362996E+02 -0.88345332031E+02  0.84668529287E+02  0.21140889686E+03  0.17104206309E+03 0.  0.
        -24    2    5    5    0    0 -0.16134988071E+02 -0.38762309650E+02  0.10986590757E+03  0.14405823298E+03  0.83182945075E+02 0.  0.
          5    1    3    3  501    0 -0.10459114671E+02 -0.16844830292E+02 -0.15013367053E+02  0.25310720605E+02  0.47000000000E+01 0. -1.
        -11    1    4    4    0    0 -0.22082361152E+02  0.34938575530E+02  0.24932885218E+02  0.48269902625E+02  0.00000000000E+00 0.  1.
         12    1    4    4    0    0  0.10985112826E+02  0.70251586793E+02  0.20358000424E+03  0.21564038647E+03  0.00000000000E+00 0. -1.
         -5    1    5    5    0  502  0.37691351068E+02 -0.49583022381E+02 -0.25197378288E+02  0.67350663889E+02  0.47000000000E+01 0.  1.
         13    1    6    6    0    0 -0.16010515578E+02 -0.63485237560E+02  0.61930449708E+02  0.90122653079E+02  0.00000000000E+00 0. -1.
        -14    1    6    6    0    0 -0.12447249286E+00  0.24722927909E+02  0.47935457867E+02  0.53935579896E+02  0.00000000000E+00 0.  1.
</event>
<event>
12    1  0.8196217E-002  0.1792580E+03  0.7818608E-02  0.1168806E+00
         21   -1    0    0  503  502  0.00000000000E+00  0.00000000000E+00  0.35007762790E+02  0.35007762790E+02  0.00000000000E+00 0.  1.
         21   -1    0    0  501  503 -0.00000000000E+00 -0.00000000000E+00 -0.16130229309E+04  0.16130229309E+04  0.00000000000E+00 0.  1.
          6    2    1    2  501    0  0.35797012544E+02  0.28409523440E+02 -0.13336908519E+04  0.13456837394E+04  0.17333467918E+03 0.  0.
         24    2    3    3    0    0 -0.32238209347E+02 -0.21758055277E+02 -0.49977138177E+03  0.50747770865E+03  0.79053625055E+02 0.  0.
         -6    2    1    2    0  502 -0.35797012544E+02 -0.28409523440E+02 -0.24432431619E+03  0.30234695424E+03  0.17213594083E+03 0.  0.
        -24    2    5    5    0    0 -0.85209626370E+02 -0.11874718643E+01 -0.12890093863E+03  0.17378843610E+03  0.79529101768E+02 0.  0.
          5    1    3    3  501    0  0.68035221891E+02  0.50167578717E+02 -0.83391947014E+03  0.83820603079E+03  0.47000000000E+01 0. -1.
        -13    1    4    4    0    0  0.15928615360E+02  0.77635671378E+01 -0.28004125242E+03  0.28060131293E+03  0.00000000000E+00 0.  1.
         14    1    4    4    0    0 -0.48166824707E+02 -0.29521622415E+02 -0.21973012935E+03  0.22687639572E+03  0.00000000000E+00 0. -1.
         -5    1    5    5    0  502  0.49412613826E+02 -0.27222051575E+02 -0.11542337756E+03  0.12855851813E+03  0.47000000000E+01 0.  1.
         11    1    6    6    0    0  0.16628131778E+01 -0.20433304694E+02 -0.53027864496E+02  0.56852786223E+02  0.00000000000E+00 0. -1.
        -12    1    6    6    0    0 -0.86872439548E+02  0.19245832829E+02 -0.75873074133E+02  0.11693564988E+03  0.00000000000E+00 0.  1.
</event>
<event>
12    1  0.8196217E-002  0.2802454E+03  0.7818608E-02  0.1095732E+00
         21   -1    0    0  501  502  0.00000000000E+00  0.00000000000E+00  0.22594133596E+04  0.22594133596E+04  0.00000000000E+00 0. -1.
         21   -1    0    0  502  503 -0.00000000000E+00 -0.00000000000E+00 -0.35082501498E+02  0.35082501498E+02  0.00000000000E+00 0.  1.
         -6    2    1    2    0  503  0.20292391787E+03  0.82666588960E+02  0.97509043466E+03  0.10142071769E+04  0.17263534001E+03 0.  0.
        -24    2    3    3    0    0  0.12901257857E+03  0.10534910855E+03  0.49959660126E+03  0.53244597222E+03  0.78481011994E+02 0.  0.
          6    2    1    2  501    0 -0.20292391787E+03 -0.82666588960E+02  0.12492404234E+04  0.12802886841E+04  0.17471576299E+03 0.  0.
         24    2    5    5    0    0 -0.75480883791E+02 -0.52396223398E+02  0.31885173902E+03  0.34071260098E+03  0.77304055191E+02 0.  0.
          5    1    5    5  501    0 -0.12744303408E+03 -0.30270365562E+02  0.93038868438E+03  0.93957608313E+03  0.47000000000E+01 0. -1.
        -11    1    6    6    0    0 -0.74611936181E+02 -0.69461984699E+02  0.28699855470E+03  0.30456539321E+03  0.00000000000E+00 0.  1.
         12    1    6    6    0    0 -0.86894760958E+00  0.17065761302E+02  0.31853184313E+02  0.36147207771E+02  0.00000000000E+00 0. -1.
         -5    1    3    3    0  503  0.73911339304E+02 -0.22682519585E+02  0.47549383340E+03  0.48176120472E+03  0.47000000000E+01 0.  1.
         11    1    4    4    0    0  0.31682882831E+02  0.30793610547E+02  0.25546791364E+03  0.25926030629E+03  0.00000000000E+00 0. -1.
        -12    1    4    4    0    0  0.97329695738E+02  0.74555497998E+02  0.24412868762E+03  0.27318566593E+03  0.00000000000E+00 0.  1.
</event>
<event>
12    1  0.8196217E-002  0.2260812E+03  0.7818608E-02  0.1130379E+00
         21   -1    0    0  501  502  0.00000000000E+00  0.00000000000E+00  0.16390762775E+03  0.16390762775E+03  0.00000000000E+00 0. -1.
         21   -1    0    0  502  503 -0.00000000000E+00 -0.00000000000E+00 -0.36131618135E+03  0.36131618135E+03  0.00000000000E+00 0. -1.
         -6    2    1    2    0  503 -0.14239592452E+03 -0.25306100751E+02 -0.20169351438E+03  0.29910203863E+03  0.16692740253E+03 0.  0.
        -24    2    3    3    0    0 -0.65708525252E+01 -0.14432855513E+02 -0.82024367220E+02  0.11769235745E+03  0.82897592023E+02 0.  0.
          6    2    1    2  501    0  0.14239592452E+03  0.25306100751E+02  0.42849607843E+01  0.22612177046E+03  0.17376908855E+03 0.  0.
         24    2    5    5    0    0  0.55460303547E+02  0.74203147431E+02  0.14229021770E+02  0.12577388700E+03  0.83872839651E+02 0.  0.
          5    1    5    5  501    0  0.86935620972E+02 -0.48897046680E+02 -0.99440609855E+01  0.10034788347E+03  0.47000000000E+01 0. -1.
        -11    1    6    6    0    0  0.30961761774E+02 -0.12754333808E+02 -0.36332265706E+01  0.33682399831E+02  0.00000000000E+00 0.  1.
         12    1    6    6    0    0  0.24498541773E+02  0.86957481239E+02  0.17862248340E+02  0.92091487165E+02  0.00000000000E+00 0. -1.
         -5    1    3    3    0  503 -0.13582507199E+03 -0.10873245238E+02 -0.11966914716E+03  0.18140968118E+03  0.47000000000E+01 0.  1.
         11    1    4    4    0    0 -0.33080627345E+02 -0.90309390569E+01 -0.83835285005E+02  0.90577264132E+02  0.00000000000E+00 0. -1.
        -12    1    4    4    0    0  0.26509774820E+02 -0.54019164565E+01  0.18109177852E+01  0.27115093318E+02  0.00000000000E+00 0.  1.
</event>
<event>
12    1  0.8196217E-002  0.1849357E+03  0.7818608E-02  0.1163181E+00
         21   -1    0    0  501  502  0.00000000000E+00  0.00000000000E+00  0.55814350164E+03  0.55814350164E+03  0.00000000000E+00 0.  1.
         21   -1    0    0  502  503 -0.00000000000E+00 -0.00000000000E+00 -0.71071603957E+02  0.71071603957E+02  0.00000000000E+00 0.  1.
         -6    2    1    2    0  503  0.47055143634E+01  0.69916657305E+02  0.12631706024E+03  0.22395805851E+03  0.17114535177E+03 0.  0.
        -24    2    3    3    0    0 -0.50457049589E+02  0.25706394362E+02  0.27331552054E+02  0.10223017904E+03  0.80605602808E+02 0.  0.
          6    2    1    2  501    0 -0.47055143634E+01 -0.69916657305E+02  0.36075483744E+03  0.40525704708E+03  0.17081785807E+03 0.  0.
         24    2    5    5    0    0 -0.16856136017E+02  0.19284745181E+02  0.21307974822E+03  0.23224100797E+03  0.88751765977E+02 0.  0.
          5    1    5    5  501    0  0.12150621654E+02 -0.89201402485E+02  0.14767508923E+03  0.17301603911E+03  0.47000000000E+01 0. -1.
        -11    1    6    6    0    0 -0.19965915593E+02 -0.31433573108E+02  0.56894401427E+02  0.67997648618E+02  0.00000000000E+00 0.  1.
         12    1    6    6    0    0  0.31097795761E+01  0.50718318288E+02  0.15618534679E+03  0.16424335935E+03  0.00000000000E+00 0. -1.
         -5    1    3    3    0  503  0.55162563953E+02  0.44210262943E+02  0.98985508184E+02  0.12172787948E+03  0.47000000000E+01 0.  1.
         11    1    4    4    0    0 -0.38236070182E+02 -0.20056041096E+02  0.33249706850E+02  0.54495732430E+02  0.00000000000E+00 0. -1.
        -12    1    4    4    0    0 -0.12220979407E+02  0.45762435458E+02 -0.59181547968E+01  0.47734446608E+02  0.00000000000E+00 0.  1.
</event>
<event>
12    1  0.8196217E-002  0.1750214E+03  0.7818608E-02  0.1172835E+00
         21   -1    0    0  503  502  0.00000000000E+00  0.00000000000E+00  0.44517911848E+02  0.44517911848E+02  0.00000000000E+00 0.  1.
         21   -1    0    0  501  503 -0.00000000000E+00 -0.00000000000E+00 -0.72153749081E+03  0.72153749081E+03  0.00000000000E+00 0.  1.
          6    2    1    2  501    0  0.22555893119E+02 -0.15448698979E+02 -0.42379046743E+03  0.45850938613E+03  0.17287297728E+03 0.  0.
         24    2    3    3    0    0 -0.22617892632E+02  0.28276660058E+02 -0.11870817965E+03  0.14698110450E+03  0.78744362289E+02 0.  0.
         -6    2    1    2    0  502 -0.22555893119E+02  0.15448698979E+02 -0.25322911153E+03  0.30754601652E+03  0.17237209385E+03 0.  0.
        -24    2    5    5    0    0  0.36957330093E+02  0.29423529720E+02 -0.21478725728E+03  0.23517899510E+03  0.83330699608E+02 0.  0.
          5    1    3    3  501    0  0.45173785751E+02 -0.43725359037E+02 -0.30508228778E+03  0.31152828164E+03  0.47000000000E+01 0. -1.
        -13    1    4    4    0    0  0.21560075864E+02 -0.63289773803E+01 -0.67019138275E+02  0.70685625987E+02  0.00000000000E+00 0.  1.
         14    1    4    4    0    0 -0.44177968497E+02  0.34605637438E+02 -0.51689041377E+02  0.76295478513E+02  0.00000000000E+00 0. -1.
         -5    1    5    5    0  502 -0.59513223212E+02 -0.13974830741E+02 -0.38441854246E+02  0.72367021420E+02  0.47000000000E+01 0.  1.
         13    1    6    6    0    0  0.41035522622E+02 -0.14054887218E+02 -0.58010405621E+02  0.72433839688E+02  0.00000000000E+00 0. -1.
        -14    1    6    6    0    0 -0.40781925293E+01  0.43478416939E+02 -0.15677685166E+03  0.16274515541E+03  0.00000000000E+00 0.  1.
</event>
<event>
12    1  0.8196217E-002  0.2191562E+03  0.7818608E-02  0.1135033E+00
         21   -1    0    0  503  502  0.00000000000E+00  0.00000000000E+00  0.17909755075E+03  0.17909755075E+03  0.00000000000E+00 0. -1.
         21   -1    0    0  501  503 -0.00000000000E+00 -0.00000000000E+00 -0.36916600319E+03  0.36916600319E+03  0.00000000000E+00 0. -1.
          6    2    1    2  501    0  0.13555601867E+03  0.79223050454E+01 -0.24120662251E+03  0.32589886772E+03  0.17202104558E+03 0.  0.
         24    2    3    3    0    0  0.65096218363E+01  0.13131539868E+01 -0.47452924677E+02  0.92962741630E+02  0.79662988402E+02 0.  0.
         -6    2    1    2    0  502 -0.13555601867E+03 -0.79223050454E+01  0.51138170072E+02  0.22236468622E+03  0.16850146624E+03 0.  0.
        -24    2    5    5    0    0 -0.15706082466E+03  0.14665249189E+02  0.63933913748E+02  0.18832830358E+03  0.80602930631E+02 0.  0.
          5    1    3    3  501    0  0.12904639683E+03  0.66091510586E+01 -0.19375369783E+03  0.23293612609E+03  0.47000000000E+01 0. -1.
        -13    1    4    4    0    0  0.29447814569E+02 -0.29155200670E+02 -0.20283951831E+02  0.46137167348E+02  0.00000000000E+00 0.  1.
         14    1    4    4    0    0 -0.22938192733E+02  0.30468354657E+02 -0.27168972845E+02  0.46825574282E+02  0.00000000000E+00 0. -1.
         -5    1    5    5    0  502  0.21504805987E+02 -0.22587554235E+02 -0.12795743675E+02  0.34036382638E+02  0.47000000000E+01 0.  1.
         13    1    6    6    0    0 -0.92446886832E+02  0.19523815741E+01  0.78021138417E+02  0.12098568807E+03  0.00000000000E+00 0. -1.
        -14    1    6    6    0    0 -0.64613937827E+02  0.12712867615E+02 -0.14087224669E+02  0.67342615508E+02  0.00000000000E+00 0.  1.
</event>
<event>
12    1  0.8196217E-002  0.1885951E+03  0.7818608E-02  0.1160114E+00
         21   -1    0    0  503  502  0.00000000000E+00  0.00000000000E+00  0.25931488866E+03  0.25931488866E+03  0.00000000000E+00 0. -1.
         21   -1    0    0  501  503 -0.00000000000E+00 -0.00000000000E+00 -0.22944859006E+03  0.22944859006E+03  0.00000000000E+00 0. -1.
          6    2    1    2  501    0 -0.76777830224E+02 -0.25713251960E+01 -0.14102129791E+03  0.23548912580E+03  0.17224016657E+03 0.  0.
         24    2    3    3    0    0 -0.68421735592E+02  0.59309769412E+02 -0.65176471295E+02  0.13713455340E+03  0.79741649578E+02 0.  0.
         -6    2    1    2    0  502  0.76777830224E+02  0.25713251960E+01  0.17088759650E+03  0.25327435292E+03  0.17042265190E+03 0.  0.
        -24    2    5    5    0    0 -0.26016789862E+02  0.10202566017E+02  0.78795087561E+02  0.11497001474E+03  0.78920673833E+02 0.  0.
          5    1    3    3  501    0 -0.83560946325E+01 -0.61881094608E+02 -0.75844826614E+02  0.98354572397E+02  0.47000000000E+01 0. -1.
        -13    1    4    4    0    0 -0.59406469212E+01 -0.18172161529E+02 -0.19553282858E+01  0.19218273835E+02  0.00000000000E+00 0.  1.
         14    1    4    4    0    0 -0.62481088670E+02  0.77481930941E+02 -0.63221143009E+02  0.11791627957E+03  0.00000000000E+00 0. -1.
         -5    1    5    5    0  502  0.10279462009E+03 -0.76312408215E+01  0.92092508943E+02  0.13830433818E+03  0.47000000000E+01 0.  1.
         11    1    6    6    0    0  0.18561206703E+02 -0.21744016972E+02  0.31627588224E+02  0.42633613560E+02  0.00000000000E+00 0. -1.
        -12    1    6    6    0    0 -0.44577996565E+02  0.31946582989E+02  0.47167499337E+02  0.72336401183E+02  0.00000000000E+00 0.  1.
</event>
<event>
12    1  0.8196217E-002  0.2202640E+03  0.7818608E-02  0.1133780E+00
         21   -1    0    0  503  502  0.00000000000E+00  0.00000000000E+00  0.42718554303E+03  0.42718554303E+03  0.00000000000E+00 0.  1.
         21   -1    0    0  501  503 -0.00000000000E+00 -0.00000000000E+00 -0.14537175084E+03  0.14537175084E+03  0.00000000000E+00 0. -1.
          6    2    1    2  501    0 -0.12054279506E+03 -0.64278880013E+02  0.65934076172E+01  0.22036262024E+03  0.17278272922E+03 0.  0.
         24    2    3    3    0    0  0.61531230604E+01 -0.77808217101E+01 -0.84422759171E+01  0.80748695286E+02  0.79691139143E+02 0.  0.
         -6    2    1    2    0  502  0.12054279506E+03  0.64278880013E+02  0.27522038457E+03  0.35219467363E+03  0.17214089634E+03 0.  0.
        -24    2    5    5    0    0  0.59085484122E+01  0.50570616739E+02  0.17530855327E+03  0.19944196164E+03  0.80322531029E+02 0.  0.
          5    1    3    3  501    0 -0.12669591813E+03 -0.56498058303E+02  0.15035683534E+02  0.13961392495E+03  0.47000000000E+01 0. -1.
        -13    1    4    4    0    0  0.96860562790E+01 -0.17736722992E+02  0.32607029165E+02  0.38361821903E+02  0.00000000000E+00 0.  1.
         14    1    4    4    0    0 -0.35329332186E+01  0.99559012817E+01 -0.41049305082E+02  0.42386873383E+02  0.00000000000E+00 0. -1.
         -5    1    5    5    0  502  0.11463424665E+03  0.13708263275E+02  0.99911831299E+02  0.15275271199E+03  0.47000000000E+01 0.  1.
         13    1    6    6    0    0 -0.62000296650E+01  0.51936855106E+01  0.14111898613E+03  0.14135056768E+03  0.00000000000E+00 0. -1.
        -14    1    6    6    0    0  0.12108578077E+02  0.45376931228E+02  0.34189567137E+02  0.58091393956E+02  0.00000000000E+00 0.  1.
</event>
<event>
12    1  0.8196217E-002  0.1898121E+03  0.7818608E-02  0.1158844E+00
         21   -1    0    0  501  502  0.00000000000E+00  0.00000000000E+00  0.35964260874E+03  0.35964260874E+03  0.00000000000E+00 0. -1.
         21   -1    0    0  502  503 -0.00000000000E+00 -0.00000000000E+00 -0.13672018925E+03  0.13672018925E+03  0.00000000000E+00 0.  1.
         -6    2    1    2    0  503 -0.70474303057E+02  0.37626252165E+02 -0.17911816283E+02  0.18972004801E+03  0.17114467918E+03 0.  0.
        -24    2    3    3    0    0 -0.75067685474E+01 -0.27831443397E+02 -0.42053194797E+02  0.95621607708E+02  0.80895487219E+02 0.  0.
          6    2    1    2  501    0  0.70474303057E+02 -0.37626252165E+02  0.24083423578E+03  0.30664274998E+03  0.17218096512E+03 0.  0.
         24    2    5    5    0    0  0.27696095569E+02  0.22083057027E+02  0.20858850404E+03  0.22628695457E+03  0.80261364772E+02 0.  0.
          5    1    5    5  501    0  0.42778207488E+02 -0.59709309192E+02  0.32245731740E+02  0.80355795407E+02  0.47000000000E+01 0. -1.
        -13    1    6    6    0    0  0.39150314773E+02  0.17707033322E+02  0.44927434615E+02  0.62167198400E+02  0.00000000000E+00 0.  1.
         14    1    6    6    0    0 -0.11454219204E+02  0.43760237052E+01  0.16366106942E+03  0.16411975617E+03  0.00000000000E+00 0. -1.
         -5    1    3    3    0  503 -0.62967534509E+02  0.65457695562E+02  0.24141378514E+02  0.94098440301E+02  0.47000000000E+01 0.  1.
         11    1    4    4    0    0  0.28678732579E+02  0.98122827904E+01 -0.28662065017E+02  0.41716478362E+02  0.00000000000E+00 0. -1.
        -12    1    4    4    0    0 -0.36185501126E+02 -0.37643726187E+02 -0.13391129780E+02  0.53905129346E+02  0.00000000000E+00 0.  1.
</event>
<event>
12    1  0.8196217E-002  0.2121932E+03  0.7818608E-02  0.1140087E+00
         21   -1    0    0  503  502  0.00000000000E+00  0.00000000000E+00  0.88182013759E+02  0.88182013759E+02  0.00000000000E+00 0. -1.
         21   -1    0    0  501  503 -0.00000000000E+00 -0.00000000000E+00 -0.57096129962E+03  0.57096129962E+03  0.00000000000E+00 0. -1.
          6    2    1    2  501    0  0.66333638856E+02  0.10213131273E+03 -0.35055554754E+03  0.40912516421E+03  0.17223022787E+03 0.  0.
         24    2    3    3    0    0  0.44306289103E+02 -0.13994055875E+02 -0.16657621003E+03  0.19039978387E+03  0.79659042786E+02 0.  0.
         -6    2    1    2    0  502 -0.66333638856E+02 -0.10213131273E+03 -0.13222373831E+03  0.25001814917E+03  0.17376708910E+03 0.  0.
        -24    2    5    5    0    0 -0.46306374357E+02 -0.21051142553E+02 -0.87897505036E+00  0.94298458197E+02  0.79397705964E+02 0.  0.
          5    1    3    3  501    0  0.22027349753E+02  0.11612536860E+03 -0.18397933752E+03  0.21872538034E+03  0.47000000000E+01 0. -1.
        -11    1    4    4    0    0  0.25855321570E+02 -0.29585845776E+02 -0.16084236201E+03  0.16557199444E+03  0.00000000000E+00 0.  1.
         12    1    4    4    0    0  0.18450967533E+02  0.15591789901E+02 -0.57338480142E+01  0.24827789436E+02  0.00000000000E+00 0. -1.
         -5    1    5    5    0  502 -0.20027264498E+02 -0.81080170175E+02 -0.13134476326E+03  0.15571969097E+03  0.47000000000E+01 0.  1.
         13    1    6    6    0    0 -0.62847519141E+02 -0.34276383452E+02 -0.78178263760E+01  0.72012495680E+02  0.00000000000E+00 0. -1.
        -14    1    6    6    0    0  0.16541144784E+02  0.13225240899E+02  0.69388513257E+01  0.22285962517E+02  0.00000000000E+00 0.  1.
</event>
<event>
12    1  0.8196217E-002  0.2042771E+03  0.7818608E-02  0.1146226E+00
         21   -1    0    0  503  502  0.00000000000E+00  0.00000000000E+00  0.42805823250E+03  0.42805823250E+03  0.00000000000E+00 0. -1.
         21   -1    0    0  501  503 -0.00000000000E+00 -0.00000000000E+00 -0.13093482903E+03  0.13093482903E+03  0.00000000000E+00 0.  1.
          6    2    1    2  501    0 -0.24205975022E+02 -0.10734968099E+03  0.70020280665E+01  0.20416979895E+03  0.17183246251E+03 0.  0.
         24    2    3    3    0    0 -0.13472730634E+02 -0.85500532750E+02 -0.60839379032E+02  0.13194006594E+03  0.78834607806E+02 0.  0.
         -6    2    1    2    0  502  0.24205975022E+02  0.10734968099E+03  0.29012137540E+03  0.35482326257E+03  0.17210244613E+03 0.  0.
        -24    2    5    5    0    0 -0.10189182434E+02  0.98619138618E+02  0.29252541547E+03  0.31894682692E+03  0.79538706080E+02 0.  0.
          5    1    3    3  501    0 -0.10733244387E+02 -0.21849148245E+02  0.67841407099E+02  0.72229733014E+02  0.47000000000E+01 0. -1.
        -13    1    4    4    0    0  0.31027787643E+02 -0.49192269331E+02 -0.41070646492E+02  0.71199725921E+02  0.00000000000E+00 0.  1.
         14    1    4    4    0    0 -0.44500518277E+02 -0.36308263419E+02 -0.19768732540E+02  0.60740340019E+02  0.00000000000E+00 0. -1.
         -5    1    5    5    0  502  0.34395157456E+02  0.87305423769E+01 -0.24040400713E+01  0.35876435654E+02  0.47000000000E+01 0.  1.
         13    1    6    6    0    0  0.11090169044E+02  0.10413773809E+03  0.25073036770E+03  0.27172297958E+03  0.00000000000E+00 0. -1.
        -14    1    6    6    0    0 -0.21279351478E+02 -0.55185994727E+01  0.41795047769E+02  0.47223847339E+02  0.00000000000E+00 0.  1.
</event>
<event>
12    1  0.8196217E-002  0.2486405E+03  0.7818608E-02  0.1114275E+00
         21   -1    0    0  503  502  0.00000000000E+00  0.00000000000E+00  0.23426881382E+04  0.23426881382E+04  0.00000000000E+00 0. -1.
         21   -1    0    0  501  503 -0.00000000000E+00 -0.00000000000E+00 -0.16747339133E+03  0.16747339133E+03  0.00000000000E+00 0. -1.
          6    2    1    2  501    0 -0.16911518870E+03 -0.56508541960E+02 -0.64879769063E+02  0.25631026044E+03  0.17231483631E+03 0.  0.
         24    2    3    3    0    0 -0.18026235661E+03 -0.79183845204E+01 -0.59592011579E+02  0.20595836742E+03  0.79438172429E+02 0.  0.
         -6    2    1    2    0  502  0.16911518870E+03  0.56508541960E+02  0.22400945160E+04  0.22538512691E+04  0.17328860456E+03 0.  0.
        -24    2    5    5    0    0  0.54375651210E+02  0.83008093731E+02  0.13404986832E+04  0.13465684356E+04  0.80391398522E+02 0.  0.
          5    1    3    3  501    0  0.11147167912E+02 -0.48590157440E+02 -0.52877574833E+01  0.50351893030E+02  0.47000000000E+01 0. -1.
        -11    1    4    4    0    0 -0.15109354798E+03 -0.75262310424E+01 -0.14126435964E+02  0.15193900286E+03  0.00000000000E+00 0.  1.
         12    1    4    4    0    0 -0.29168808629E+02 -0.39215347798E+00 -0.45465575615E+02  0.54019364557E+02  0.00000000000E+00 0. -1.
         -5    1    5    5    0  502  0.11473953749E+03 -0.26499551771E+02  0.89959583274E+03  0.90728283351E+03  0.47000000000E+01 0.  1.
         13    1    6    6    0    0  0.74030691309E+02  0.50523488910E+02  0.96714131267E+03  0.97128548062E+03  0.00000000000E+00 0. -1.
        -14    1    6    6    0    0 -0.19655040100E+02  0.32484604821E+02  0.37335737058E+03  0.37528295501E+03  0.00000000000E+00 0.  1.
</event>
<event>
12    1  0.8196217E-002  0.2351845E+03  0.7818608E-02  0.1123280E+00
         21   -1    0    0  501  502  0.00000000000E+00  0.00000000000E+00  0.31239600270E+03  0.31239600270E+03  0.00000000000E+00 0.  1.
         21   -1    0    0  502  503 -0.00000000000E+00 -0.00000000000E+00 -0.18047656424E+03  0.18047656424E+03  0.00000000000E+00 0. -1.
         -6    2    1    2    0  503 -0.98213064723E+02  0.12801533104E+03  0.27030353890E+02  0.23535854570E+03  0.16920187333E+03 0.  0.
        -24    2    3    3    0    0 -0.12583668207E+03  0.77415821930E+02 -0.63682779336E+01  0.16856832812E+03  0.80911348039E+02 0.  0.
          6    2    1    2  501    0  0.98213064723E+02 -0.12801533104E+03  0.10488908457E+03  0.25751402125E+03  0.17110821141E+03 0.  0.
         24    2    5    5    0    0  0.72497202425E+01 -0.65881384141E+02  0.10332469965E+03  0.14724392241E+03  0.81313368576E+02 0.  0.
          5    1    5    5  501    0  0.90963344481E+02 -0.62133946898E+02  0.15643849210E+01  0.11027009883E+03  0.47000000000E+01 0. -1.
        -13    1    6    6    0    0  0.77947005965E+01 -0.73107993897E+02  0.40375997234E+02  0.83879421086E+02  0.00000000000E+00 0.  1.
         14    1    6    6    0    0 -0.54498035398E+00  0.72266097561E+01  0.62948702419E+02  0.63364501327E+02  0.00000000000E+00 0. -1.
         -5    1    3    3    0  503  0.27623617343E+02  0.50599509110E+02  0.33398631824E+02  0.66790217584E+02  0.47000000000E+01 0.  1.
         11    1    4    4    0    0 -0.68584263824E+02  0.83494624870E+02  0.10535188957E+02  0.10856400800E+03  0.00000000000E+00 0. -1.
        -12    1    4    4    0    0 -0.57252418242E+02 -0.60788029404E+01 -0.16903466890E+02  0.60004320117E+02  0.00000000000E+00 0.  1.
</event>
<event>
12    1  0.8196217E-002  0.2998623E+03  0.7818608E-02  0.1085554E+00
         21   -1    0    0  503  502  0.00000000000E+00  0.00000000000E+00  0.11666986025E+03  0.11666986025E+03  0.00000000000E+00 0.  1.
         21   -1    0    0  501  503 -0.00000000000E+00 -0.00000000000E+00 -0.12238113485E+04  0.12238113485E+04  0.00000000000E+00 0. -1.
          6    2    1    2  501    0  0.34052478420E+02 -0.24339804587E+03 -0.96251351191E+03  0.10075627969E+04  0.16836967977E+03 0.  0.
         24    2    3    3    0    0 -0.44316238370E+02 -0.12832938947E+03 -0.53392750102E+03  0.55690715210E+03  0.81453290492E+02 0.  0.
         -6    2    1    2    0  502 -0.34052478420E+02  0.24339804587E+03 -0.14462797639E+03  0.33291841189E+03  0.17179999245E+03 0.  0.
        -24    2    5    5    0    0  0.17080565893E+02  0.17288283519E+03 -0.39174406000E+02  0.19606254368E+03  0.82010161035E+02 0.  0.
          5    1    3    3  501    0  0.78368716790E+02 -0.11506865640E+03 -0.42858601089E+03  0.45065564479E+03  0.47000000000E+01 0. -1.
        -13    1    4    4    0    0 -0.32949658640E+02 -0.12078603447E+03 -0.52688272031E+03  0.54155364193E+03  0.00000000000E+00 0.  1.
         14    1    4    4    0    0 -0.11366579730E+02 -0.75433549989E+01 -0.70447807147E+01  0.15353510175E+02  0.00000000000E+00 0. -1.
         -5    1    5    5    0  502 -0.51133044313E+02  0.70515210675E+02 -0.10545357039E+03  0.13685586821E+03  0.47000000000E+01 0.  1.
         11    1    6    6    0    0 -0.31154099103E+02  0.86166469659E+02 -0.76390246523E+01  0.91943423267E+02  0.00000000000E+00 0. -1.
        -12    1    6    6    0    0  0.48234664996E+02  0.86716365533E+02 -0.31535381348E+02  0.10411912041E+03  0.00000000000E+00 0.  1.
</event>
<event>
12    1  0.8196217E-002  0.2531817E+03  0.7818608E-02  0.1111364E+00
         21   -1    0    0  501  502  0.00000000000E+00  0.00000000000E+00  0.15634621299E+03  0.15634621299E+03  0.00000000000E+00 0.  1.
         21   -1    0    0  502  503 -0.00000000000E+00 -0.00000000000E+00 -0.45360446538E+03  0.45360446538E+03  0.00000000000E+00 0.  1.
         -6    2    1    2    0  503  0.17944151262E+03 -0.48070762765E+02 -0.24389004536E+03  0.35154418282E+03  0.17202006732E+03 0.  0.
        -24    2    3    3    0    0  0.20364088537E+03 -0.29477282294E+02 -0.22655909759E+03  0.31613544226E+03  0.79209044854E+02 0.  0.
          6    2    1    2  501    0 -0.17944151262E+03  0.48070762765E+02 -0.53368207031E+02  0.25840649555E+03  0.17151004849E+03 0.  0.
         24    2    5    5    0    0 -0.18764067700E+03  0.66041969776E-01 -0.53894295606E+02  0.20947750328E+03  0.75942091439E+02 0.  0.
          5    1    5    5  501    0  0.81991643803E+01  0.48004720795E+02  0.52608857507E+00  0.48928992267E+02  0.47000000000E+01 0. -1.
        -11    1    6    6    0    0 -0.28509230599E+02 -0.86710722259E+01  0.17813495622E+02  0.34717205377E+02  0.00000000000E+00 0.  1.
         12    1    6    6    0    0 -0.15913144641E+03  0.87371141957E+01 -0.71707791228E+02  0.17476029790E+03  0.00000000000E+00 0. -1.
         -5    1    3    3    0  503 -0.24199372744E+02 -0.18593480471E+02 -0.17330947769E+02  0.35408740557E+02  0.47000000000E+01 0.  1.
         11    1    4    4    0    0  0.64204583131E+02  0.14303275498E+02 -0.11419649809E+03  0.13178638913E+03  0.00000000000E+00 0. -1.
        -12    1    4    4    0    0  0.13943630224E+03 -0.43780557792E+02 -0.11236259951E+03  0.18434905313E+03  0.00000000000E+00 0.  1.
</event>
<event>
12    1  0.8196217E-002  0.2007330E+03  0.7818608E-02  0.1149470E+00
         21   -1    0    0  501  502  0.00000000000E+00  0.00000000000E+00  0.19669183296E+03  0.19669183296E+03  0.00000000000E+00 0.  1.
         21   -1    0    0  502  503 -0.00000000000E+00 -0.00000000000E+00 -0.23879475707E+03  0.23879475707E+03  0.00000000000E+00 0.  1.
         -6    2    1    2    0  503  0.98721661168E+02  0.65254091598E+01 -0.10507253417E+03  0.22510858438E+03  0.17275731526E+03 0.  0.
        -24    2    3    3    0    0  0.19035456546E+02 -0.78575207884E+01  0.11984007938E+02  0.82696913752E+02  0.79190112129E+02 0.  0.
          6    2    1    2  501    0 -0.98721661168E+02 -0.65254091598E+01  0.62969610049E+02  0.21037800565E+03  0.17465733916E+03 0.  0.
         24    2    5    5    0    0  0.10478750737E+02 -0.32891675522E+02  0.44154907917E+02  0.96378036445E+02  0.78405379154E+02 0.  0.
          5    1    5    5  501    0 -0.10920041190E+03  0.26366266362E+02  0.18814702132E+02  0.11399996920E+03  0.47000000000E+01 0. -1.
        -11    1    6    6    0    0 -0.29788263665E+02 -0.31197981690E+02  0.33707027345E+02  0.54743204200E+02  0.00000000000E+00 0.  1.
         12    1    6    6    0    0  0.40267014402E+02 -0.16936938322E+01  0.10447880572E+02  0.41634832245E+02  0.00000000000E+00 0. -1.
         -5    1    3    3    0  503  0.79686204622E+02  0.14382929948E+02 -0.11705654210E+03  0.14241167063E+03  0.47000000000E+01 0.  1.
         11    1    4    4    0    0  0.13257623856E+02 -0.36539009921E+02 -0.16164565745E+02  0.42096995404E+02  0.00000000000E+00 0. -1.
        -12    1    4    4    0    0  0.57778326897E+01  0.28681489133E+02  0.28148573684E+02  0.40599918348E+02  0.00000000000E+00 0.  1.
</event>
<event>
12    1  0.8196217E-002  0.1967780E+03  0.7818608E-02  0.1153193E+00
         21   -1    0    0  503  502  0.00000000000E+00  0.00000000000E+00  0.61733355831E+02  0.61733355831E+02  0.00000000000E+00 0. -1.
         21   -1    0    0  501  503 -0.00000000000E+00 -0.00000000000E+00 -0.83957465258E+03  0.83957465258E+03  0.00000000000E+00 0. -1.
          6    2    1    2  501    0  0.40721823791E+02  0.86169063809E+02 -0.61861293524E+03  0.64817710609E+03  0.16842868733E+03 0.  0.
         24    2    3    3    0    0 -0.37115453813E+02  0.53027705771E+02 -0.42545054781E+03  0.43724870754E+03  0.77387137939E+02 0.  0.
         -6    2    1    2    0  502 -0.40721823791E+02 -0.86169063809E+02 -0.15922836151E+03  0.25313090233E+03  0.17215750960E+03 0.  0.
        -24    2    5    5    0    0 -0.15259510492E+02 -0.84983883273E+02 -0.29416251164E+02  0.12075640311E+03  0.79130777715E+02 0.  0.
          5    1    3    3  501    0  0.77837277604E+02  0.33141358038E+02 -0.19316238743E+03  0.21092839855E+03  0.47000000000E+01 0. -1.
        -13    1    4    4    0    0 -0.36592381819E+02  0.51100986498E+02 -0.42878247970E+03  0.43336442877E+03  0.00000000000E+00 0.  1.
         14    1    4    4    0    0 -0.52307199401E+00  0.19267192731E+01  0.33319318839E+01  0.38842787680E+01  0.00000000000E+00 0. -1.
         -5    1    5    5    0  502 -0.25462313299E+02 -0.11851805360E+01 -0.12981211035E+03  0.13237449922E+03  0.47000000000E+01 0.  1.
         13    1    6    6    0    0  0.14358663350E+02 -0.32976568633E+02  0.21736677956E+02  0.42025093225E+02  0.00000000000E+00 0. -1.
        -14    1    6    6    0    0 -0.29618173843E+02 -0.52007314640E+02 -0.51152929120E+02  0.78731309880E+02  0.00000000000E+00 0.  1.
</event>
<event>
12    1  0.8196217E-002  0.1951874E+03  0.7818608E-02  0.1153975E+00
         21   -1    0    0  503  502  0.00000000000E+00  0.00000000000E+00  0.38419083198E+02  0.38419083198E+02  0.00000000000E+00 0.  1.
         21   -1    0    0  501  503 -0.00000000000E+00 -0.00000000000E+00 -0.12063074567E+04  0.12063074567E+04  0.00000000000E+00 0.  1.
          6    2    1    2  501    0 -0.82712104235E+02  0.41223768074E+02 -0.84743478499E+03  0.86950846209E+03  0.17134339671E+03 0.  0.
         24    2    3    3    0    0 -0.57746164019E+01  0.61958430839E+02 -0.62581732639E+03  0.63395445294E+03  0.79866945835E+02 0.  0.
         -6    2    1    2    0  502  0.82712104235E+02 -0.41223768074E+02 -0.32045358849E+03  0.37521807779E+03  0.17192269274E+03 0.  0.
        -24    2    5    5    0    0  0.20875419930E+02 -0.47923536783E+02 -0.29055505309E+03  0.30604673368E+03  0.80684049117E+02 0.  0.
          5    1    3    3  501    0 -0.76937487834E+02 -0.20734662766E+02 -0.22161745859E+03  0.23555400915E+03  0.47000000000E+01 0. -1.
        -11    1    4    4    0    0 -0.13104318240E+02  0.63794168253E+02 -0.25910894125E+03  0.26716822883E+03  0.00000000000E+00 0.  1.
         12    1    4    4    0    0  0.73297018381E+01 -0.18357374140E+01 -0.36670838514E+03  0.36678622411E+03  0.00000000000E+00 0. -1.
         -5    1    5    5    0  502  0.61836684306E+02  0.66997687093E+01 -0.29898535398E+02  0.69171344108E+02  0.47000000000E+01 0.  1.
         11    1    6    6    0    0 -0.21259866744E+02 -0.82063347029E+00 -0.23869512754E+02  0.31975131154E+02  0.00000000000E+00 0. -1.
        -12    1    6    6    0    0  0.42135286673E+02 -0.47102903313E+02 -0.26668554034E+03  0.27407160252E+03  0.00000000000E+00 0.  1.
</event>
<event>
12    1  0.8196217E-002  0.2813937E+03  0.7818608E-02  0.1095019E+00
         21   -1    0    0  501  502  0.00000000000E+00  0.00000000000E+00  0.16232321711E+03  0.16232321711E+03  0.00000000000E+00 0.  1.
         21   -1    0    0  502  503 -0.00000000000E+00 -0.00000000000E+00 -0.81369095448E+03  0.81369095448E+03  0.00000000000E+00 0.  1.
         -6    2    1    2    0  503 -0.21018440667E+03 -0.71448236095E+02 -0.63527952598E+03  0.69481112569E+03  0.17291642202E+03 0.  0.
        -24    2    3    3    0    0 -0.16638220292E+03 -0.14206392749E+02 -0.30598135844E+03  0.35768409499E+03  0.80177684256E+02 0.  0.
          6    2    1    2  501    0  0.21018440667E+03  0.71448236095E+02 -0.16088211391E+02  0.28120304589E+03  0.17185455253E+03 0.  0.
         24    2    5    5    0    0  0.14185667173E+03  0.24438377825E+02  0.54669075145E+02  0.17208251742E+03  0.76831864475E+02 0.  0.
          5    1    5    5  501    0  0.68327734945E+02  0.47009858270E+02 -0.70757286536E+02  0.10912052848E+03  0.47000000000E+01 0. -1.
        -11    1    6    6    0    0  0.64969213766E+02  0.47374024251E+02  0.12284225392E+02  0.81340021542E+02  0.00000000000E+00 0.  1.
         12    1    6    6    0    0  0.76887457963E+02 -0.22935646426E+02  0.42384849753E+02  0.90742495875E+02  0.00000000000E+00 0. -1.
         -5    1    3    3    0  503 -0.43802203750E+02 -0.57241843346E+02 -0.32929816754E+03  0.33712703070E+03  0.47000000000E+01 0.  1.
         13    1    4    4    0    0 -0.14308961040E+02 -0.12027300378E+02 -0.33564916569E+01  0.18991270539E+02  0.00000000000E+00 0. -1.
        -14    1    4    4    0    0 -0.15207324188E+03 -0.21790923713E+01 -0.30262486679E+03  0.33869282446E+03  0.00000000000E+00 0.  1.
</event>
<event>
12    1  0.8196217E-002  0.2308900E+03  0.7818608E-02  0.1126149E+00
         21   -1    0    0  503  502  0.00000000000E+00  0.00000000000E+00  0.64173929303E+03  0.64173929303E+03  0.00000000000E+00 0. -1.
         21   -1    0    0  501  503 -0.00000000000E+00 -0.00000000000E+00 -0.11319301624E+03  0.11319301624E+03  0.00000000000E+00 0.  1.
          6    2    1    2  501    0 -0.46058511506E+02  0.14719118499E+03  0.68988088051E+02  0.24097626206E+03  0.17182424498E+03 0.  0.
         24    2    3    3    0    0 -0.29397088360E+02  0.16554519634E+03  0.20111994378E+02  0.18597230504E+03  0.76888263670E+02 0.  0.
         -6    2    1    2    0  502  0.46058511506E+02 -0.14719118499E+03  0.45955818873E+03  0.51395604721E+03  0.17079361292E+03 0.  0.
        -24    2    5    5    0    0 -0.17524955837E+02 -0.47102313944E+02  0.31246238609E+03  0.32495894517E+03  0.73755144008E+02 0.  0.
          5    1    3    3  501    0 -0.16661423146E+02 -0.18354011356E+02  0.48876093673E+02  0.55003957011E+02  0.47000000000E+01 0. -1.
        -13    1    4    4    0    0 -0.22186714553E+02  0.13888112270E+03  0.46142169645E+02  0.14801795960E+03  0.00000000000E+00 0.  1.
         14    1    4    4    0    0 -0.72103738070E+01  0.26664073641E+02 -0.26030175267E+02  0.37954345443E+02  0.00000000000E+00 0. -1.
         -5    1    5    5    0  502  0.63583467344E+02 -0.10008887104E+03  0.14709580264E+03  0.18899710204E+03  0.47000000000E+01 0.  1.
         11    1    6    6    0    0  0.13679003105E+02 -0.52342217445E+02  0.15033954026E+03  0.15977734576E+03  0.00000000000E+00 0. -1.
        -12    1    6    6    0    0 -0.31203958942E+02  0.52399035012E+01  0.16212284584E+03  0.16518159941E+03  0.00000000000E+00 0.  1.
</event>
<event>
12    1  0.8196217E-002  0.1926939E+03  0.7818608E-02  0.1156055E+00
         21   -1    0    0  503  502  0.00000000000E+00  0.00000000000E+00  0.10605596129E+04  0.10605596129E+04  0.00000000000E+00 0.  1.
         21   -1    0    0  501  503 -0.00000000000E+00 -0.00000000000E+00 -0.38113230409E+02  0.38113230409E+02  0.00000000000E+00 0. -1.
          6    2    1    2  501    0 -0.98767997216E+01 -0.86008164074E+02  0.35445298537E+03  0.40344186860E+03  0.17214373949E+03 0.  0.
         24    2    3    3    0    0  0.44027933336E+02 -0.10367047321E+03  0.27377784060E+03  0.30470866044E+03  0.72159793614E+02 0.  0.
         -6    2    1    2    0  502  0.98767997216E+01  0.86008164074E+02  0.66799339709E+03  0.69523097467E+03  0.17215102129E+03 0.  0.
        -24    2    5    5    0    0  0.43283755315E+01 -0.85609721578E+01  0.39507145252E+03  0.40629744535E+03  0.94361731779E+02 0.  0.
          5    1    3    3  501    0 -0.53904733058E+02  0.17662309139E+02  0.80675144769E+02  0.98733208161E+02  0.47000000000E+01 0. -1.
        -11    1    4    4    0    0  0.59852920901E+02 -0.52920027538E+02  0.17947567032E+03  0.19645461993E+03  0.00000000000E+00 0.  1.
         12    1    4    4    0    0 -0.15824987564E+02 -0.50750445674E+02  0.94302170278E+02  0.10825404051E+03  0.00000000000E+00 0. -1.
         -5    1    5    5    0  502  0.55484241901E+01  0.94569136231E+02  0.27292194457E+03  0.28893352932E+03  0.47000000000E+01 0.  1.
         13    1    6    6    0    0  0.23735326774E+02  0.32265256619E+02  0.99018324448E+02  0.10681311295E+03  0.00000000000E+00 0. -1.
        -14    1    6    6    0    0 -0.19406951243E+02 -0.40826228777E+02  0.29605312807E+03  0.29948433240E+03  0.00000000000E+00 0.  1.
</event>
<event>
12    1  0.8196217E-002  0.2042092E+03  0.7818608E-02  0.1148061E+00
         21   -1    0    0  501  502  0.00000000000E+00  0.00000000000E+00  0.40281989319E+03  0.40281989319E+03  0.00000000000E+00 0. -1.
         21   -1    0    0  502  503 -0.00000000000E+00 -0.00000000000E+00 -0.10191837206E+03  0.10191837206E+03  0.00000000000E+00 0. -1.
         -6    2    1    2    0  503  0.11842472296E+01 -0.89908036683E+02  0.18873018121E+03  0.27174943333E+03  0.17361974459E+03 0.  0.
        -24    2    3    3    0    0  0.42317885046E+02 -0.10814320262E+03  0.18101323714E+03  0.22585674696E+03  0.68990741823E+02 0.  0.
          6    2    1    2  501    0 -0.11842472296E+01  0.89908036683E+02  0.11217133992E+03  0.23298883193E+03  0.18334810826E+03 0.  0.
         24    2    5    5    0    0  0.11876272507E+02  0.37362429053E+02 -0.36887763556E+02  0.74330947197E+02  0.51258030177E+02 0.  0.
          5    1    5    5  501    0 -0.13060519736E+02  0.52545607630E+02  0.14905910348E+03  0.15865788473E+03  0.47000000000E+01 0. -1.
        -13    1    6    6    0    0  0.19955943224E+02 -0.20748203355E+01 -0.25593261576E+02  0.32520141259E+02  0.00000000000E+00 0.  1.
         14    1    6    6    0    0 -0.80796707172E+01  0.39437249389E+02 -0.11294501980E+02  0.41810805938E+02  0.00000000000E+00 0. -1.
         -5    1    3    3    0  503 -0.41133637816E+02  0.18235165936E+02  0.77169440682E+01  0.45892686372E+02  0.47000000000E+01 0.  1.
         13    1    4    4    0    0  0.60055294374E+02 -0.84155709614E+02  0.12346623342E+03  0.16103643264E+03  0.00000000000E+00 0. -1.
        -14    1    4    4    0    0 -0.17737409329E+02 -0.23987493005E+02  0.57547003723E+02  0.64820314315E+02  0.00000000000E+00 0.  1.
</event>
<event>
12    1  0.8196217E-002  0.1870214E+03  0.7818608E-02  0.1161557E+00
         21   -1    0    0  503  502  0.00000000000E+00  0.00000000000E+00  0.13235415552E+04  0.13235415552E+04  0.00000000000E+00 0. -1.
         21   -1    0    0  501  503 -0.00000000000E+00 -0.00000000000E+00 -0.33379783042E+02  0.33379783042E+02  0.00000000000E+00 0. -1.
          6    2    1    2  501    0 -0.85063618754E+01 -0.68550684165E+02  0.32806207673E+03  0.37681276418E+03  0.17202202931E+03 0.  0.
         24    2    3    3    0    0  0.50925373581E+02 -0.82289797567E+01  0.21654765826E+03  0.23671139114E+03  0.80487791704E+02 0.  0.
         -6    2    1    2    0  502  0.85063618754E+01  0.68550684165E+02  0.96209969547E+03  0.98010857410E+03  0.17379711884E+03 0.  0.
        -24    2    5    5    0    0  0.39896730690E+02  0.69815694497E+02  0.36394867959E+03  0.38111468156E+03  0.79522190666E+02 0.  0.
          5    1    3    3  501    0 -0.59431735457E+02 -0.60321704409E+02  0.11151441847E+03  0.14010137304E+03  0.47000000000E+01 0. -1.
        -13    1    4    4    0    0  0.71244763817E+02 -0.14197986471E+01  0.13825271293E+03  0.15553663502E+03  0.00000000000E+00 0.  1.
         14    1    4    4    0    0 -0.20319390235E+02 -0.68091811096E+01  0.78294945332E+02  0.81174756122E+02  0.00000000000E+00 0. -1.
         -5    1    5    5    0  502 -0.31390368815E+02 -0.12650103313E+01  0.59815101588E+03  0.59899389254E+03  0.47000000000E+01 0.  1.
         11    1    6    6    0    0  0.37182584607E+02  0.14378484897E+02  0.26218722830E+03  0.26520073173E+03  0.00000000000E+00 0. -1.
        -12    1    6    6    0    0  0.27141460838E+01  0.55437209599E+02  0.10176145129E+03  0.11591394984E+03  0.00000000000E+00 0.  1.
</event>
<event>
12    1  0.8196217E-002  0.2215190E+03  0.7818608E-02  0.1132800E+00
         21   -1    0    0  503  502  0.00000000000E+00  0.00000000000E+00  0.44712576183E+02  0.44712576183E+02  0.00000000000E+00 0. -1.
         21   -1    0    0  501  503 -0.00000000000E+00 -0.00000000000E+00 -0.12487390794E+04  0.12487390794E+04  0.00000000000E+00 0. -1.
          6    2    1    2  501    0 -0.98534924772E+01  0.13957123444E+03 -0.82770403464E+03  0.85677180748E+03  0.17142561171E+03 0.  0.
         24    2    3    3    0    0  0.97168188690E+01  0.76158601961E+00 -0.31070225715E+03  0.32108155790E+03  0.80389536882E+02 0.  0.
         -6    2    1    2    0  502  0.98534924772E+01 -0.13957123444E+03 -0.37632246861E+03  0.43667984813E+03  0.17173662564E+03 0.  0.
        -24    2    5    5    0    0  0.18617679623E+02 -0.12766431741E+03 -0.38871637841E+03  0.41682324596E+03  0.77436422940E+02 0.  0.
          5    1    3    3  501    0 -0.19570311346E+02  0.13880964842E+03 -0.51700177748E+03  0.53569024958E+03  0.47000000000E+01 0. -1.
        -11    1    4    4    0    0  0.13652123193E+02 -0.61703827044E+01 -0.57846394567E+01  0.16059767870E+02  0.00000000000E+00 0.  1.
         12    1    4    4    0    0 -0.39353043237E+01  0.69319687240E+01 -0.30491761770E+03  0.30502179003E+03  0.00000000000E+00 0. -1.
         -5    1    5    5    0  502 -0.87641871462E+01 -0.11906917027E+02  0.12393909800E+02  0.19856602166E+02  0.47000000000E+01 0.  1.
         11    1    6    6    0    0 -0.13311618090E+02 -0.89537558475E+02 -0.17080638002E+03  0.19331061277E+03  0.00000000000E+00 0. -1.
        -12    1    6    6    0    0  0.31929297713E+02 -0.38126758934E+02 -0.21790999839E+03  0.22351263319E+03  0.00000000000E+00 0.  1.
</event>
<event>
12    1  0.8196217E-002  0.2306642E+03  0.7818608E-02  0.1126209E+00
         21   -1    0    0  501  502  0.00000000000E+00  0.00000000000E+00  0.12939308240E+03  0.12939308240E+03  0.00000000000E+00 0.  1.
         21   -1    0    0  502  503 -0.00000000000E+00 -0.00000000000E+00 -0.69126307846E+03  0.69126307846E+03  0.00000000000E+00 0. -1.
         -6    2    1    2    0  503 -0.14812305146E+03  0.46357351021E+02 -0.54221066869E+03  0.58915571872E+03  0.17036023390E+03 0.  0.
        -24    2    3    3    0    0 -0.29626206633E+02 -0.28943174102E+02 -0.24353687371E+03  0.25909542555E+03  0.78133291500E+02 0.  0.
          6    2    1    2  501    0  0.14812305146E+03 -0.46357351021E+02 -0.19659327372E+02  0.23150044214E+03  0.17063564454E+03 0.  0.
         24    2    5    5    0    0  0.13784984718E+03  0.15747764573E+02  0.15357165240E+02  0.15931437102E+03  0.76776648998E+02 0.  0.
          5    1    5    5  501    0  0.10273204282E+02 -0.62105115594E+02 -0.35016492611E+02  0.72186071121E+02  0.47000000000E+01 0. -1.
        -11    1    6    6    0    0  0.37724057914E+02  0.32374280134E+02  0.27965412880E+02  0.57037381402E+02  0.00000000000E+00 0.  1.
         12    1    6    6    0    0  0.10012578927E+03 -0.16626515561E+02 -0.12608247640E+02  0.10227698962E+03  0.00000000000E+00 0. -1.
         -5    1    3    3    0  503 -0.11849684483E+03  0.75300525123E+02 -0.29867379498E+03  0.33006029317E+03  0.47000000000E+01 0.  1.
         13    1    4    4    0    0 -0.15280743183E+02  0.18371834052E+02 -0.16189929965E+03  0.16365331841E+03  0.00000000000E+00 0. -1.
        -14    1    4    4    0    0 -0.14345463450E+02 -0.47315008154E+02 -0.81637574057E+02  0.95442107144E+02  0.00000000000E+00 0.  1.
</event>
<event>
12    1  0.8196217E-002  0.2354750E+03  0.7818608E-02  0.1122946E+00
         21   -1    0    0  501  502  0.00000000000E+00  0.00000000000E+00  0.54235235769E+03  0.54235235769E+03  0.00000000000E+00 0.  1.
         21   -1    0    0  502  503 -0.00000000000E+00 -0.00000000000E+00 -0.14635934116E+03  0.14635934116E+03  0.00000000000E+00 0. -1.
         -6    2    1    2    0  503 -0.15903961724E+03  0.21119955209E+02  0.85491402625E+01  0.23563012314E+03  0.17236245174E+03 0.  0.
        -24    2    3    3    0    0 -0.64681473120E+02 -0.36045135248E+02 -0.96873501741E+01  0.12371065873E+03  0.98628279876E+02 0.  0.
          6    2    1    2  501    0  0.15903961724E+03 -0.21119955209E+02  0.38744387626E+03  0.45308157571E+03  0.17155321224E+03 0.  0.
         24    2    5    5    0    0  0.43419884296E+02 -0.21370774591E+01  0.27826974852E+03  0.29286499585E+03  0.80286981490E+02 0.  0.
          5    1    5    5  501    0  0.11561973295E+03 -0.18982877750E+02  0.10917412774E+03  0.16021657986E+03  0.47000000000E+01 0. -1.
        -13    1    6    6    0    0  0.50424041046E+02  0.24262998902E+02  0.12193128475E+03  0.13415854514E+03  0.00000000000E+00 0.  1.
         14    1    6    6    0    0 -0.70041567494E+01 -0.26400076361E+02  0.15633846377E+03  0.15870645071E+03  0.00000000000E+00 0. -1.
         -5    1    3    3    0  503 -0.94358144122E+02  0.57165090457E+02  0.18236490437E+02  0.11191946440E+03  0.47000000000E+01 0.  1.
         11    1    4    4    0    0 -0.49042048785E+02  0.19708222019E+02  0.22519315065E+02  0.57451336931E+02  0.00000000000E+00 0. -1.
        -12    1    4    4    0    0 -0.15639424335E+02 -0.55753357267E+02 -0.32206665239E+02  0.66259321804E+02  0.00000000000E+00 0.  1.
</event>
<event>
12    1  0.8196217E-002  0.2168698E+03  0.7818608E-02  0.1136489E+00
         21   -1    0    0  501  502  0.00000000000E+00  0.00000000000E+00  0.22087389692E+03  0.22087389692E+03  0.00000000000E+00 0. -1.
         21   -1    0    0  502  503 -0.00000000000E+00 -0.00000000000E+00 -0.29847748520E+03  0.29847748520E+03  0.00000000000E+00 0. -1.
         -6    2    1    2    0  503  0.12902733797E+03  0.26369483828E+02  0.10133831876E+03  0.23818825559E+03  0.17064813690E+03 0.  0.
        -24    2    3    3    0    0  0.10500475460E+03 -0.14720376086E+02  0.12662206724E+03  0.18408817207E+03  0.81318012902E+02 0.  0.
          6    2    1    2  501    0 -0.12902733797E+03 -0.26369483828E+02 -0.17894190704E+03  0.28116312654E+03  0.17230523499E+03 0.  0.
         24    2    5    5    0    0 -0.26653591861E+01  0.20379812308E+02 -0.75958236117E+02  0.11151474650E+03  0.79015467875E+02 0.  0.
          5    1    5    5  501    0 -0.12636197879E+03 -0.46749296136E+02 -0.10298367093E+03  0.16964838004E+03  0.47000000000E+01 0. -1.
        -11    1    6    6    0    0  0.25060365769E+02  0.24349643400E+02 -0.50875219676E+01  0.35310196063E+02  0.00000000000E+00 0.  1.
         12    1    6    6    0    0 -0.27725724955E+02 -0.39698310926E+01 -0.70870714149E+02  0.76204550436E+02  0.00000000000E+00 0. -1.
         -5    1    3    3    0  503  0.24022583370E+02  0.41089859914E+02 -0.25283748479E+02  0.54100083518E+02  0.47000000000E+01 0.  1.
         11    1    4    4    0    0 -0.10063147478E+02  0.11827926375E+02  0.15140678377E+02  0.21688866296E+02  0.00000000000E+00 0. -1.
        -12    1    4    4    0    0  0.11506790208E+03 -0.26548302461E+02  0.11148138887E+03  0.16239930577E+03  0.00000000000E+00 0.  1.
</event>
<event>
12    1  0.8196217E-002  0.2842583E+03  0.7818608E-02  0.1093386E+00
         21   -1    0    0  501  502  0.00000000000E+00  0.00000000000E+00  0.42139998095E+03  0.42139998095E+03  0.00000000000E+00 0.  1.
         21   -1    0    0  502  503 -0.00000000000E+00 -0.00000000000E+00 -0.20738344885E+03  0.20738344885E+03  0.00000000000E+00 0.  1.
         -6    2    1    2    0  503 -0.20835748086E+03  0.87782382345E+02  0.19334227216E+03  0.34377430927E+03  0.17228161547E+03 0.  0.
        -24    2    3    3    0    0 -0.12507720669E+03  0.12122960346E+03  0.11068431581E+03  0.22167292348E+03  0.80913180915E+02 0.  0.
          6    2    1    2  501    0  0.20835748086E+03 -0.87782382345E+02  0.20674259931E+02  0.28500912053E+03  0.17229099595E+03 0.  0.
         24    2    5    5    0    0  0.14554050936E+03 -0.12783227268E+03  0.58888594601E+01  0.20891271003E+03  0.78017382316E+02 0.  0.
          5    1    5    5  501    0  0.62816971500E+02  0.40049890337E+02  0.14785400471E+02  0.76096410503E+02  0.47000000000E+01 0. -1.
        -11    1    6    6    0    0  0.11740655398E+03 -0.94342941413E+02 -0.28483071004E+02  0.15328462038E+03  0.00000000000E+00 0.  1.
         12    1    6    6    0    0  0.28133955374E+02 -0.33489331269E+02  0.34371930464E+02  0.55628089646E+02  0.00000000000E+00 0. -1.
         -5    1    3    3    0  503 -0.83280274161E+02 -0.33447221116E+02  0.82657956350E+02  0.12210138579E+03  0.47000000000E+01 0.  1.
         11    1    4    4    0    0 -0.11108433976E+03  0.10342467276E+03  0.54787502425E+02  0.16136314293E+03  0.00000000000E+00 0. -1.
        -12    1    4    4    0    0 -0.13992866933E+02  0.17804930704E+02  0.55896813387E+02  0.60309780544E+02  0.00000000000E+00 0.  1.
</event>
<event>
12    1  0.8196217E-002  0.2351783E+03  0.7818608E-02  0.1123731E+00
         21   -1    0    0  503  502  0.00000000000E+00  0.00000000000E+00  0.93701734864E+03  0.93701734864E+03  0.00000000000E+00 0. -1.
         21   -1    0    0  501  503 -0.00000000000E+00 -0.00000000000E+00 -0.14187662369E+03  0.14187662369E+03  0.00000000000E+00 0. -1.
          6    2    1    2  501    0  0.11294398772E+03 -0.11399568020E+03 -0.15728235976E+02  0.23570365396E+03  0.17192287694E+03 0.  0.
         24    2    3    3    0    0  0.33153624628E+02  0.30326543833E+01 -0.34205881364E+02  0.92785332824E+02  0.79565795721E+02 0.  0.
         -6    2    1    2    0  502 -0.11294398772E+03  0.11399568020E+03  0.81086896093E+03  0.84319031838E+03  0.16646345466E+03 0.  0.
        -24    2    5    5    0    0 -0.89946969178E+02  0.37881333314E+02  0.66576976226E+03  0.67766653121E+03  0.80356073226E+02 0.  0.
          5    1    3    3  501    0  0.79790363087E+02 -0.11702833458E+03  0.18477645388E+02  0.14291832113E+03  0.47000000000E+01 0. -1.
        -13    1    4    4    0    0 -0.21553260730E+02 -0.15738796117E+02 -0.19656564225E+02  0.33145637246E+02  0.00000000000E+00 0.  1.
         14    1    4    4    0    0  0.54706885358E+02  0.18771450500E+02 -0.14549317139E+02  0.59639695578E+02  0.00000000000E+00 0. -1.
         -5    1    5    5    0  502 -0.22997018538E+02  0.76114346884E+02  0.14509919867E+03  0.16552378717E+03  0.47000000000E+01 0.  1.
         13    1    6    6    0    0 -0.59673241564E+02  0.52415718060E+02  0.29922604930E+03  0.30958768038E+03  0.00000000000E+00 0. -1.
        -14    1    6    6    0    0 -0.30273727614E+02 -0.14534384746E+02  0.36654371296E+03  0.36807885083E+03  0.00000000000E+00 0.  1.
</event>
<event>
12    1  0.8196217E-002  0.2023123E+03  0.7818608E-02  0.1150064E+00
         21   -1    0    0  503  502  0.00000000000E+00  0.00000000000E+00  0.10834299785E+03  0.10834299785E+03  0.00000000000E+00 0.  1.
         21   -1    0    0  501  503 -0.00000000000E+00 -0.00000000000E+00 -0.55117070345E+03  0.55117070345E+03  0.00000000000E+00 0.  1.
          6    2    1    2  501    0  0.19399868956E+02  0.80385181262E+02 -0.41257423550E+03  0.45495186634E+03  0.17299008240E+03 0.  0.
         24    2    3    3    0    0  0.56194613392E+02  0.98454225729E+02 -0.37215568684E+03  0.39719294788E+03  0.80070677920E+02 0.  0.
         -6    2    1    2    0  502 -0.19399868956E+02 -0.80385181262E+02 -0.30253470103E+02  0.20456183497E+03  0.18464056864E+03 0.  0.
        -24    2    5    5    0    0  0.47025425337E+02  0.53380081221E+01 -0.14661377679E+02  0.94898767955E+02  0.80937847791E+02 0.  0.
          5    1    3    3  501    0 -0.36794744436E+02 -0.18069044466E+02 -0.40418548658E+02  0.57758918460E+02  0.47000000000E+01 0. -1.
        -13    1    4    4    0    0  0.19119798572E+02 -0.38173545799E+01 -0.13346459172E+03  0.13488119267E+03  0.00000000000E+00 0.  1.
         14    1    4    4    0    0  0.37074814820E+02  0.10227158031E+03 -0.23869109512E+03  0.26231175521E+03  0.00000000000E+00 0. -1.
         -5    1    5    5    0  502 -0.66425294293E+02 -0.85723189384E+02 -0.15592092424E+02  0.10966306701E+03  0.47000000000E+01 0.  1.
         11    1    6    6    0    0  0.48771885908E+02 -0.12867263297E+02  0.21143911733E+02  0.54693037246E+02  0.00000000000E+00 0. -1.
        -12    1    6    6    0    0 -0.17464605712E+01  0.18205271420E+02 -0.35805289412E+02  0.40205730709E+02  0.00000000000E+00 0.  1.
</event>
<event>
12    1  0.8196217E-002  0.1932357E+03  0.7818608E-02  0.1155882E+00
         21   -1    0    0  503  502  0.00000000000E+00  0.00000000000E+00  0.15755457904E+03  0.15755457904E+03  0.00000000000E+00 0. -1.
         21   -1    0    0  501  503 -0.00000000000E+00 -0.00000000000E+00 -0.23547727883E+03  0.23547727883E+03  0.00000000000E+00 0. -1.
          6    2    1    2  501    0  0.40091076615E+02  0.74384143127E+02 -0.44231719109E+02  0.19688112176E+03  0.17223656974E+03 0.  0.
         24    2    3    3    0    0  0.64622778799E+02  0.86606343441E+01  0.67814673551E+01  0.11001444683E+03  0.88352023665E+02 0.  0.
         -6    2    1    2    0  502 -0.40091076615E+02 -0.74384143127E+02 -0.33690980678E+02  0.19615073612E+03  0.17378070643E+03 0.  0.
        -24    2    5    5    0    0 -0.19057297302E+02  0.14604161591E+02  0.26769936228E+02  0.86428583746E+02  0.78592674510E+02 0.  0.
          5    1    3    3  501    0 -0.24531702184E+02  0.65723508783E+02 -0.51013186465E+02  0.86866674922E+02  0.47000000000E+01 0. -1.
        -13    1    4    4    0    0  0.30190265174E+00  0.38630727700E+02 -0.87766427192E+00  0.38641875762E+02  0.00000000000E+00 0.  1.
         14    1    4    4    0    0  0.64320876148E+02 -0.29970093356E+02  0.76591316270E+01  0.71372571072E+02  0.00000000000E+00 0. -1.
         -5    1    5    5    0  502 -0.21033779313E+02 -0.88988304717E+02 -0.60460916905E+02  0.10972215237E+03  0.47000000000E+01 0.  1.
         11    1    6    6    0    0  0.27553504822E+02  0.18320224644E+02  0.21299617108E+02  0.39350984078E+02  0.00000000000E+00 0. -1.
        -12    1    6    6    0    0 -0.46610802124E+02 -0.37160630535E+01  0.54703191199E+01  0.47077599668E+02  0.00000000000E+00 0.  1.
</event>
<event>
12    1  0.8196217E-002  0.2317395E+03  0.7818608E-02  0.1125492E+00
         21   -1    0    0  503  502  0.00000000000E+00  0.00000000000E+00  0.33892232766E+03  0.33892232766E+03  0.00000000000E+00 0. -1.
         21   -1    0    0  501  503 -0.00000000000E+00 -0.00000000000E+00 -0.31923695971E+03  0.31923695971E+03  0.00000000000E+00 0.  1.
          6    2    1    2  501    0  0.15188744152E+03  0.31390168459E+02 -0.22389770622E+03  0.32223186789E+03  0.17218610939E+03 0.  0.
         24    2    3    3    0    0  0.80936894683E+02  0.52251737275E+02 -0.21288215324E+03  0.24731446299E+03  0.81022265244E+02 0.  0.
         -6    2    1    2    0  502 -0.15188744152E+03 -0.31390168459E+02  0.24358307417E+03  0.33592741948E+03  0.17163734900E+03 0.  0.
        -24    2    5    5    0    0 -0.65717578580E+01 -0.10002296993E+02  0.72151586522E+02  0.11012898300E+03  0.82336550279E+02 0.  0.
          5    1    3    3  501    0  0.70950546833E+02 -0.20861568816E+02 -0.11015552973E+02  0.74917404898E+02  0.47000000000E+01 0. -1.
        -11    1    4    4    0    0  0.92711208817E+02  0.25440531199E+02 -0.15383377287E+03  0.18140402020E+03  0.00000000000E+00 0.  1.
         12    1    4    4    0    0 -0.11774314134E+02  0.26811206076E+02 -0.59048380369E+02  0.65910442790E+02  0.00000000000E+00 0. -1.
         -5    1    5    5    0  502 -0.14531568366E+03 -0.21387871466E+02  0.17143148764E+03  0.22579843648E+03  0.47000000000E+01 0.  1.
         13    1    6    6    0    0  0.35167289324E+02  0.55914905255E+01  0.46991112049E+02  0.58959033373E+02  0.00000000000E+00 0. -1.
        -14    1    6    6    0    0 -0.41739047182E+02 -0.15593787518E+02  0.25160474473E+02  0.51169949624E+02  0.00000000000E+00 0.  1.
</event>
<event>
12    1  0.8196217E-002  0.2306763E+03  0.7818608E-02  0.1126217E+00
         21   -1    0    0  503  502  0.00000000000E+00  0.00000000000E+00  0.40097483923E+03  0.40097483923E+03  0.00000000000E+00 0. -1.
         21   -1    0    0  501  503 -0.00000000000E+00 -0.00000000000E+00 -0.17025568593E+03  0.17025568593E+03  0.00000000000E+00 0.  1.
          6    2    1    2  501    0  0.10761301973E+03 -0.10972750360E+03 -0.19021409406E+02  0.23145926362E+03  0.17202002685E+03 0.  0.
         24    2    3    3    0    0  0.31265941119E+02 -0.11197546852E+03  0.22877069146E+02  0.14421533968E+03  0.82210943807E+02 0.  0.
         -6    2    1    2    0  502 -0.10761301973E+03  0.10972750360E+03  0.24974056270E+03  0.33977126154E+03  0.17162014582E+03 0.  0.
        -24    2    5    5    0    0 -0.38161138126E+02  0.86163316284E+01  0.16918092777E+03  0.19294150388E+03  0.84105433617E+02 0.  0.
          5    1    3    3  501    0  0.76347078612E+02  0.22479649267E+01 -0.41898478553E+02  0.87243923937E+02  0.47000000000E+01 0. -1.
        -13    1    4    4    0    0  0.18052680660E+02 -0.63594839576E+01 -0.21597352709E+02  0.28858065758E+02  0.00000000000E+00 0.  1.
         14    1    4    4    0    0  0.13213260459E+02 -0.10561598457E+03  0.44474421856E+02  0.11535727392E+03  0.00000000000E+00 0. -1.
         -5    1    5    5    0  502 -0.69451881606E+02  0.10111117197E+03  0.80559634932E+02  0.14682975766E+03  0.47000000000E+01 0.  1.
         11    1    6    6    0    0 -0.47920940299E+02  0.32612234651E+02  0.72356223091E+02  0.92711366014E+02  0.00000000000E+00 0. -1.
        -12    1    6    6    0    0  0.97598021735E+01 -0.23995903022E+02  0.96824704677E+02  0.10023013786E+03  0.00000000000E+00 0.  1.
</event>
<event>
12    1  0.8196217E-002  0.1994120E+03  0.7818608E-02  0.1150954E+00
         21   -1    0    0  503  502  0.00000000000E+00  0.00000000000E+00  0.95086163067E+02  0.95086163067E+02  0.00000000000E+00 0. -1.
         21   -1    0    0  501  503 -0.00000000000E+00 -0.00000000000E+00 -0.42649191731E+03  0.42649191731E+03  0.00000000000E+00 0. -1.
          6    2    1    2  501    0 -0.87808816827E+02  0.46794510723E+02 -0.21647204828E+03  0.29432175040E+03  0.17281501822E+03 0.  0.
         24    2    3    3    0    0 -0.93212428213E+02  0.49422510936E+02 -0.24154217398E+03  0.26811666304E+03  0.49120075631E+02 0.  0.
         -6    2    1    2    0  502  0.87808816827E+02 -0.46794510723E+02 -0.11493370596E+03  0.22725632998E+03  0.16892474124E+03 0.  0.
        -24    2    5    5    0    0  0.57808239037E+02 -0.93702086972E+01  0.45404758235E+01  0.98427827066E+02  0.78979920920E+02 0.  0.
          5    1    3    3  501    0  0.54036113866E+01 -0.26280002130E+01  0.25070125694E+02  0.26205087359E+02  0.47000000000E+01 0. -1.
        -13    1    4    4    0    0 -0.65107186688E+02  0.99813179936E+01 -0.16349074392E+03  0.17626059064E+03  0.00000000000E+00 0.  1.
         14    1    4    4    0    0 -0.28105241525E+02  0.39441192942E+02 -0.78051430058E+02  0.91856072396E+02  0.00000000000E+00 0. -1.
         -5    1    5    5    0  502  0.30000577789E+02 -0.37424302026E+02 -0.11947418179E+03  0.12882850292E+03  0.47000000000E+01 0.  1.
         13    1    6    6    0    0  0.93596713269E+01 -0.83869350533E+01 -0.34168676956E+02  0.36406628680E+02  0.00000000000E+00 0. -1.
        -14    1    6    6    0    0  0.48448567710E+02 -0.98327364389E+00  0.38709152780E+02  0.62021198385E+02  0.00000000000E+00 0.  1.
</event>
<event>
12    1  0.8196217E-002  0.1802873E+03  0.7818608E-02  0.1167526E+00
         21   -1    0    0  501  502  0.00000000000E+00  0.00000000000E+00  0.26088252051E+02  0.26088252051E+02  0.00000000000E+00 0. -1.
         21   -1    0    0  502  503 -0.00000000000E+00 -0.00000000000E+00 -0.14413249038E+04  0.14413249038E+04  0.00000000000E+00 0. -1.
         -6    2    1    2    0  503 -0.46067023574E+02 -0.27993357850E+02 -0.97780560717E+03  0.99428734954E+03  0.17203990611E+03 0.  0.
        -24    2    3    3    0    0 -0.77575033474E+02  0.22843526464E+02 -0.49624905414E+03  0.50900810285E+03  0.79286900041E+02 0.  0.
          6    2    1    2  501    0  0.46067023574E+02  0.27993357850E+02 -0.43743104460E+03  0.47312580634E+03  0.17203578434E+03 0.  0.
         24    2    5    5    0    0  0.88316874006E+02 -0.11031008126E+02 -0.25488475693E+03  0.28167558266E+03  0.80332690597E+02 0.  0.
          5    1    5    5  501    0 -0.42249850432E+02  0.39024365975E+02 -0.18254628767E+03  0.19145022367E+03  0.47000000000E+01 0. -1.
        -11    1    6    6    0    0 -0.65288147343E+01 -0.71810020984E+01 -0.17503944290E-01  0.97052830644E+01  0.00000000000E+00 0.  1.
         12    1    6    6    0    0  0.94845688741E+02 -0.38500060275E+01 -0.25486725299E+03  0.27197029960E+03  0.00000000000E+00 0. -1.
         -5    1    3    3    0  503  0.31508009899E+02 -0.50836884314E+02 -0.48155655303E+03  0.48527924668E+03  0.47000000000E+01 0.  1.
         11    1    4    4    0    0 -0.52516285510E+02 -0.29480264249E+01 -0.43354705184E+03  0.43672611242E+03  0.00000000000E+00 0. -1.
        -12    1    4    4    0    0 -0.25058747963E+02  0.25791552889E+02 -0.62702002294E+02  0.72281990437E+02  0.00000000000E+00 0.  1.
</event>
<event>
12    1  0.8196217E-002  0.1900716E+03  0.7818608E-02  0.1161944E+00
         21   -1    0    0  501  502  0.00000000000E+00  0.00000000000E+00  0.85269239881E+02  0.85269239881E+02  0.00000000000E+00 0. -1.
         21   -1    0    0  502  503 -0.00000000000E+00 -0.00000000000E+00 -0.39368017669E+03  0.39368017669E+03  0.00000000000E+00 0. -1.
         -6    2    1    2    0  503 -0.38649279800E+02 -0.11888487953E+02 -0.13998859279E+03  0.23605937356E+03  0.18572053941E+03 0.  0.
        -24    2    3    3    0    0 -0.93034641816E+02  0.50634798655E+01 -0.12815282697E+03  0.17768718697E+03  0.80427022486E+02 0.  0.
          6    2    1    2  501    0  0.38649279800E+02  0.11888487953E+02 -0.16842234402E+03  0.24289004301E+03  0.17027737388E+03 0.  0.
         24    2    5    5    0    0  0.89330623022E+02  0.12145607245E+02 -0.13228385250E+03  0.18046612748E+03  0.83315842136E+02 0.  0.
          5    1    5    5  501    0 -0.50681343222E+02 -0.25711929216E+00 -0.36138491517E+02  0.62423915531E+02  0.47000000000E+01 0. -1.
        -13    1    6    6    0    0 -0.23420844301E+01  0.21116176647E+02 -0.59159016340E+02  0.62858312815E+02  0.00000000000E+00 0.  1.
         14    1    6    6    0    0  0.91672707452E+02 -0.89705694019E+01 -0.73124836159E+02  0.11760781466E+03  0.00000000000E+00 0. -1.
         -5    1    3    3    0  503  0.54385362016E+02 -0.16951967818E+02 -0.11835765819E+02  0.58372186588E+02  0.47000000000E+01 0.  1.
         11    1    4    4    0    0 -0.10227205655E+02 -0.28790659041E+02 -0.51488662012E+02  0.59871362932E+02  0.00000000000E+00 0. -1.
        -12    1    4    4    0    0 -0.82807436161E+02  0.33854138906E+02 -0.76664164959E+02  0.11781582404E+03  0.00000000000E+00 0.  1.
</event>
<event>
12    1  0.8196217E-002  0.1822129E+03  0.7818608E-02  0.1167795E+00
         21   -1    0    0  503  502  0.00000000000E+00  0.00000000000E+00  0.40860218065E+02  0.40860218065E+02  0.00000000000E+00 0. -1.
         21   -1    0    0  501  503 -0.00000000000E+00 -0.00000000000E+00 -0.11873506052E+04  0.11873506052E+04  0.00000000000E+00 0. -1.
          6    2    1    2  501    0  0.43456841245E+02 -0.38776366911E+02 -0.94443565020E+03  0.96185251152E+03  0.17265414232E+03 0.  0.
         24    2    3    3    0    0  0.86100238360E+02  0.71629103598E+01 -0.67414319610E+03  0.68434759758E+03  0.79987668672E+02 0.  0.
         -6    2    1    2    0  502 -0.43456841245E+02  0.38776366911E+02 -0.20205473692E+03  0.26635831173E+03  0.16348862296E+03 0.  0.
        -24    2    5    5    0    0  0.46226326866E+01  0.70656853164E+02 -0.17044740407E+03  0.20041049367E+03  0.78091541075E+02 0.  0.
          5    1    3    3  501    0 -0.42643397115E+02 -0.45939277271E+02 -0.27029245410E+03  0.27750491394E+03  0.47000000000E+01 0. -1.
        -13    1    4    4    0    0 -0.65732494136E+01  0.12338511102E+02 -0.23933227934E+03  0.23974024776E+03  0.00000000000E+00 0.  1.
         14    1    4    4    0    0  0.92673487774E+02 -0.51756007426E+01 -0.43481091676E+03  0.44460734982E+03  0.00000000000E+00 0. -1.
         -5    1    5    5    0  502 -0.48079473931E+02 -0.31880486252E+02 -0.31607332847E+02  0.65947818060E+02  0.47000000000E+01 0.  1.
         11    1    6    6    0    0  0.30616288717E+00  0.79424224011E+01  0.79618905111E+01  0.11250222657E+02  0.00000000000E+00 0. -1.
        -12    1    6    6    0    0  0.43164697994E+01  0.62714430763E+02 -0.17840929458E+03  0.18916027102E+03  0.00000000000E+00 0.  1.
</event>
<event>
12    1  0.8196217E-002  0.1995078E+03  0.7818608E-02  0.1150807E+00
         21   -1    0    0  503  502  0.00000000000E+00  0.00000000000E+00  0.15909674395E+03  0.15909674395E+03  0.00000000000E+00 0.  1.
         21   -1    0    0  501  503 -0.00000000000E+00 -0.00000000000E+00 -0.26555694911E+03  0.26555694911E+03  0.00000000000E+00 0.  1.
          6    2    1    2  501    0 -0.12825804173E+02  0.94813215226E+02 -0.10992370824E+03  0.22511582429E+03  0.17158049329E+03 0.  0.
         24    2    3    3    0    0 -0.35854505757E+02  0.36264009999E+01 -0.92078992146E+02  0.12927282727E+03  0.83272004349E+02 0.  0.
         -6    2    1    2    0  502  0.12825804173E+02 -0.94813215226E+02  0.34635030811E+01  0.19953786877E+03  0.17506946674E+03 0.  0.
        -24    2    5    5    0    0  0.28528191320E+02 -0.12950899553E+03  0.21723401457E+02  0.15704226874E+03  0.81264570236E+02 0.  0.
          5    1    3    3  501    0  0.23028701584E+02  0.91186814226E+02 -0.17844716096E+02  0.95842997021E+02  0.47000000000E+01 0. -1.
        -11    1    4    4    0    0 -0.35973658284E+02  0.37773086241E+02 -0.35190185071E+02  0.62922645048E+02  0.00000000000E+00 0.  1.
         12    1    4    4    0    0  0.11915252692E+00 -0.34146685241E+02 -0.56888807075E+02  0.66350182221E+02  0.00000000000E+00 0. -1.
         -5    1    5    5    0  502 -0.15702387147E+02  0.34695780306E+02 -0.18259898376E+02  0.42495600029E+02  0.47000000000E+01 0.  1.
         11    1    6    6    0    0 -0.23606477339E+01  0.81821245164E+01  0.13152778957E+02  0.15668931476E+02  0.00000000000E+00 0. -1.
        -12    1    6    6    0    0  0.30888839054E+02 -0.13769112005E+03  0.85706225004E+01  0.14137333726E+03  0.00000000000E+00 0.  1.
</event>
<event>
12    1  0.8196217E-002  0.1867548E+03  0.7818608E-02  0.1162202E+00
         21   -1    0    0  503  502  0.00000000000E+00  0.00000000000E+00  0.10452334983E+04  0.10452334983E+04  0.00000000000E+00 0.  1.
         21   -1    0    0  501  503 -0.00000000000E+00 -0.00000000000E+00 -0.51043605767E+02  0.51043605767E+02  0.00000000000E+00 0. -1.
          6    2    1    2  501    0 -0.63403340333E+02  0.28648297100E+02  0.16626400221E+03  0.24754943819E+03  0.16969471832E+03 0.  0.
         24    2    3    3    0    0 -0.98577022521E+02 -0.71638799292E+01  0.14592790805E+03  0.19318633795E+03  0.79102820918E+02 0.  0.
         -6    2    1    2    0  502  0.63403340333E+02 -0.28648297100E+02  0.82792589035E+03  0.84872766590E+03  0.17331088387E+03 0.  0.
        -24    2    5    5    0    0  0.43092610050E+01 -0.62673345029E+02  0.65464480269E+03  0.66245303146E+03  0.79609567827E+02 0.  0.
          5    1    3    3  501    0  0.35173682188E+02  0.35812177029E+02  0.20336094164E+02  0.54363100243E+02  0.47000000000E+01 0. -1.
        -11    1    4    4    0    0  0.18100720646E+01  0.15218151864E+01  0.62011938406E+02  0.62057012394E+02  0.00000000000E+00 0.  1.
         12    1    4    4    0    0 -0.10038709459E+03 -0.86856951156E+01  0.83915969639E+02  0.13112932555E+03  0.00000000000E+00 0. -1.
         -5    1    5    5    0  502  0.59094079328E+02  0.34025047929E+02  0.17328108766E+03  0.18627463445E+03  0.47000000000E+01 0.  1.
         11    1    6    6    0    0  0.30310644939E+02 -0.35936173767E+02  0.53662984070E+03  0.53868518609E+03  0.00000000000E+00 0. -1.
        -12    1    6    6    0    0 -0.26001383934E+02 -0.26737171262E+02  0.11801496199E+03  0.12376784537E+03  0.00000000000E+00 0.  1.
</event>
<event>
12    1  0.8196217E-002  0.1819527E+03  0.7818608E-02  0.1166692E+00
         21   -1    0    0  503  502  0.00000000000E+00  0.00000000000E+00  0.43457925673E+02  0.43457925673E+02  0.00000000000E+00 0. -1.
         21   -1    0    0  501  503 -0.00000000000E+00 -0.00000000000E+00 -0.13712854896E+04  0.13712854896E+04  0.00000000000E+00 0. -1.
          6    2    1    2  501    0  0.11760941233E+02 -0.42945614648E+02 -0.11373948540E+04  0.11513589047E+04  0.17314048616E+03 0.  0.
         24    2    3    3    0    0 -0.35395447942E+02  0.18506132379E+02 -0.40355655671E+03  0.41342884105E+03  0.80437537748E+02 0.  0.
         -6    2    1    2    0  502 -0.11760941233E+02  0.42945614648E+02 -0.19043270993E+03  0.26338451059E+03  0.17642034421E+03 0.  0.
        -24    2    5    5    0    0  0.16155208175E+02  0.91814175791E+02 -0.14560192491E+03  0.19127808264E+03  0.81832455255E+02 0.  0.
          5    1    3    3  501    0  0.47156389175E+02 -0.61451747026E+02 -0.73383829733E+03  0.73793006368E+03  0.47000000000E+01 0. -1.
        -13    1    4    4    0    0 -0.54533342045E+02 -0.50232557647E+01 -0.19019477445E+03  0.19792213297E+03  0.00000000000E+00 0.  1.
         14    1    4    4    0    0  0.19137894103E+02  0.23529388144E+02 -0.21336178226E+03  0.21550670808E+03  0.00000000000E+00 0. -1.
         -5    1    5    5    0  502 -0.27916149407E+02 -0.48868561144E+02 -0.44830785023E+02  0.72106427951E+02  0.47000000000E+01 0.  1.
         11    1    6    6    0    0  0.42791827190E+02  0.60964175577E+02 -0.12524437966E+03  0.14571865294E+03  0.00000000000E+00 0. -1.
        -12    1    6    6    0    0 -0.26636619015E+02  0.30850000214E+02 -0.20357545246E+02  0.45559429696E+02  0.00000000000E+00 0.  1.
</event>
<event>
12    1  0.8196217E-002  0.2241316E+03  0.7818608E-02  0.1130950E+00
         21   -1    0    0  501  502  0.00000000000E+00  0.00000000000E+00  0.33838546419E+03  0.33838546419E+03  0.00000000000E+00 0.  1.
         21   -1    0    0  502  503 -0.00000000000E+00 -0.00000000000E+00 -0.22143959157E+03  0.22143959157E+03  0.00000000000E+00 0.  1.
         -6    2    1    2    0  503 -0.75966747406E+02 -0.12100086985E+03 -0.10261345674E+03  0.24650451574E+03  0.17269278376E+03 0.  0.
        -24    2    3    3    0    0  0.10957648689E+01 -0.36374317833E+01 -0.18996662405E+02  0.83021594046E+02  0.80729674127E+02 0.  0.
          6    2    1    2  501    0  0.75966747406E+02  0.12100086985E+03  0.21955932935E+03  0.31332054001E+03  0.17190492858E+03 0.  0.
         24    2    5    5    0    0  0.84389630203E+02  0.14420270911E+03  0.22064846043E+03  0.28817006276E+03  0.80250925082E+02 0.  0.
          5    1    5    5  501    0 -0.84228827977E+01 -0.23201839261E+02 -0.10891310795E+01  0.25150477256E+02  0.47000000000E+01 0. -1.
        -13    1    6    6    0    0  0.65005893091E+02  0.72968880483E+02  0.17759992380E+03  0.20271151075E+03  0.00000000000E+00 0.  1.
         14    1    6    6    0    0  0.19383737112E+02  0.71233828627E+02  0.43048536635E+02  0.85458552010E+02  0.00000000000E+00 0. -1.
         -5    1    3    3    0  503 -0.77062512275E+02 -0.11736343807E+03 -0.83616794332E+02  0.16348292170E+03  0.47000000000E+01 0.  1.
         13    1    4    4    0    0  0.88902746569E+01  0.19266205493E+02 -0.43616569984E+02  0.48503905355E+02  0.00000000000E+00 0. -1.
        -14    1    4    4    0    0 -0.77945097880E+01 -0.22903637276E+02  0.24619907579E+02  0.34517688690E+02  0.00000000000E+00 0.  1.
</event>
<event>
12    1  0.8196217E-002  0.2187120E+03  0.7818608E-02  0.1137654E+00
         21   -1    0    0  501  502  0.00000000000E+00  0.00000000000E+00  0.76997527360E+03  0.76997527360E+03  0.00000000000E+00 0.  1.
         21   -1    0    0  502  503 -0.00000000000E+00 -0.00000000000E+00 -0.94640953451E+02  0.94640953451E+02  0.00000000000E+00 0.  1.
         -6    2    1    2    0  503 -0.12209834592E+03  0.15429834908E+02  0.76198836298E+02  0.23160565623E+03  0.18080052949E+03 0.  0.
        -24    2    3    3    0    0 -0.11910898635E+03 -0.18088223768E+02  0.11129304528E+03  0.18275803569E+03  0.80623961774E+02 0.  0.
          6    2    1    2  501    0  0.12209834592E+03 -0.15429834908E+02  0.59913548386E+03  0.63301057083E+03  0.16307350760E+03 0.  0.
         24    2    5    5    0    0  0.14046362111E+03 -0.37094948274E+02  0.41763967929E+03  0.44924583660E+03  0.79327523247E+02 0.  0.
          5    1    5    5  501    0 -0.18365275188E+02  0.21665113366E+02  0.18149580456E+03  0.18376473422E+03  0.47000000000E+01 0. -1.
        -13    1    6    6    0    0  0.14244884477E+03 -0.23571358768E+02  0.40721756815E+03  0.43205720703E+03  0.00000000000E+00 0.  1.
         14    1    6    6    0    0 -0.19852236645E+01 -0.13523589506E+02  0.10422111137E+02  0.17188629576E+02  0.00000000000E+00 0. -1.
         -5    1    3    3    0  503 -0.29893595735E+01  0.33518058676E+02 -0.35094208987E+02  0.48847620541E+02  0.47000000000E+01 0.  1.
         13    1    4    4    0    0 -0.65350260417E+01 -0.17306345164E+02  0.52686525747E+02  0.55839825784E+02  0.00000000000E+00 0. -1.
        -14    1    4    4    0    0 -0.11257396030E+03 -0.78187860383E+00  0.58606519538E+02  0.12691820990E+03  0.00000000000E+00 0.  1.
</event>
<event>
12    1  0.8196217E-002  0.2685347E+03  0.7818608E-02  0.1102192E+00
         21   -1    0    0  503  502  0.00000000000E+00  0.00000000000E+00  0.17231930185E+03  0.17231930185E+03  0.00000000000E+00 0.  1.
         21   -1    0    0  501  503 -0.00000000000E+00 -0.00000000000E+00 -0.41978802254E+03  0.41978802254E+03  0.00000000000E+00 0. -1.
          6    2    1    2  501    0 -0.20577934309E+03 -0.79156175846E+01 -0.10280499544E+03  0.28708520104E+03  0.17158452881E+03 0.  0.
         24    2    3    3    0    0 -0.65668957406E+02 -0.53820241695E+02 -0.70352142185E+02  0.13604403985E+03  0.79683916104E+02 0.  0.
         -6    2    1    2    0  502  0.20577934309E+03  0.79156175846E+01 -0.14466372525E+03  0.30502212335E+03  0.17234589430E+03 0.  0.
        -24    2    5    5    0    0  0.80881809764E+02 -0.18279563890E+02 -0.13464699728E+03  0.17692838344E+03  0.79358864567E+02 0.  0.
          5    1    3    3  501    0 -0.14011038568E+03  0.45904624111E+02 -0.32452853253E+02  0.15104116119E+03  0.47000000000E+01 0. -1.
        -11    1    4    4    0    0 -0.33465115057E+02 -0.35138984306E+02  0.81092770769E+01  0.49197789773E+02  0.00000000000E+00 0.  1.
         12    1    4    4    0    0 -0.32203842349E+02 -0.18681257389E+02 -0.78461419262E+02  0.86846250076E+02  0.00000000000E+00 0. -1.
         -5    1    5    5    0  502  0.12489753332E+03  0.26195181475E+02 -0.10016727977E+02  0.12809373990E+03  0.47000000000E+01 0.  1.
         11    1    6    6    0    0  0.17369647741E+02  0.15661833602E+02 -0.88171866605E+02  0.91221026935E+02  0.00000000000E+00 0. -1.
        -12    1    6    6    0    0  0.63512162023E+02 -0.33941397493E+02 -0.46475130671E+02  0.85707356507E+02  0.00000000000E+00 0.  1.
</event>
<event>
12    1  0.8196217E-002  0.3370521E+03  0.7818608E-02  0.1068081E+00
         21   -1    0    0  501  502  0.00000000000E+00  0.00000000000E+00  0.16786743410E+04  0.16786743410E+04  0.00000000000E+00 0. -1.
         21   -1    0    0  502  503 -0.00000000000E+00 -0.00000000000E+00 -0.15437829025E+03  0.15437829025E+03  0.00000000000E+00 0.  1.
         -6    2    1    2    0  503  0.16774398393E+03 -0.23583666896E+03  0.75018042612E+02  0.34509736920E+03  0.17235866367E+03 0.  0.
        -24    2    3    3    0    0  0.77566916840E+02 -0.17540030966E+03 -0.98973796089E+01  0.20719459227E+03  0.77780111377E+02 0.  0.
          6    2    1    2  501    0 -0.16774398393E+03  0.23583666896E+03  0.14492780081E+04  0.14879552621E+04  0.17276324380E+03 0.  0.
         24    2    5    5    0    0 -0.23962488585E+02  0.45727344699E+02  0.31266350513E+03  0.32660721257E+03  0.79048168542E+02 0.  0.
          5    1    5    5  501    0 -0.14378149535E+03  0.19010932426E+03  0.11366145030E+04  0.11613480495E+04  0.47000000000E+01 0. -1.
        -13    1    6    6    0    0  0.14022589180E+02  0.45311037346E+02  0.23969417694E+03  0.24434201761E+03  0.00000000000E+00 0.  1.
         14    1    6    6    0    0 -0.37985077765E+02  0.41630735305E+00  0.72969328193E+02  0.82265194958E+02  0.00000000000E+00 0. -1.
         -5    1    3    3    0  503  0.90177067093E+02 -0.60436359304E+02  0.84915422221E+02  0.13790277693E+03  0.47000000000E+01 0.  1.
         13    1    4    4    0    0  0.81478124733E+01  0.69347180050E+01  0.43997784154E+01  0.11568716956E+02  0.00000000000E+00 0. -1.
        -14    1    4    4    0    0  0.69419104366E+02 -0.18233502766E+03 -0.14297158024E+02  0.19562587531E+03  0.00000000000E+00 0.  1.
</event>
<event>
12    1  0.8196217E-002  0.1961834E+03  0.7818608E-02  0.1153308E+00
         21   -1    0    0  503  502  0.00000000000E+00  0.00000000000E+00  0.81378442671E+02  0.81378442671E+02  0.00000000000E+00 0.  1.
         21   -1    0    0  501  503 -0.00000000000E+00 -0.00000000000E+00 -0.14719126588E+04  0.14719126588E+04  0.00000000000E+00 0.  1.
          6    2    1    2  501    0 -0.51112408519E+02  0.75711287745E+02 -0.13353713046E+04  0.13494998223E+04  0.17201328957E+03 0.  0.
         24    2    3    3    0    0  0.11629045697E+01 -0.22418284668E+01 -0.31720786636E+03  0.32700861271E+03  0.79419293387E+02 0.  0.
         -6    2    1    2    0  502  0.51112408519E+02 -0.75711287745E+02 -0.55162911500E+02  0.20379127916E+03  0.17361814784E+03 0.  0.
        -24    2    5    5    0    0  0.94336265798E+02 -0.49551934839E+02  0.10210507514E+02  0.12103629444E+03  0.56487209325E+02 0.  0.
          5    1    3    3  501    0 -0.52275313088E+02  0.77953116211E+02 -0.10181634383E+04  0.10224912096E+04  0.47000000000E+01 0. -1.
        -11    1    4    4    0    0 -0.39296521827E+01  0.64718386207E+01 -0.31681794652E+03  0.31690840648E+03  0.00000000000E+00 0.  1.
         12    1    4    4    0    0  0.50925567524E+01 -0.87136670875E+01 -0.38991984345E+00  0.10100206229E+02  0.00000000000E+00 0. -1.
         -5    1    5    5    0  502 -0.43223857279E+02 -0.26159352905E+02 -0.65373419014E+02  0.82754984721E+02  0.47000000000E+01 0.  1.
         13    1    6    6    0    0  0.30157688132E+02  0.10977734913E+02 -0.98684069033E+00  0.32108732018E+02  0.00000000000E+00 0. -1.
        -14    1    6    6    0    0  0.64178577666E+02 -0.60529669753E+02  0.11197348204E+02  0.88927562423E+02  0.00000000000E+00 0.  1.
</event>
<event>
12    1  0.8196217E-002  0.2212716E+03  0.7818608E-02  0.1133341E+00
         21   -1    0    0  501  502  0.00000000000E+00  0.00000000000E+00  0.71133295422E+03  0.71133295422E+03  0.00000000000E+00 0. -1.
         21   -1    0    0  502  503 -0.00000000000E+00 -0.00000000000E+00 -0.20077780608E+03  0.20077780608E+03  0.00000000000E+00 0.  1.
         -6    2    1    2    0  503  0.10946021034E+03 -0.82426222863E+02 -0.11579732836E+03  0.24782276350E+03  0.17097216437E+03 0.  0.
        -24    2    3    3    0    0  0.12306291669E+03 -0.36991714006E+02 -0.35115718930E+02  0.15411609183E+03  0.77497017207E+02 0.  0.
          6    2    1    2  501    0 -0.10946021034E+03  0.82426222863E+02  0.62635247650E+03  0.66428799680E+03  0.17373974218E+03 0.  0.
         24    2    5    5    0    0  0.62006705471E+01  0.54472987789E+02  0.21089713917E+03  0.23210279340E+03  0.79927146094E+02 0.  0.
          5    1    5    5  501    0 -0.11566088088E+03  0.27953235075E+02  0.41545533733E+03  0.43218520339E+03  0.47000000000E+01 0. -1.
        -13    1    6    6    0    0 -0.32480117338E+02  0.83889231058E+01  0.48960721480E+02  0.59350520646E+02  0.00000000000E+00 0.  1.
         14    1    6    6    0    0  0.38680787885E+02  0.46084064683E+02  0.16193641769E+03  0.17275227276E+03  0.00000000000E+00 0. -1.
         -5    1    3    3    0  503 -0.13602706353E+02 -0.45434508857E+02 -0.80681609427E+02  0.93706671667E+02  0.47000000000E+01 0.  1.
         13    1    4    4    0    0  0.98597403361E+02 -0.13448310630E+01 -0.47061261841E+02  0.10926124146E+03  0.00000000000E+00 0. -1.
        -14    1    4    4    0    0  0.24465513328E+02 -0.35646882943E+02  0.11945542912E+02  0.44854850366E+02  0.00000000000E+00 0.  1.
</event>
<event>
12    1  0.8196217E-002  0.1935395E+03  0.7818608E-02  0.1155711E+00
         21   -1    0    0  503  502  0.00000000000E+00  0.00000000000E+00  0.45050079688E+03  0.45050079688E+03  0.00000000000E+00 0. -1.
         21   -1    0    0  501  503 -0.00000000000E+00 -0.00000000000E+00 -0.18132816703E+03  0.18132816703E+03  0.00000000000E+00 0. -1.
          6    2    1    2  501    0 -0.77705406621E+01  0.84797374424E+02 -0.99089793271E+02  0.21580643424E+03  0.17176336605E+03 0.  0.
         24    2    3    3    0    0  0.12841234669E+01 -0.25008130637E+02 -0.51081694080E+02  0.95531318476E+02  0.76745278479E+02 0.  0.
         -6    2    1    2    0  502  0.77705406621E+01 -0.84797374424E+02  0.36826242312E+03  0.41602252966E+03  0.17380033629E+03 0.  0.
        -24    2    5    5    0    0 -0.38999111767E+02 -0.10728019013E+03  0.29321955732E+03  0.32466390064E+03  0.79993560155E+02 0.  0.
          5    1    3    3  501    0 -0.90546641290E+01  0.10980550506E+03 -0.48008099191E+02  0.12027511576E+03  0.47000000000E+01 0. -1.
        -13    1    4    4    0    0  0.32885701479E+02  0.37392425099E+01 -0.38966681837E+02  0.51125860283E+02  0.00000000000E+00 0.  1.
         14    1    4    4    0    0 -0.31601578012E+02 -0.28747373147E+02 -0.12115012243E+02  0.44405458193E+02  0.00000000000E+00 0. -1.
         -5    1    5    5    0  502  0.46769652429E+02  0.22482815708E+02  0.75042865798E+02  0.91358629027E+02  0.47000000000E+01 0.  1.
         13    1    6    6    0    0  0.90080151251E+01 -0.86366659523E+02  0.17465321302E+03  0.19504894009E+03  0.00000000000E+00 0. -1.
        -14    1    6    6    0    0 -0.48007126892E+02 -0.20913530609E+02  0.11856634431E+03  0.12961496055E+03  0.00000000000E+00 0.  1.
</event>
<event>
12    1  0.8196217E-002  0.2040614E+03  0.7818608E-02  0.1148653E+00
         21   -1    0    0  503  502  0.00000000000E+00  0.00000000000E+00  0.27156643612E+02  0.27156643612E+02  0.00000000000E+00 0.  1.
         21   -1    0    0  501  503 -0.00000000000E+00 -0.00000000000E+00 -0.24793060377E+04  0.24793060377E+04  0.00000000000E+00 0.  1.
          6    2    1    2  501    0  0.31920896278E+02 -0.81487339384E+02 -0.20126223590E+04  0.20218751743E+04  0.17225368006E+03 0.  0.
         24    2    3    3    0    0  0.47702465316E+02  0.86173456728E+01 -0.74210227007E+03  0.74805756622E+03  0.80774744219E+02 0.  0.
         -6    2    1    2    0  502 -0.31920896278E+02  0.81487339384E+02 -0.43952703510E+03  0.48458750705E+03  0.18434182192E+03 0.  0.
        -24    2    5    5    0    0  0.52434164086E+02  0.37713147195E+02 -0.15025000475E+03  0.18006288342E+03  0.75338934311E+02 0.  0.
          5    1    3    3  501    0 -0.15781569038E+02 -0.90104685057E+02 -0.12705200889E+04  0.12738176080E+04  0.47000000000E+01 0. -1.
        -11    1    4    4    0    0  0.53462413267E+02 -0.76818398556E+01 -0.70564889284E+03  0.70771293634E+03  0.00000000000E+00 0.  1.
         12    1    4    4    0    0 -0.57599479506E+01  0.16299185528E+02 -0.36453377222E+02  0.40344629881E+02  0.00000000000E+00 0. -1.
         -5    1    5    5    0  502 -0.84355060364E+02  0.43774192189E+02 -0.28927703035E+03  0.30452462363E+03  0.47000000000E+01 0.  1.
         13    1    6    6    0    0 -0.30312500228E+01  0.15199242295E+02 -0.10201886600E+03  0.10318941061E+03  0.00000000000E+00 0. -1.
        -14    1    6    6    0    0  0.55465414109E+02  0.22513904900E+02 -0.48231138752E+02  0.76873472807E+02  0.00000000000E+00 0.  1.
</event>
<event>
12    1  0.8196217E-002  0.2176363E+03  0.7818608E-02  0.1135704E+00
         21   -1    0    0  501  502  0.00000000000E+00  0.00000000000E+00  0.64410019726E+02  0.64410019726E+02  0.00000000000E+00 0.  1.
         21   -1    0    0  502  503 -0.00000000000E+00 -0.00000000000E+00 -0.73454652552E+03  0.73454652552E+03  0.00000000000E+00 0. -1.
         -6    2    1    2    0  503 -0.12030584709E+03 -0.55913236248E+02 -0.33542609917E+03  0.39971148598E+03  0.17221735450E+03 0.  0.
        -24    2    3    3    0    0 -0.38604117359E+02 -0.44910317897E+02 -0.28130902964E+03  0.30098467064E+03  0.89161579586E+02 0.  0.
          6    2    1    2  501    0  0.12030584709E+03  0.55913236248E+02 -0.33471040663E+03  0.39924505927E+03  0.17252760421E+03 0.  0.
         24    2    5    5    0    0  0.77326695682E+02  0.83759531055E+02 -0.13739679409E+03  0.19533974967E+03  0.79275859297E+02 0.  0.
          5    1    5    5  501    0  0.42979151403E+02 -0.27846294807E+02 -0.19731361254E+03  0.20390530960E+03  0.47000000000E+01 0. -1.
        -11    1    6    6    0    0  0.35663823440E+02  0.77759910677E+02 -0.12497862213E+03  0.15145351763E+03  0.00000000000E+00 0.  1.
         12    1    6    6    0    0  0.41662872242E+02  0.59996203784E+01 -0.12418171953E+02  0.43886232042E+02  0.00000000000E+00 0. -1.
         -5    1    3    3    0  503 -0.81701729726E+02 -0.11002918351E+02 -0.54117069534E+02  0.98726815341E+02  0.47000000000E+01 0.  1.
         13    1    4    4    0    0 -0.20544563253E+02  0.16627548640E+02 -0.23658472732E+02  0.35472211449E+02  0.00000000000E+00 0. -1.
        -14    1    4    4    0    0 -0.18059554106E+02 -0.61537866537E+02 -0.25765055690E+03  0.26551245919E+03  0.00000000000E+00 0.  1.
</event>
<event>
12    1  0.8196217E-002  0.2846259E+03  0.7818608E-02  0.1093214E+00
         21   -1    0    0  503  502  0.00000000000E+00  0.00000000000E+00  0.15338954762E+03  0.15338954762E+03  0.00000000000E+00 0.  1.
         21   -1    0    0  501  503 -0.00000000000E+00 -0.00000000000E+00 -0.62935300769E+03  0.62935300769E+03  0.00000000000E+00 0. -1.
          6    2    1    2  501    0  0.14184171739E+03  0.17608654299E+03 -0.39526597775E+03  0.48708018147E+03  0.17287673819E+03 0.  0.
         24    2    3    3    0    0  0.16264312659E+03  0.11023408373E+03 -0.26289847742E+03  0.33770652195E+03  0.79534556621E+02 0.  0.
         -6    2    1    2    0  502 -0.14184171739E+03 -0.17608654299E+03 -0.80697482318E+02  0.29566237384E+03  0.17256480591E+03 0.  0.
        -24    2    5    5    0    0 -0.28052080781E+02 -0.80382793148E+02 -0.90450804333E+02  0.14658351410E+03  0.77827154195E+02 0.  0.
          5    1    3    3  501    0 -0.20801409209E+02  0.65852459257E+02 -0.13236750033E+03  0.14937365952E+03  0.47000000000E+01 0. -1.
        -11    1    4    4    0    0  0.13826502151E+03  0.75337476971E+02 -0.15172855959E+03  0.21866528624E+03  0.00000000000E+00 0.  1.
         12    1    4    4    0    0  0.24378105081E+02  0.34896606759E+02 -0.11116991783E+03  0.11904123572E+03  0.00000000000E+00 0. -1.
         -5    1    5    5    0  502 -0.11378963660E+03 -0.95703749838E+02  0.97533220147E+01  0.14907885974E+03  0.47000000000E+01 0.  1.
         13    1    6    6    0    0  0.30502526010E+01 -0.16791487750E+02 -0.71208385662E+02  0.73224943089E+02  0.00000000000E+00 0. -1.
        -14    1    6    6    0    0 -0.31102333382E+02 -0.63591305397E+02 -0.19242418671E+02  0.73358571007E+02  0.00000000000E+00 0.  1.
</event>
<event>
12    1  0.8196217E-002  0.2085272E+03  0.7818608E-02  0.1142931E+00
         21   -1    0    0  503  502  0.00000000000E+00  0.00000000000E+00  0.50098819579E+02  0.50098819579E+02  0.00000000000E+00 0.  1.
         21   -1    0    0  501  503 -0.00000000000E+00 -0.00000000000E+00 -0.90798489780E+03  0.90798489780E+03  0.00000000000E+00 0. -1.
          6    2    1    2  501    0  0.56794555374E+02  0.10090147415E+03 -0.53539507282E+03  0.57457068297E+03  0.17342680509E+03 0.  0.
         24    2    3    3    0    0  0.98500254478E+02  0.39189312881E+02 -0.37141263294E+03  0.39440385258E+03  0.79805718110E+02 0.  0.
         -6    2    1    2    0  502 -0.56794555374E+02 -0.10090147415E+03 -0.32249100539E+03  0.38351303440E+03  0.17226453492E+03 0.  0.
        -24    2    5    5    0    0 -0.88583049298E+02 -0.11463203683E+03 -0.29754025686E+03  0.34057509605E+03  0.80459499781E+02 0.  0.
          5    1    3    3  501    0 -0.41705699105E+02  0.61712161264E+02 -0.16398243989E+03  0.18016683040E+03  0.47000000000E+01 0. -1.
        -13    1    4    4    0    0  0.84113939984E+01 -0.99469043220E+01 -0.51003001019E+01  0.13989478751E+02  0.00000000000E+00 0.  1.
         14    1    4    4    0    0  0.90088860480E+02  0.49136217203E+02 -0.36631233284E+03  0.38041437382E+03  0.00000000000E+00 0. -1.
         -5    1    5    5    0  502  0.31788493924E+02  0.13730562686E+02 -0.24950748536E+02  0.42937938355E+02  0.47000000000E+01 0.  1.
         11    1    6    6    0    0 -0.21457117715E+02 -0.92593360638E+02 -0.17300558285E+03  0.19739521279E+03  0.00000000000E+00 0. -1.
        -12    1    6    6    0    0 -0.67125931583E+02 -0.22038676193E+02 -0.12453467400E+03  0.14317988325E+03  0.00000000000E+00 0.  1.
</event>
<event>
12    1  0.8196217E-002  0.2024205E+03  0.7818608E-02  0.1149042E+00
         21   -1    0    0  503  502  0.00000000000E+00  0.00000000000E+00  0.27043335966E+03  0.27043335966E+03  0.00000000000E+00 0.  1.
         21   -1    0    0  501  503 -0.00000000000E+00 -0.00000000000E+00 -0.37530574787E+03  0.37530574787E+03  0.00000000000E+00 0. -1.
          6    2    1    2  501    0  0.19084159343E+02  0.92905133075E+02 -0.30465930136E+03  0.36577497302E+03  0.17882525574E+03 0.  0.
         24    2    3    3    0    0 -0.32182616526E+02  0.47235277537E+01 -0.20899809613E+03  0.22585558905E+03  0.79199181793E+02 0.  0.
         -6    2    1    2    0  502 -0.19084159343E+02 -0.92905133075E+02  0.19978691316E+03  0.27996413451E+03  0.17166693640E+03 0.  0.
        -24    2    5    5    0    0 -0.40573468319E+02 -0.91054489718E+02  0.66591799952E+02  0.14495212222E+03  0.81483271197E+02 0.  0.
          5    1    3    3  501    0  0.51266775869E+02  0.88181605321E+02 -0.95661205235E+02  0.13991938398E+03  0.47000000000E+01 0.  1.
        -11    1    4    4    0    0  0.10642478384E+02  0.29779945419E+01  0.13969651644E+01  0.11139223910E+02  0.00000000000E+00 0.  1.
         12    1    4    4    0    0 -0.42825094910E+02  0.17455332119E+01 -0.21039506129E+03  0.21471636514E+03  0.00000000000E+00 0. -1.
         -5    1    5    5    0  502  0.21489308976E+02 -0.18506433571E+01  0.13319511320E+03  0.13501201229E+03  0.47000000000E+01 0.  1.
         11    1    6    6    0    0 -0.33564409300E+02 -0.15581405160E+02  0.57821009409E+02  0.68648517008E+02  0.00000000000E+00 0. -1.
        -12    1    6    6    0    0 -0.70090590194E+01 -0.75473084558E+02  0.87707905436E+01  0.76303605208E+02  0.00000000000E+00 0.  1.
</event>
<event>
12    1  0.8196217E-002  0.1985363E+03  0.7818608E-02  0.1151472E+00
         21   -1    0    0  501  502  0.00000000000E+00  0.00000000000E+00  0.55063445994E+02  0.55063445994E+02  0.00000000000E+00 0. -1.
         21   -1    0    0  502  503 -0.00000000000E+00 -0.00000000000E+00 -0.21436629258E+04  0.21436629258E+04  0.00000000000E+00 0. -1.
         -6    2    1    2    0  503 -0.73997570592E+02  0.64154631612E+02 -0.19461083676E+04  0.19562091984E+04  0.17269971732E+03 0.  0.
        -24    2    3    3    0    0 -0.70795939066E+01 -0.22625750686E+01 -0.13829895447E+04  0.13852327018E+04  0.78449458982E+02 0.  0.
          6    2    1    2  501    0  0.73997570592E+02 -0.64154631612E+02 -0.14249111222E+03  0.24251717338E+03  0.17005706428E+03 0.  0.
         24    2    5    5    0    0  0.13460022115E+02  0.19180026368E+02 -0.16806092761E+02  0.79949421003E+02  0.74568220832E+02 0.  0.
          5    1    5    5  501    0  0.60537548477E+02 -0.83334657980E+02 -0.12568501946E+03  0.16256775238E+03  0.47000000000E+01 0. -1.
        -13    1    6    6    0    0 -0.89050543709E+01 -0.20156983826E+02 -0.25678214907E+02  0.33837474952E+02  0.00000000000E+00 0.  1.
         14    1    6    6    0    0  0.22365076486E+02  0.39337010194E+02  0.88721221465E+01  0.46111946051E+02  0.00000000000E+00 0. -1.
         -5    1    3    3    0  503 -0.66917976685E+02  0.66417206680E+02 -0.56311882293E+03  0.57097649661E+03  0.47000000000E+01 0.  1.
         13    1    4    4    0    0  0.16191980347E+02  0.32546569953E+02 -0.55994521552E+03  0.56112396476E+03  0.00000000000E+00 0. -1.
        -14    1    4    4    0    0 -0.23271574254E+02 -0.34809145022E+02 -0.82304432916E+03  0.82410873706E+03  0.00000000000E+00 0.  1.
</event>
<event>
12    1  0.8196217E-002  0.1892598E+03  0.7818608E-02  0.1159405E+00
         21   -1    0    0  503  502  0.00000000000E+00  0.00000000000E+00  0.33272533855E+02  0.33272533855E+02  0.00000000000E+00 0.  1.
         21   -1    0    0  501  503 -0.00000000000E+00 -0.00000000000E+00 -0.11865831651E+04  0.11865831651E+04  0.00000000000E+00 0. -1.
          6    2    1    2  501    0 -0.58365315083E+02 -0.51105464630E+02 -0.76976325896E+03  0.79268831337E+03  0.17262968686E+03 0.  0.
         24    2    3    3    0    0 -0.29858144010E+02  0.32755991710E+02 -0.27137428153E+03  0.28646794092E+03  0.80345608093E+02 0.  0.
         -6    2    1    2    0  502  0.58365315083E+02  0.51105464630E+02 -0.38354737229E+03  0.42716738559E+03  0.17130414474E+03 0.  0.
        -24    2    5    5    0    0  0.70555816178E+02  0.22396702702E+02 -0.12344490166E+03  0.16515939610E+03  0.80989177591E+02 0.  0.
          5    1    3    3  501    0 -0.28507171073E+02 -0.83861456341E+02 -0.49838897743E+03  0.50622037245E+03  0.47000000000E+01 0. -1.
        -13    1    4    4    0    0  0.18785792128E+02  0.24408674718E+02 -0.18000032824E+03  0.18261655882E+03  0.00000000000E+00 0.  1.
         14    1    4    4    0    0 -0.48643936139E+02  0.83473169925E+01 -0.91373953289E+02  0.10385138210E+03  0.00000000000E+00 0. -1.
         -5    1    5    5    0  502 -0.12190501095E+02  0.28708761928E+02 -0.26010247063E+03  0.26200798949E+03  0.47000000000E+01 0.  1.
         11    1    6    6    0    0  0.55584717320E+02  0.14505607723E+02 -0.13359708982E+03  0.14542439913E+03  0.00000000000E+00 0. -1.
        -12    1    6    6    0    0  0.14971098859E+02  0.78910949795E+01  0.10152188159E+02  0.19734996971E+02  0.00000000000E+00 0.  1.
</event>
<event>
12    1  0.8196217E-002  0.2323616E+03  0.7818608E-02  0.1125295E+00
         21   -1    0    0  503  502  0.00000000000E+00  0.00000000000E+00  0.23467018809E+03  0.23467018809E+03  0.00000000000E+00 0. -1.
         21   -1    0    0  501  503 -0.00000000000E+00 -0.00000000000E+00 -0.48462228914E+03  0.48462228914E+03  0.00000000000E+00 0. -1.
          6    2    1    2  501    0  0.12712962766E+03 -0.94078772217E+02 -0.38628840304E+03  0.44988667815E+03  0.16782888680E+03 0.  0.
         24    2    3    3    0    0  0.89037326510E+02 -0.49290853049E+02 -0.36415353315E+03  0.38688649105E+03  0.81951983169E+02 0.  0.
         -6    2    1    2    0  502 -0.12712962766E+03  0.94078772217E+02  0.13633630199E+03  0.26940579907E+03  0.17023260476E+03 0.  0.
        -24    2    5    5    0    0 -0.29515003946E+02  0.10393015353E+03  0.72755773555E+02  0.15240050829E+03  0.79119530266E+02 0.  0.
          5    1    3    3  501    0  0.38092301145E+02 -0.44787919168E+02 -0.22134869893E+02  0.63000187103E+02  0.47000000000E+01 0. -1.
        -11    1    4    4    0    0  0.20711351953E+02  0.23031302718E+02 -0.95794830383E+02  0.10067795455E+03  0.00000000000E+00 0.  1.
         12    1    4    4    0    0  0.68325974557E+02 -0.72322155767E+02 -0.26835870277E+03  0.28620853650E+03  0.00000000000E+00 0. -1.
         -5    1    5    5    0  502 -0.97614623709E+02 -0.98513813155E+01  0.63580528435E+02  0.11700529078E+03  0.47000000000E+01 0.  1.
         11    1    6    6    0    0  0.21390326204E+02  0.66030007656E+02  0.47445857504E+02  0.84075069792E+02  0.00000000000E+00 0. -1.
        -12    1    6    6    0    0 -0.50905330150E+02  0.37900145876E+02  0.25309916051E+02  0.68325438496E+02  0.00000000000E+00 0.  1.
</event>
<event>
12    1  0.8196217E-002  0.1834277E+03  0.7818608E-02  0.1164629E+00
         21   -1    0    0  501  502  0.00000000000E+00  0.00000000000E+00  0.51604655160E+03  0.51604655160E+03  0.00000000000E+00 0.  1.
         21   -1    0    0  502  503 -0.00000000000E+00 -0.00000000000E+00 -0.65769722859E+02  0.65769722859E+02  0.00000000000E+00 0.  1.
         -6    2    1    2    0  503  0.39669469298E+02  0.47424440321E+02  0.19486631317E+03  0.26761654381E+03  0.17269334145E+03 0.  0.
        -24    2    3    3    0    0  0.91326652023E+02  0.38962334154E+02  0.15745308193E+03  0.20310366417E+03  0.81246566321E+02 0.  0.
          6    2    1    2  501    0 -0.39669469298E+02 -0.47424440321E+02  0.25541051557E+03  0.31419973065E+03  0.17223296705E+03 0.  0.
         24    2    5    5    0    0 -0.35687324658E+02  0.16201028117E+02  0.22817936779E+03  0.24471819987E+03  0.79278717242E+02 0.  0.
          5    1    5    5  501    0 -0.39821446405E+01 -0.63625468438E+02  0.27231147782E+02  0.69481530779E+02  0.47000000000E+01 0. -1.
        -11    1    6    6    0    0 -0.58221117335E+02  0.24998904102E+02  0.17960418343E+03  0.19045289815E+03  0.00000000000E+00 0.  1.
         12    1    6    6    0    0  0.22533792677E+02 -0.87978759844E+01  0.48575184361E+02  0.54265301713E+02  0.00000000000E+00 0. -1.
         -5    1    3    3    0  503 -0.51657182725E+02  0.84621061671E+01  0.37413231239E+02  0.64512879641E+02  0.47000000000E+01 0.  1.
         13    1    4    4    0    0  0.36063536303E+02  0.32262606069E+02  0.13441059534E+03  0.14285539031E+03  0.00000000000E+00 0. -1.
        -14    1    4    4    0    0  0.55263115720E+02  0.66997280851E+01  0.23042486593E+02  0.60248273866E+02  0.00000000000E+00 0.  1.
</event>
<event>
12    1  0.8196217E-002  0.1882528E+03  0.7818608E-02  0.1160079E+00
         21   -1    0    0  503  502  0.00000000000E+00  0.00000000000E+00  0.68342071028E+02  0.68342071028E+02  0.00000000000E+00 0. -1.
         21   -1    0    0  501  503 -0.00000000000E+00 -0.00000000000E+00 -0.51941767984E+03  0.51941767984E+03  0.00000000000E+00 0. -1.
          6    2    1    2  501    0 -0.38641870805E+02 -0.66541229805E+02 -0.24007710293E+03  0.30508381317E+03  0.17180858030E+03 0.  0.
         24    2    3    3    0    0 -0.45015670119E+02  0.15568858976E+02 -0.18203687576E+03  0.20422029169E+03  0.79370671366E+02 0.  0.
         -6    2    1    2    0  502  0.38641870805E+02  0.66541229805E+02 -0.21099850588E+03  0.28267593769E+03  0.17165193510E+03 0.  0.
        -24    2    5    5    0    0  0.63225190348E+02  0.10348318961E+03 -0.16032945148E+03  0.21515933923E+03  0.76692978966E+02 0.  0.
          5    1    3    3  501    0  0.63737993135E+01 -0.82110088781E+02 -0.58040227171E+02  0.10086352149E+03  0.47000000000E+01 0. -1.
        -13    1    4    4    0    0 -0.86793149594E+01  0.43763947442E+02 -0.11058039187E+03  0.11924192497E+03  0.00000000000E+00 0.  1.
         14    1    4    4    0    0 -0.36336355159E+02 -0.28195088467E+02 -0.71456483894E+02  0.84978366720E+02  0.00000000000E+00 0. -1.
         -5    1    5    5    0  502 -0.24583319543E+02 -0.36941959800E+02 -0.50669054405E+02  0.67516598463E+02  0.47000000000E+01 0.  1.
         11    1    6    6    0    0  0.53816947740E+02  0.64877972299E+02 -0.15310083101E+03  0.17477207904E+03  0.00000000000E+00 0. -1.
        -12    1    6    6    0    0  0.94082426085E+01  0.38605217306E+02 -0.72286204614E+01  0.40387260195E+02  0.00000000000E+00 0.  1.
</event>
<event>
12    1  0.8196217E-002  0.1950580E+03  0.7818608E-02  0.1154501E+00
         21   -1    0    0  503  502  0.00000000000E+00  0.00000000000E+00  0.30583071177E+03  0.30583071177E+03  0.00000000000E+00 0. -1.
         21   -1    0    0  501  503 -0.00000000000E+00 -0.00000000000E+00 -0.15277036673E+03  0.15277036673E+03  0.00000000000E+00 0. -1.
          6    2    1    2  501    0  0.71889413437E+02 -0.57702309083E+02 -0.24500532420E+02  0.19659070579E+03  0.17190109156E+03 0.  0.
         24    2    3    3    0    0  0.43215962994E+02  0.33745059027E+02 -0.24779555223E+02  0.10063782284E+03  0.80669675602E+02 0.  0.
         -6    2    1    2    0  502 -0.71889413437E+02  0.57702309083E+02  0.17756087746E+03  0.26201037270E+03  0.16918606905E+03 0.  0.
        -24    2    5    5    0    0 -0.99853481626E+02  0.83212888405E+02  0.12398163818E+03  0.19624105121E+03  0.79018991296E+02 0.  0.
          5    1    3    3  501    0  0.28673450443E+02 -0.91447368109E+02  0.27902280316E+00  0.95952882959E+02  0.47000000000E+01 0. -1.
        -11    1    4    4    0    0  0.33051687861E+02 -0.12140176645E+02  0.15754975766E+02  0.38574826258E+02  0.00000000000E+00 0.  1.
         12    1    4    4    0    0  0.10164275133E+02  0.45885235672E+02 -0.40534530989E+02  0.62062996577E+02  0.00000000000E+00 0. -1.
         -5    1    5    5    0  502  0.27964068189E+02 -0.25510579322E+02  0.53579239284E+02  0.65769321490E+02  0.47000000000E+01 0.  1.
         11    1    6    6    0    0 -0.34306887534E+02  0.42005674338E+02  0.52396273230E+01  0.54487548150E+02  0.00000000000E+00 0. -1.
        -12    1    6    6    0    0 -0.65546594091E+02  0.41207214067E+02  0.11874201085E+03  0.14175350306E+03  0.00000000000E+00 0.  1.
</event>
<event>
12    1  0.8196217E-002  0.1810294E+03  0.7818608E-02  0.1167091E+00
         21   -1    0    0  501  502  0.00000000000E+00  0.00000000000E+00  0.49228998934E+03  0.49228998934E+03  0.00000000000E+00 0. -1.
         21   -1    0    0  502  503 -0.00000000000E+00 -0.00000000000E+00 -0.77416373708E+02  0.77416373708E+02  0.00000000000E+00 0. -1.
         -6    2    1    2    0  503  0.33537414884E+02 -0.46011103693E+02  0.99307344422E+02  0.20647903240E+03  0.17184255091E+03 0.  0.
        -24    2    3    3    0    0  0.87774666926E+02 -0.27465638449E+02  0.85684574523E+02  0.14737502534E+03  0.76933726895E+02 0.  0.
          6    2    1    2  501    0 -0.33537414884E+02  0.46011103693E+02  0.31556627121E+03  0.36322733065E+03  0.17061723930E+03 0.  0.
         24    2    5    5    0    0 -0.29454378165E+02 -0.32290946381E+02  0.10241794036E+03  0.13606619141E+03  0.78194042787E+02 0.  0.
          5    1    5    5  501    0 -0.40830367188E+01  0.78302050073E+02  0.21314833085E+03  0.22716113924E+03  0.47000000000E+01 0. -1.
        -13    1    6    6    0    0 -0.19454407301E+02 -0.56407565030E+02  0.87766179124E+02  0.10612817512E+03  0.00000000000E+00 0.  1.
         14    1    6    6    0    0 -0.99999708642E+01  0.24116618649E+02  0.14651761232E+02  0.29938016293E+02  0.00000000000E+00 0. -1.
         -5    1    3    3    0  503 -0.54237252042E+02 -0.18545465243E+02  0.13622769899E+02  0.59104007055E+02  0.47000000000E+01 0.  1.
         11    1    4    4    0    0  0.15520979531E+02  0.27203553681E+01  0.64298821620E+02  0.66201507541E+02  0.00000000000E+00 0. -1.
        -12    1    4    4    0    0  0.72253687396E+02 -0.30185993817E+02  0.21385752903E+02  0.81173517801E+02  0.00000000000E+00 0.  1.
</event>
<event>
12    1  0.8196217E-002  0.2035343E+03  0.7818608E-02  0.1147063E+00
         21   -1    0    0  503  502  0.00000000000E+00  0.00000000000E+00  0.29723726070E+03  0.29723726070E+03  0.00000000000E+00 0.  1.
         21   -1    0    0  501  503 -0.00000000000E+00 -0.00000000000E+00 -0.14380331793E+03  0.14380331793E+03  0.00000000000E+00 0.  1.
          6    2    1    2  501    0  0.10779839099E+03  0.93073551512E+01  0.34015328893E+02  0.20505962280E+03  0.17083701690E+03 0.  0.
         24    2    3    3    0    0  0.10062081005E+03  0.59415650885E+02 -0.32432968004E+01  0.14203062822E+03  0.80668540290E+02 0.  0.
         -6    2    1    2    0  502 -0.10779839099E+03 -0.93073551512E+01  0.11941861388E+03  0.23598095583E+03  0.17239224522E+03 0.  0.
        -24    2    5    5    0    0 -0.46745354754E+02 -0.70040853383E+02  0.55195071278E+02  0.12845056726E+03  0.79763418943E+02 0.  0.
          5    1    3    3  501    0  0.71775809450E+01 -0.50108295734E+02  0.37258625694E+02  0.63028994583E+02  0.47000000000E+01 0. -1.
        -13    1    4    4    0    0  0.53003315131E+02 -0.12289302387E+02  0.88002822267E+01  0.55116452492E+02  0.00000000000E+00 0.  1.
         14    1    4    4    0    0  0.47617494918E+02  0.71704953273E+02 -0.12043579027E+02  0.86914175724E+02  0.00000000000E+00 0. -1.
         -5    1    5    5    0  502 -0.61053036240E+02  0.60733498232E+02  0.64223542605E+02  0.10753038857E+03  0.47000000000E+01 0.  1.
         11    1    6    6    0    0  0.98385691499E+01  0.60878270818E+01  0.27189048610E+02  0.29548323908E+02  0.00000000000E+00 0. -1.
        -12    1    6    6    0    0 -0.56583923904E+02 -0.76128680465E+02  0.28006022668E+02  0.98902243348E+02  0.00000000000E+00 0.  1.
</event>
<event>
12    1  0.8196217E-002  0.2071520E+03  0.7818608E-02  0.1143964E+00
         21   -1    0    0  501  502  0.00000000000E+00  0.00000000000E+00  0.11836376618E+03  0.11836376618E+03  0.00000000000E+00 0.  1.
         21   -1    0    0  502  503 -0.00000000000E+00 -0.00000000000E+00 -0.36878082860E+03  0.36878082860E+03  0.00000000000E+00 0.  1.
         -6    2    1    2    0  503  0.97185649394E+02 -0.61681988202E+02 -0.15930684245E+03  0.26084167403E+03  0.17149341312E+03 0.  0.
        -24    2    3    3    0    0  0.53963327209E+02 -0.10449737745E+03 -0.13292998386E+03  0.19436494607E+03  0.79218741919E+02 0.  0.
          6    2    1    2  501    0 -0.97185649394E+02  0.61681988202E+02 -0.91110219977E+02  0.22630292075E+03  0.17222723838E+03 0.  0.
         24    2    5    5    0    0 -0.10368488270E+03  0.49582844419E+02 -0.70305502289E+01  0.14097935906E+03  0.81343332145E+02 0.  0.
          5    1    5    5  501    0  0.64992333052E+01  0.12099143783E+02 -0.84079669748E+02  0.85323561686E+02  0.47000000000E+01 0. -1.
        -13    1    6    6    0    0 -0.88048185908E+01 -0.83531620287E+00 -0.29855242151E+02  0.31137727397E+02  0.00000000000E+00 0.  1.
         14    1    6    6    0    0 -0.94880064108E+02  0.50418160622E+02  0.22824691922E+02  0.10984163167E+03  0.00000000000E+00 0. -1.
         -5    1    3    3    0  503  0.43222322185E+02  0.42815389251E+02 -0.26376858586E+02  0.66476727963E+02  0.47000000000E+01 0.  1.
         11    1    4    4    0    0  0.46991895562E+02 -0.45824185653E+02 -0.11535428825E+03  0.13272040558E+03  0.00000000000E+00 0. -1.
        -12    1    4    4    0    0  0.69714316469E+01 -0.58673191800E+02 -0.17575695608E+02  0.61644540483E+02  0.00000000000E+00 0.  1.
</event>
<event>
12    1  0.8196217E-002  0.1801681E+03  0.7818608E-02  0.1168091E+00
         21   -1    0    0  503  502  0.00000000000E+00  0.00000000000E+00  0.38062466965E+03  0.38062466965E+03  0.00000000000E+00 0. -1.
         21   -1    0    0  501  503 -0.00000000000E+00 -0.00000000000E+00 -0.44782693527E+03  0.44782693527E+03  0.00000000000E+00 0. -1.
          6    2    1    2  501    0  0.46974098656E+02  0.86097785804E+01 -0.40672027323E+03  0.44409108448E+03  0.17179876723E+03 0.  0.
         24    2    3    3    0    0 -0.56246573240E+01  0.44420276703E+02 -0.12493844694E+03  0.15517568417E+03  0.80405719208E+02 0.  0.
         -6    2    1    2    0  502 -0.46974098656E+02 -0.86097785804E+01  0.33951800761E+03  0.38436052044E+03  0.17372345252E+03 0.  0.
        -24    2    5    5    0    0 -0.47287791028E+01 -0.49395205256E+02  0.95920566587E+02  0.13374144431E+03  0.78890881453E+02 0.  0.
          5    1    3    3  501    0  0.52598755980E+02 -0.35810498123E+02 -0.28178182630E+03  0.28891540031E+03  0.47000000000E+01 0. -1.
        -13    1    4    4    0    0 -0.16588753959E+02  0.50678076352E+01  0.57322284596E+01  0.18268220363E+02  0.00000000000E+00 0.  1.
         14    1    4    4    0    0  0.10964096635E+02  0.39352469068E+02 -0.13067067540E+03  0.13690746380E+03  0.00000000000E+00 0. -1.
         -5    1    5    5    0  502 -0.42245319553E+02  0.40785426676E+02  0.24359744102E+03  0.25061907614E+03  0.47000000000E+01 0.  1.
         11    1    6    6    0    0 -0.14334560138E+01 -0.61821134440E+02  0.10218643460E+03  0.11944025651E+03  0.00000000000E+00 0. -1.
        -12    1    6    6    0    0 -0.32953230890E+01  0.12425929184E+02 -0.62658680121E+01  0.14301187793E+02  0.00000000000E+00 0.  1.
</event>
<event>
12    1  0.8196217E-002  0.1799953E+03  0.7818608E-02  0.1168635E+00
         21   -1    0    0  503  502  0.00000000000E+00  0.00000000000E+00  0.95339031207E+03  0.95339031207E+03  0.00000000000E+00 0. -1.
         21   -1    0    0  501  503 -0.00000000000E+00 -0.00000000000E+00 -0.36602544429E+02  0.36602544429E+02  0.00000000000E+00 0. -1.
          6    2    1    2  501    0  0.15642295775E+02 -0.30112076337E+02  0.31472168961E+03  0.36255762644E+03  0.17676784781E+03 0.  0.
         24    2    3    3    0    0 -0.59264526153E+02 -0.21810147413E+02  0.14802670223E+03  0.17955690837E+03  0.79629216879E+02 0.  0.
         -6    2    1    2    0  502 -0.15642295775E+02  0.30112076337E+02  0.60206607802E+03  0.62743523005E+03  0.17332047498E+03 0.  0.
        -24    2    5    5    0    0  0.20948653666E+02  0.55579790999E+02  0.20311061941E+03  0.22596910442E+03  0.79247417489E+02 0.  0.
          5    1    3    3  501    0  0.74906821928E+02 -0.83019289239E+01  0.16669498738E+03  0.18300071807E+03  0.47000000000E+01 0. -1.
        -11    1    4    4    0    0  0.18406842733E+01  0.19202535742E+02  0.68672155672E+02  0.71330151144E+02  0.00000000000E+00 0.  1.
         12    1    4    4    0    0 -0.61105210426E+02 -0.41012683155E+02  0.79354546561E+02  0.10822675723E+03  0.00000000000E+00 0. -1.
         -5    1    5    5    0  502 -0.36590949441E+02 -0.25467714662E+02  0.39895545861E+03  0.40146612563E+03  0.47000000000E+01 0.  1.
         13    1    6    6    0    0 -0.29101019423E+00  0.49380635989E+02  0.19688606788E+03  0.20298437285E+03  0.00000000000E+00 0. -1.
        -14    1    6    6    0    0  0.21239663860E+02  0.61991550098E+01  0.62245515358E+01  0.22984731574E+02  0.00000000000E+00 0.  1.
</event>
<event>
12    1  0.8196217E-002  0.2243081E+03  0.7818608E-02  0.1130726E+00
         21   -1    0    0  501  502  0.00000000000E+00  0.00000000000E+00  0.56490232229E+02  0.56490232229E+02  0.00000000000E+00 0.  1.
         21   -1    0    0  502  503 -0.00000000000E+00 -0.00000000000E+00 -0.11187808817E+04  0.11187808817E+04  0.00000000000E+00 0.  1.
         -6    2    1    2    0  503  0.12029173965E+03  0.77968020475E+02 -0.79674684309E+03  0.82771954175E+03  0.17252534010E+03 0.  0.
        -24    2    3    3    0    0  0.82911377681E+02 -0.12203196911E+02 -0.29197595689E+03  0.31357571221E+03  0.77823860855E+02 0.  0.
          6    2    1    2  501    0 -0.12029173965E+03 -0.77968020475E+02 -0.26554380637E+03  0.34755157217E+03  0.17242235172E+03 0.  0.
         24    2    5    5    0    0 -0.96421993822E+02 -0.12076255420E+03 -0.21635405294E+03  0.27796092104E+03  0.81070352239E+02 0.  0.
          5    1    5    5  501    0 -0.23869745825E+02  0.42794533722E+02 -0.49189753433E+02  0.69590651132E+02  0.47000000000E+01 0. -1.
        -11    1    6    6    0    0 -0.39003703213E+02 -0.12418999767E+02 -0.17886986261E+02  0.44670624543E+02  0.00000000000E+00 0.  1.
         12    1    6    6    0    0 -0.57418290609E+02 -0.10834355443E+03 -0.19846706668E+03  0.23329029649E+03  0.00000000000E+00 0. -1.
         -5    1    3    3    0  503  0.37380361966E+02  0.90171217386E+02 -0.50477088620E+03  0.51414382955E+03  0.47000000000E+01 0.  1.
         11    1    4    4    0    0  0.88927584553E+02 -0.27280950880E+02 -0.27398011161E+03  0.28933970888E+03  0.00000000000E+00 0. -1.
        -12    1    4    4    0    0 -0.60162068721E+01  0.15077753969E+02 -0.17995845278E+02  0.24236003325E+02  0.00000000000E+00 0.  1.
</event>
<event>
12    1  0.8196217E-002  0.1951740E+03  0.7818608E-02  0.1153976E+00
         21   -1    0    0  503  502  0.00000000000E+00  0.00000000000E+00  0.27777298482E+03  0.27777298482E+03  0.00000000000E+00 0.  1.
         21   -1    0    0  501  503 -0.00000000000E+00 -0.00000000000E+00 -0.21491420769E+03  0.21491420769E+03  0.00000000000E+00 0.  1.
          6    2    1    2  501    0 -0.89449399772E+02  0.15730652976E+02 -0.11705055220E+03  0.22758233584E+03  0.17275485305E+03 0.  0.
         24    2    3    3    0    0 -0.34688259084E+02  0.74552487212E+02 -0.76472358508E+02  0.13742985104E+03  0.79231267017E+02 0.  0.
         -6    2    1    2    0  502  0.89449399772E+02 -0.15730652976E+02  0.17990932933E+03  0.26510485667E+03  0.17223405495E+03 0.  0.
        -24    2    5    5    0    0  0.66670964252E+02 -0.51694979154E+02  0.55841952915E+02  0.13385283278E+03  0.87640565920E+02 0.  0.
          5    1    3    3  501    0 -0.54761140688E+02 -0.58821834236E+02 -0.40578193695E+02  0.90152484801E+02  0.47000000000E+01 0. -1.
        -13    1    4    4    0    0 -0.52714070529E+02  0.64992493981E+02 -0.81072024619E+02  0.11651382185E+03  0.00000000000E+00 0.  1.
         14    1    4    4    0    0  0.18025811445E+02  0.95599932315E+01  0.45996661113E+01  0.20916029192E+02  0.00000000000E+00 0. -1.
         -5    1    5    5    0  502  0.22778435521E+02  0.35964326178E+02  0.12406737642E+03  0.13125202388E+03  0.47000000000E+01 0.  1.
         13    1    6    6    0    0 -0.16986178655E+02 -0.24309645565E+02  0.88563652318E-01  0.29656314274E+02  0.00000000000E+00 0. -1.
        -14    1    6    6    0    0  0.83657142907E+02 -0.27385333589E+02  0.55753389263E+02  0.10419651851E+03  0.00000000000E+00 0.  1.
</event>
<event>
12    1  0.8196217E-002  0.2141402E+03  0.7818608E-02  0.1138344E+00
         21   -1    0    0  503  502  0.00000000000E+00  0.00000000000E+00  0.12520107862E+04  0.12520107862E+04  0.00000000000E+00 0. -1.
         21   -1    0    0  501  503 -0.00000000000E+00 -0.00000000000E+00 -0.72388458045E+02  0.72388458045E+02  0.00000000000E+00 0.  1.
          6    2    1    2  501    0  0.41084846621E+02 -0.12157251600E+03  0.12433406601E+03  0.24761858806E+03  0.17142976380E+03 0.  0.
         24    2    3    3    0    0  0.37280387052E+01 -0.40641829393E+01  0.98667975431E+01  0.79307611042E+02  0.78497946596E+02 0.  0.
         -6    2    1    2    0  502 -0.41084846621E+02  0.12157251600E+03  0.10552882621E+04  0.10767806562E+04  0.17133424653E+03 0.  0.
        -24    2    5    5    0    0  0.10980136568E+02  0.46001067668E+02  0.80392244079E+03  0.80914532140E+03  0.78665104774E+02 0.  0.
          5    1    3    3  501    0  0.37356807916E+02 -0.11750833306E+03  0.11446726847E+03  0.16831097702E+03  0.47000000000E+01 0. -1.
        -11    1    4    4    0    0 -0.34653570100E+00  0.83506844109E+01 -0.33234471755E+02  0.34269288437E+02  0.00000000000E+00 0.  1.
         12    1    4    4    0    0  0.40745744062E+01 -0.12414867350E+02  0.43101269298E+02  0.45038322605E+02  0.00000000000E+00 0. -1.
         -5    1    5    5    0  502 -0.52064983189E+02  0.75571448332E+02  0.25136582133E+03  0.26763533476E+03  0.47000000000E+01 0.  1.
         11    1    6    6    0    0 -0.17122213583E+02  0.58101207156E+02  0.48801869007E+03  0.49176331942E+03  0.00000000000E+00 0. -1.
        -12    1    6    6    0    0  0.28102350151E+02 -0.12100139488E+02  0.31590375072E+03  0.31738200198E+03  0.00000000000E+00 0.  1.
</event>
<event>
12    1  0.8196217E-002  0.2032447E+03  0.7818608E-02  0.1147082E+00
         21   -1    0    0  503  502  0.00000000000E+00  0.00000000000E+00  0.74953016978E+02  0.74953016978E+02  0.00000000000E+00 0. -1.
         21   -1    0    0  501  503 -0.00000000000E+00 -0.00000000000E+00 -0.60072234492E+03  0.60072234492E+03  0.00000000000E+00 0. -1.
          6    2    1    2  501    0 -0.10745325006E+03 -0.14698965234E+02 -0.36077359239E+03  0.41408450352E+03  0.17188987918E+03 0.  0.
         24    2    3    3    0    0 -0.95092889942E+02  0.52249783317E+02 -0.23150895502E+03  0.26791217403E+03  0.80048979795E+02 0.  0.
         -6    2    1    2    0  502  0.10745325006E+03  0.14698965234E+02 -0.16499573555E+03  0.26159085837E+03  0.17159231890E+03 0.  0.
        -24    2    5    5    0    0  0.10535802673E+03  0.56563280954E+02 -0.16608989005E+03  0.21939727988E+03  0.79054388190E+02 0.  0.
          5    1    3    3  501    0 -0.12360360123E+02 -0.66948748550E+02 -0.12926463737E+03  0.14617232949E+03  0.47000000000E+01 0. -1.
        -11    1    4    4    0    0 -0.16111880088E+01  0.31053556036E+02 -0.23819719117E+02  0.39170119838E+02  0.00000000000E+00 0.  1.
         12    1    4    4    0    0 -0.93481701933E+02  0.21196227280E+02 -0.20768923590E+03  0.22874205419E+03  0.00000000000E+00 0. -1.
         -5    1    5    5    0  502  0.20952233305E+01 -0.41864315720E+02  0.10941545039E+01  0.42193578488E+02  0.47000000000E+01 0.  1.
         11    1    6    6    0    0  0.20848208661E+02 -0.97149260417E+01 -0.17391683220E+01  0.23066258882E+02  0.00000000000E+00 0. -1.
        -12    1    6    6    0    0  0.84509818074E+02  0.66278206995E+02 -0.16435072173E+03  0.19633102100E+03  0.00000000000E+00 0.  1.
</event>
<event>
12    1  0.8196217E-002  0.2245497E+03  0.7818608E-02  0.1131094E+00
         21   -1    0    0  501  502  0.00000000000E+00  0.00000000000E+00  0.71128959062E+02  0.71128959062E+02  0.00000000000E+00 0.  1.
         21   -1    0    0  502  503 -0.00000000000E+00 -0.00000000000E+00 -0.72700381586E+03  0.72700381586E+03  0.00000000000E+00 0.  1.
         -6    2    1    2    0  503 -0.13885037846E+03  0.40197931088E+02 -0.40369616117E+03  0.46046925896E+03  0.16782743114E+03 0.  0.
        -24    2    3    3    0    0 -0.16584490396E+03  0.17020361588E+02 -0.34082624376E+03  0.38807712783E+03  0.81529772646E+02 0.  0.
          6    2    1    2  501    0  0.13885037846E+03 -0.40197931088E+02 -0.25217869563E+03  0.33766351596E+03  0.17183496216E+03 0.  0.
         24    2    5    5    0    0  0.54707474102E+02 -0.84511628365E+02 -0.12084193100E+03  0.17544401078E+03  0.77734841461E+02 0.  0.
          5    1    5    5  501    0  0.84142904358E+02  0.44313697276E+02 -0.13133676463E+03  0.16221950519E+03  0.47000000000E+01 0. -1.
        -13    1    6    6    0    0  0.62671335501E+02 -0.81250028468E+02 -0.70799256801E+02  0.12466674851E+03  0.00000000000E+00 0.  1.
         14    1    6    6    0    0 -0.79638613992E+01 -0.32615998973E+01 -0.50042674203E+02  0.50777262270E+02  0.00000000000E+00 0. -1.
         -5    1    3    3    0  503  0.26994525504E+02  0.23177569501E+02 -0.62869917408E+02  0.72392131133E+02  0.47000000000E+01 0.  1.
         13    1    4    4    0    0 -0.19243778374E+02 -0.24418107574E+02 -0.82648707930E+02  0.88302751407E+02  0.00000000000E+00 0. -1.
        -14    1    4    4    0    0 -0.14660112559E+03  0.41438469161E+02 -0.25817753583E+03  0.29977437642E+03  0.00000000000E+00 0.  1.
</event>
<event>
12    1  0.8196217E-002  0.1769412E+03  0.7818608E-02  0.1171877E+00
         21   -1    0    0  501  502  0.00000000000E+00  0.00000000000E+00  0.14209158259E+03  0.14209158259E+03  0.00000000000E+00 0. -1.
         21   -1    0    0  502  503 -0.00000000000E+00 -0.00000000000E+00 -0.56628042694E+03  0.56628042694E+03  0.00000000000E+00 0. -1.
         -6    2    1    2    0  503  0.23539516672E+02  0.34321736914E+02 -0.49203833061E+03  0.52288613303E+03  0.17197703004E+03 0.  0.
        -24    2    3    3    0    0  0.32280640397E+02  0.20599563687E+02 -0.49688765526E+03  0.50527048001E+03  0.83273850907E+02 0.  0.
          6    2    1    2  501    0 -0.23539516672E+02 -0.34321736914E+02  0.67849486255E+02  0.18548587649E+03  0.16753915102E+03 0.  0.
         24    2    5    5    0    0 -0.61934259308E+02  0.22500369242E+02  0.46393029249E+02  0.11347631076E+03  0.79890179925E+02 0.  0.
          5    1    5    5  501    0  0.38394742635E+02 -0.56822106156E+02  0.21456457006E+02  0.72009565734E+02  0.47000000000E+01 0. -1.
        -13    1    6    6    0    0 -0.18415279130E+02  0.44953270520E+02  0.40655801231E+01  0.48748825398E+02  0.00000000000E+00 0.  1.
         14    1    6    6    0    0 -0.43518980178E+02 -0.22452901279E+02  0.42327449126E+02  0.64727485361E+02  0.00000000000E+00 0. -1.
         -5    1    3    3    0  503 -0.87411237248E+01  0.13722173227E+02  0.48493246536E+01  0.17615653029E+02  0.47000000000E+01 0.  1.
         13    1    4    4    0    0  0.28961825905E+00  0.36293190006E+02 -0.40643296879E+03  0.40805028813E+03  0.00000000000E+00 0. -1.
        -14    1    4    4    0    0  0.31991022138E+02 -0.15693626319E+02 -0.90454686468E+02  0.97220191877E+02  0.00000000000E+00 0.  1.
</event>
<event>
12    1  0.8196217E-002  0.2404826E+03  0.7818608E-02  0.1119543E+00
         21   -1    0    0  503  502  0.00000000000E+00  0.00000000000E+00  0.39329754347E+03  0.39329754347E+03  0.00000000000E+00 0. -1.
         21   -1    0    0  501  503 -0.00000000000E+00 -0.00000000000E+00 -0.15601134109E+03  0.15601134109E+03  0.00000000000E+00 0.  1.
          6    2    1    2  501    0  0.16670256005E+03 -0.22332731404E+02  0.18554954698E+03  0.30374414386E+03  0.17188186676E+03 0.  0.
         24    2    3    3    0    0  0.85021363579E+02  0.53947403229E+02  0.87699515574E+02  0.15512652901E+03  0.78956192855E+02 0.  0.
         -6    2    1    2    0  502 -0.16670256005E+03  0.22332731404E+02  0.51736655388E+02  0.24556474070E+03  0.17128008041E+03 0.  0.
        -24    2    5    5    0    0 -0.79535619302E+02  0.77934319615E+02  0.24337229539E+02  0.13850199878E+03  0.78681827710E+02 0.  0.
          5    1    3    3  501    0  0.81681196473E+02 -0.76280134633E+02  0.97850031410E+02  0.14861761485E+03  0.47000000000E+01 0. -1.
        -11    1    4    4    0    0  0.53410809816E+02  0.26185516058E+02  0.18389972207E+01  0.59512836995E+02  0.00000000000E+00 0.  1.
         12    1    4    4    0    0  0.31610553763E+02  0.27761887171E+02  0.85860518353E+02  0.95613692013E+02  0.00000000000E+00 0. -1.
         -5    1    5    5    0  502 -0.87166940750E+02 -0.55601588211E+02  0.27399425848E+02  0.10706274192E+03  0.47000000000E+01 0.  1.
         13    1    6    6    0    0  0.12748637443E+02  0.15474597376E+02 -0.92999251724E+01  0.22101572994E+02  0.00000000000E+00 0. -1.
        -14    1    6    6    0    0 -0.92284256745E+02  0.62459722240E+02  0.33637154712E+02  0.11640042578E+03  0.00000000000E+00 0.  1.
</event>
<event>
12    1  0.8196217E-002  0.1987664E+03  0.7818608E-02  0.1151058E+00
         21   -1    0    0  501  502  0.00000000000E+00  0.00000000000E+00  0.26491388140E+03  0.26491388140E+03  0.00000000000E+00 0.  1.
         21   -1    0    0  502  503 -0.00000000000E+00 -0.00000000000E+00 -0.15718389888E+03  0.15718389888E+03  0.00000000000E+00 0.  1.
         -6    2    1    2    0  503 -0.49807278219E+02  0.85394395986E+02  0.34995046254E+01  0.19879722705E+03  0.17243875179E+03 0.  0.
        -24    2    3    3    0    0 -0.15034711290E+02  0.12139866318E+03 -0.12898749938E+02  0.14591593149E+03  0.78494607130E+02 0.  0.
          6    2    1    2  501    0  0.49807278219E+02 -0.85394395986E+02  0.10423047789E+03  0.22330055323E+03  0.17095665159E+03 0.  0.
         24    2    5    5    0    0 -0.20179566285E+02 -0.10169051188E+03  0.51324063768E+02  0.13394228304E+03  0.67514447064E+02 0.  0.
          5    1    5    5  501    0  0.69986844504E+02  0.16296115891E+02  0.52906414125E+02  0.89358270195E+02  0.47000000000E+01 0. -1.
        -13    1    6    6    0    0  0.25091622707E+02 -0.39300560417E+02  0.20043203325E+02  0.50752867689E+02  0.00000000000E+00 0.  1.
         14    1    6    6    0    0 -0.45271188992E+02 -0.62389951460E+02  0.31280860443E+02  0.83189415348E+02  0.00000000000E+00 0. -1.
         -5    1    3    3    0  503 -0.34772566929E+02 -0.36004267193E+02  0.16398254564E+02  0.52881295556E+02  0.47000000000E+01 0.  1.
         13    1    4    4    0    0  0.57892781391E+01 -0.96607794707E+01  0.43961593146E+01  0.12090186850E+02  0.00000000000E+00 0. -1.
        -14    1    4    4    0    0 -0.20823989429E+02  0.13105944265E+03 -0.17294909253E+02  0.13382574464E+03  0.00000000000E+00 0.  1.
</event>
<event>
12    1  0.8196217E-002  0.1960676E+03  0.7818608E-02  0.1153810E+00
         21   -1    0    0  503  502  0.00000000000E+00  0.00000000000E+00  0.59958787430E+03  0.59958787430E+03  0.00000000000E+00 0.  1.
         21   -1    0    0  501  503 -0.00000000000E+00 -0.00000000000E+00 -0.77521184124E+02  0.77521184124E+02  0.00000000000E+00 0.  1.
          6    2    1    2  501    0  0.87171215710E+02  0.17126056933E+02  0.11301546570E+03  0.22349535188E+03  0.17113022571E+03 0.  0.
         24    2    3    3    0    0  0.10282147544E+03 -0.26278939903E+02  0.41533792067E+02  0.13828593899E+03  0.78326920947E+02 0.  0.
         -6    2    1    2    0  502 -0.87171215710E+02 -0.17126056933E+02  0.40905122447E+03  0.45361370654E+03  0.17478663519E+03 0.  0.
        -24    2    5    5    0    0 -0.75655699685E+02 -0.63275082689E+02  0.18319425479E+03  0.22275487426E+03  0.79574355375E+02 0.  0.
          5    1    3    3  501    0 -0.15650259729E+02  0.43404996836E+02  0.71481673634E+02  0.85209412893E+02  0.47000000000E+01 0. -1.
        -13    1    4    4    0    0  0.24452101413E+02 -0.30814941461E+02 -0.14406343272E+02  0.41892822861E+02  0.00000000000E+00 0.  1.
         14    1    4    4    0    0  0.78369374026E+02  0.45360015578E+01  0.55940135340E+02  0.96393116130E+02  0.00000000000E+00 0. -1.
         -5    1    5    5    0  502 -0.11515516025E+02  0.46149025756E+02  0.22585696968E+03  0.23085883228E+03  0.47000000000E+01 0.  1.
         13    1    6    6    0    0 -0.13260185903E+02  0.24488477627E+01 -0.45918355276E+01  0.14244800422E+02  0.00000000000E+00 0. -1.
        -14    1    6    6    0    0 -0.62395513782E+02 -0.65723930452E+02  0.18778609032E+03  0.20851007383E+03  0.00000000000E+00 0.  1.
</event>
<event>
12    1  0.8196217E-002  0.2076460E+03  0.7818608E-02  0.1143568E+00
         21   -1    0    0  501  502  0.00000000000E+00  0.00000000000E+00  0.49297064586E+03  0.49297064586E+03  0.00000000000E+00 0. -1.
         21   -1    0    0  502  503 -0.00000000000E+00 -0.00000000000E+00 -0.11286387891E+03  0.11286387891E+03  0.00000000000E+00 0. -1.
         -6    2    1    2    0  503 -0.41211667456E+01 -0.11652098657E+03  0.45399259860E+02  0.21194876312E+03  0.17107618498E+03 0.  0.
        -24    2    3    3    0    0  0.69157857060E+01 -0.18364023856E+02  0.70769098457E+02  0.10985898714E+03  0.81704750755E+02 0.  0.
          6    2    1    2  501    0  0.41211667456E+01  0.11652098657E+03  0.33470750710E+03  0.39388576165E+03  0.17182186589E+03 0.  0.
         24    2    5    5    0    0 -0.44882374692E+02  0.14262379190E+02  0.16582388202E+03  0.19041109818E+03  0.80876346624E+02 0.  0.
          5    1    5    5  501    0  0.49003541437E+02  0.10225860738E+03  0.16888362508E+03  0.20347466348E+03  0.47000000000E+01 0. -1.
        -13    1    6    6    0    0 -0.91357078398E+00 -0.86058090471E+01 -0.66778925883E+01  0.10931093740E+02  0.00000000000E+00 0.  1.
         14    1    6    6    0    0 -0.43968803908E+02  0.22868188237E+02  0.17250177460E+03  0.17948000444E+03  0.00000000000E+00 0. -1.
         -5    1    3    3    0  503 -0.11036952452E+02 -0.98156962711E+02 -0.25369838597E+02  0.10208977597E+03  0.47000000000E+01 0.  1.
         13    1    4    4    0    0  0.29430788882E+02  0.22713525068E+02  0.32096187611E+02  0.49114568250E+02  0.00000000000E+00 0. -1.
        -14    1    4    4    0    0 -0.22515003176E+02 -0.41077548923E+02  0.38672910847E+02  0.60744418895E+02  0.00000000000E+00 0.  1.
</event>
<event>
12    1  0.8196217E-002  0.1865411E+03  0.7818608E-02  0.1161738E+00
         21   -1    0    0  503  502  0.00000000000E+00  0.00000000000E+00  0.89897661070E+03  0.89897661070E+03  0.00000000000E+00 0. -1.
         21   -1    0    0  501  503 -0.00000000000E+00 -0.00000000000E+00 -0.40411046223E+02  0.40411046223E+02  0.00000000000E+00 0. -1.
          6    2    1    2  501    0  0.71393715125E+02 -0.14527566607E+02  0.33043764262E+03  0.37945569381E+03  0.17172499864E+03 0.  0.
         24    2    3    3    0    0 -0.29094706169E+02 -0.66935064036E+01  0.16599784052E+03  0.18652608534E+03  0.79657971970E+02 0.  0.
         -6    2    1    2    0  502 -0.71393715125E+02  0.14527566607E+02  0.52812792186E+03  0.55993196311E+03  0.17116246292E+03 0.  0.
        -24    2    5    5    0    0 -0.71574620521E+02 -0.46467333415E+02  0.26494838021E+03  0.28973579049E+03  0.80417937912E+02 0.  0.
          5    1    3    3  501    0  0.10048842129E+03 -0.78340602037E+01  0.16443980210E+03  0.19292960848E+03  0.47000000000E+01 0. -1.
        -13    1    4    4    0    0 -0.20434802926E+02  0.27027390439E+02  0.27262688647E+02  0.43489253809E+02  0.00000000000E+00 0.  1.
         14    1    4    4    0    0 -0.86599032432E+01 -0.33720896843E+02  0.13873515187E+03  0.14303683153E+03  0.00000000000E+00 0. -1.
         -5    1    5    5    0  502  0.18090539611E+00  0.60994900022E+02  0.26317954165E+03  0.27019617262E+03  0.47000000000E+01 0.  1.
         11    1    6    6    0    0 -0.28447129456E+02  0.21024112029E+02  0.59412166906E+02  0.69145195331E+02  0.00000000000E+00 0. -1.
        -12    1    6    6    0    0 -0.43127491065E+02 -0.67491445444E+02  0.20553621330E+03  0.22059059516E+03  0.00000000000E+00 0.  1.
</event>
<event>
12    1  0.8196217E-002  0.2155292E+03  0.7818608E-02  0.1137345E+00
         21   -1    0    0  501  502  0.00000000000E+00  0.00000000000E+00  0.40261876366E+03  0.40261876366E+03  0.00000000000E+00 0. -1.
         21   -1    0    0  502  503 -0.00000000000E+00 -0.00000000000E+00 -0.11689915240E+03  0.11689915240E+03  0.00000000000E+00 0. -1.
         -6    2    1    2    0  503  0.11202937165E+03  0.62087730143E+02  0.17485258830E+03  0.27753602003E+03  0.17334171002E+03 0.  0.
        -24    2    3    3    0    0  0.11135620673E+03  0.10291199979E+03  0.15706231841E+03  0.23275144852E+03  0.80706755883E+02 0.  0.
          6    2    1    2  501    0 -0.11202937165E+03 -0.62087730143E+02  0.11086702296E+03  0.24198189603E+03  0.17279547123E+03 0.  0.
         24    2    5    5    0    0 -0.11921014465E+03 -0.10090866909E+03  0.86933879132E+02  0.19557592470E+03  0.79365136516E+02 0.  0.
          5    1    5    5  501    0  0.71807730056E+01  0.38820938946E+02  0.23933143830E+02  0.46405971331E+02  0.47000000000E+01 0. -1.
        -13    1    6    6    0    0 -0.58330137359E+02 -0.38213418631E+02  0.82570643503E+02  0.10807673874E+03  0.00000000000E+00 0.  1.
         14    1    6    6    0    0 -0.60880007293E+02 -0.62695250458E+02  0.43632356289E+01  0.87499185957E+02  0.00000000000E+00 0. -1.
         -5    1    3    3    0  503  0.67316491516E+00 -0.40824269644E+02  0.17790269892E+02  0.44784571515E+02  0.47000000000E+01 0.  1.
         13    1    4    4    0    0  0.63456583717E+02  0.39258155009E+02  0.12759704892E+03  0.14781389530E+03  0.00000000000E+00 0. -1.
        -14    1    4    4    0    0  0.47899623015E+02  0.63653844778E+02  0.29465269490E+02  0.84937553215E+02  0.00000000000E+00 0.  1.
</event>
<event>
12    1  0.8196217E-002  0.1973235E+03  0.7818608E-02  0.1152191E+00
         21   -1    0    0  503  502  0.00000000000E+00  0.00000000000E+00  0.44817798890E+03  0.44817798890E+03  0.00000000000E+00 0. -1.
         21   -1    0    0  501  503 -0.00000000000E+00 -0.00000000000E+00 -0.86545743896E+02  0.86545743896E+02  0.00000000000E+00 0. -1.
          6    2    1    2  501    0  0.84079479522E+02 -0.46330712816E+02  0.18494629716E+03  0.26985680394E+03  0.17146914584E+03 0.  0.
         24    2    3    3    0    0  0.19336506430E+01  0.43973200314E+01  0.25487707828E+02  0.83388570107E+02  0.79252475961E+02 0.  0.
         -6    2    1    2    0  502 -0.84079479522E+02  0.46330712816E+02  0.17668594784E+03  0.26486692885E+03  0.17239684454E+03 0.  0.
        -24    2    5    5    0    0 -0.89986154946E+02  0.72010209630E+02  0.18803025251E+03  0.23579617689E+03  0.83435500850E+02 0.  0.
          5    1    3    3  501    0  0.82145828879E+02 -0.50728032848E+02  0.15945858933E+03  0.18646823384E+03  0.47000000000E+01 0. -1.
        -13    1    4    4    0    0 -0.11465747357E+02  0.13228922464E+02  0.50624416440E+02  0.53565840719E+02  0.00000000000E+00 0.  1.
         14    1    4    4    0    0  0.13399398000E+02 -0.88316024325E+01 -0.25136708612E+02  0.29822729388E+02  0.00000000000E+00 0. -1.
         -5    1    5    5    0  502  0.59066754248E+01 -0.25679496814E+02 -0.11344304670E+02  0.29070751962E+02  0.47000000000E+01 0.  1.
         11    1    6    6    0    0 -0.33410803404E+02  0.77192996559E+02  0.12782783782E+03  0.15301959556E+03  0.00000000000E+00 0. -1.
        -12    1    6    6    0    0 -0.56575351543E+02 -0.51827869284E+01  0.60202414690E+02  0.82776581332E+02  0.00000000000E+00 0.  1.
</event>
<event>
12    1  0.8196217E-002  0.1887712E+03  0.7818608E-02  0.1159742E+00
         21   -1    0    0  503  502  0.00000000000E+00  0.00000000000E+00  0.32260718872E+03  0.32260718872E+03  0.00000000000E+00 0.  1.
         21   -1    0    0  501  503 -0.00000000000E+00 -0.00000000000E+00 -0.28852202120E+03  0.28852202120E+03  0.00000000000E+00 0.  1.
          6    2    1    2  501    0 -0.23232042130E+02 -0.70049947129E+02 -0.22330903187E+03  0.29193281220E+03  0.17294831670E+03 0.  0.
         24    2    3    3    0    0  0.46597387434E+02 -0.30994105609E+02 -0.16848638444E+03  0.19482915284E+03  0.80242046058E+02 0.  0.
         -6    2    1    2    0  502  0.23232042130E+02  0.70049947129E+02  0.25739419939E+03  0.31919639773E+03  0.17374649226E+03 0.  0.
        -24    2    5    5    0    0  0.55728111292E+02  0.21696943444E+02  0.23791150046E+03  0.25758736403E+03  0.78568367131E+02 0.  0.
          5    1    3    3  501    0 -0.69829429564E+02 -0.39055841520E+02 -0.54822647423E+02  0.97103659357E+02  0.47000000000E+01 0. -1.
        -11    1    4    4    0    0  0.78055026374E+00 -0.42782400823E+02 -0.11857450546E+03  0.12605894028E+03  0.00000000000E+00 0.  1.
         12    1    4    4    0    0  0.45816837170E+02  0.11788295214E+02 -0.49911878985E+02  0.68770212564E+02  0.00000000000E+00 0. -1.
         -5    1    5    5    0  502 -0.32496069161E+02  0.48353003685E+02  0.19482698931E+02  0.61609033704E+02  0.47000000000E+01 0.  1.
         13    1    6    6    0    0  0.74559526695E+02  0.19012865592E+02  0.16224090152E+03  0.17956258576E+03  0.00000000000E+00 0. -1.
        -14    1    6    6    0    0 -0.18831415403E+02  0.26840778519E+01  0.75670598938E+02  0.78024778268E+02  0.00000000000E+00 0.  1.
</event>
<event>
12    1  0.8196217E-002  0.3549833E+03  0.7818608E-02  0.1060790E+00
         21   -1    0    0  501  502  0.00000000000E+00  0.00000000000E+00  0.15578602080E+03  0.15578602080E+03  0.00000000000E+00 0. -1.
         21   -1    0    0  502  503 -0.00000000000E+00 -0.00000000000E+00 -0.81992879676E+03  0.81992879676E+03  0.00000000000E+00 0.  1.
         -6    2    1    2    0  503  0.16454060306E+03 -0.26042304601E+03 -0.40026791250E+03  0.53500241169E+03  0.17640693236E+03 0.  0.
        -24    2    3    3    0    0  0.61849823352E+02 -0.44273404881E+02 -0.81431624654E+02  0.13632367881E+03  0.78533437994E+02 0.  0.
          6    2    1    2  501    0 -0.16454060306E+03  0.26042304601E+03 -0.26387486346E+03  0.44071240588E+03  0.17234763759E+03 0.  0.
         24    2    5    5    0    0 -0.63308102814E+02  0.49218572622E+02 -0.49487760621E+02  0.12316041242E+03  0.79303625162E+02 0.  0.
          5    1    5    5  501    0 -0.10123250025E+03  0.21120447339E+03 -0.21438710283E+03  0.31755199345E+03  0.47000000000E+01 0. -1.
        -13    1    6    6    0    0 -0.29647177872E+02 -0.17064043470E+02 -0.31888553380E+02  0.46765548986E+02  0.00000000000E+00 0.  1.
         14    1    6    6    0    0 -0.33660924942E+02  0.66282616092E+02 -0.17599207242E+02  0.76394863436E+02  0.00000000000E+00 0. -1.
         -5    1    3    3    0  503  0.10269077971E+03 -0.21614964113E+03 -0.31883628785E+03  0.39867873287E+03  0.47000000000E+01 0.  1.
         11    1    4    4    0    0 -0.81763059123E-01 -0.39333113325E+01 -0.58932992065E+02  0.59064161528E+02  0.00000000000E+00 0. -1.
        -12    1    4    4    0    0  0.61931586411E+02 -0.40340093549E+02 -0.22498632589E+02  0.77259517286E+02  0.00000000000E+00 0.  1.
</event>
<event>
12    1  0.8196217E-002  0.1762016E+03  0.7818608E-02  0.1172193E+00
         21   -1    0    0  503  502  0.00000000000E+00  0.00000000000E+00  0.58028487799E+02  0.58028487799E+02  0.00000000000E+00 0. -1.
         21   -1    0    0  501  503 -0.00000000000E+00 -0.00000000000E+00 -0.54290702641E+03  0.54290702641E+03  0.00000000000E+00 0. -1.
          6    2    1    2  501    0  0.19349950274E+02 -0.31573164784E+02 -0.29558606799E+03  0.34411935678E+03  0.17226642972E+03 0.  0.
         24    2    3    3    0    0 -0.10867448469E+02  0.45087947495E+02 -0.13253640452E+03  0.16137007475E+03  0.79519670883E+02 0.  0.
         -6    2    1    2    0  502 -0.19349950274E+02  0.31573164784E+02 -0.18929247062E+03  0.25681615743E+03  0.16956300886E+03 0.  0.
        -24    2    5    5    0    0 -0.50245079798E+02  0.21929254158E+02 -0.20250142631E+03  0.22154463136E+03  0.71202077187E+02 0.  0.
          5    1    3    3  501    0  0.30217398742E+02 -0.76661112279E+02 -0.16304966348E+03  0.18274928203E+03  0.47000000000E+01 0. -1.
        -11    1    4    4    0    0 -0.10631449947E+02  0.23540652724E+02  0.12491762982E+01  0.25860210751E+02  0.00000000000E+00 0.  1.
         12    1    4    4    0    0 -0.23599852175E+00  0.21547294771E+02 -0.13378558082E+03  0.13550986400E+03  0.00000000000E+00 0. -1.
         -5    1    5    5    0  502  0.30895129525E+02  0.96439106254E+01  0.13208955693E+02  0.35271526066E+02  0.47000000000E+01 0.  1.
         11    1    6    6    0    0 -0.42128805439E+02  0.41603505167E+02 -0.94877849594E+02  0.11183690908E+03  0.00000000000E+00 0. -1.
        -12    1    6    6    0    0 -0.81162743597E+01 -0.19674251009E+02 -0.10762357672E+03  0.10970772228E+03  0.00000000000E+00 0.  1.
</event>
<event>
12    1  0.8196217E-002  0.1858175E+03  0.7818608E-02  0.1162346E+00
         21   -1    0    0  503  502  0.00000000000E+00  0.00000000000E+00  0.30066547680E+03  0.30066547680E+03  0.00000000000E+00 0. -1.
         21   -1    0    0  501  503 -0.00000000000E+00 -0.00000000000E+00 -0.14687887430E+03  0.14687887430E+03  0.00000000000E+00 0. -1.
          6    2    1    2  501    0  0.30441193280E+02 -0.63457158724E+02 -0.27906816961E+02  0.18765850414E+03  0.17170744451E+03 0.  0.
         24    2    3    3    0    0 -0.44952024335E+02 -0.45171427802E+02 -0.30640725490E+02  0.10988916909E+03  0.84116782177E+02 0.  0.
         -6    2    1    2    0  502 -0.30441193280E+02  0.63457158724E+02  0.18169341946E+03  0.25988584696E+03  0.17197289767E+03 0.  0.
        -24    2    5    5    0    0 -0.72416032082E+02 -0.37640427660E+01  0.86783599599E+02  0.13615007635E+03  0.75810292248E+02 0.  0.
          5    1    3    3  501    0  0.75393217615E+02 -0.18285730922E+02  0.27339085290E+01  0.77769335046E+02  0.47000000000E+01 0. -1.
        -11    1    4    4    0    0 -0.15772281987E+02 -0.65015564985E+02 -0.32851477486E+02  0.74531927000E+02  0.00000000000E+00 0.  1.
         12    1    4    4    0    0 -0.29179742348E+02  0.19844137183E+02  0.22107519957E+01  0.35357242092E+02  0.00000000000E+00 0. -1.
         -5    1    5    5    0  502  0.41974838802E+02  0.67221201490E+02  0.94909819857E+02  0.12373577061E+03  0.47000000000E+01 0.  1.
         13    1    6    6    0    0 -0.66131138672E+02  0.10883371529E+02  0.96494479132E+02  0.11748599823E+03  0.00000000000E+00 0. -1.
        -14    1    6    6    0    0 -0.62848934102E+01 -0.14647414295E+02 -0.97108795332E+01  0.18664078118E+02  0.00000000000E+00 0.  1.
</event>
<event>
12    1  0.8196217E-002  0.2161240E+03  0.7818608E-02  0.1137063E+00
         21   -1    0    0  501  502  0.00000000000E+00  0.00000000000E+00  0.13571303736E+03  0.13571303736E+03  0.00000000000E+00 0.  1.
         21   -1    0    0  502  503 -0.00000000000E+00 -0.00000000000E+00 -0.41676641702E+03  0.41676641702E+03  0.00000000000E+00 0. -1.
         -6    2    1    2    0  503 -0.55419859307E+01  0.13062843032E+03 -0.25713537469E+03  0.33503595606E+03  0.17039950271E+03 0.  0.
        -24    2    3    3    0    0 -0.72245920222E+02  0.10910364942E+03 -0.18817761324E+03  0.23659818939E+03  0.58692502036E+02 0.  0.
          6    2    1    2  501    0  0.55419859307E+01 -0.13062843032E+03 -0.23918004978E+02  0.21744349831E+03  0.17209039363E+03 0.  0.
         24    2    5    5    0    0 -0.26113937729E+02 -0.10669440086E+02 -0.35441899453E+02  0.92755299256E+02  0.80942217709E+02 0.  0.
          5    1    5    5  501    0  0.31655923659E+02 -0.11995899023E+03  0.11523894475E+02  0.12468819906E+03  0.47000000000E+01 0. -1.
        -13    1    6    6    0    0 -0.27957246337E+02 -0.11931572270E+02  0.20567483115E+02  0.36701381463E+02  0.00000000000E+00 0.  1.
         14    1    6    6    0    0  0.18433086083E+01  0.12621321842E+01 -0.56009382568E+02  0.56053917793E+02  0.00000000000E+00 0. -1.
         -5    1    3    3    0  503  0.66703934291E+02  0.21524780902E+02 -0.68957761448E+02  0.98437766669E+02  0.47000000000E+01 0.  1.
         13    1    4    4    0    0  0.10251613908E+02  0.16135932406E+02 -0.25734890926E+02  0.32058517017E+02  0.00000000000E+00 0. -1.
        -14    1    4    4    0    0 -0.82497534130E+02  0.92967717012E+02 -0.16244272231E+03  0.20453967238E+03  0.00000000000E+00 0.  1.
</event>
<event>
12    1  0.8196217E-002  0.1930522E+03  0.7818608E-02  0.1156008E+00
         21   -1    0    0  503  502  0.00000000000E+00  0.00000000000E+00  0.55698785639E+03  0.55698785639E+03  0.00000000000E+00 0.  1.
         21   -1    0    0  501  503 -0.00000000000E+00 -0.00000000000E+00 -0.74781009975E+02  0.74781009975E+02  0.00000000000E+00 0. -1.
          6    2    1    2  501    0  0.79263661311E+02  0.30222362608E+02  0.13523644422E+03  0.23470766621E+03  0.17205427495E+03 0.  0.
         24    2    3    3    0    0  0.11460817433E+03  0.27118426949E+02  0.63252268669E+02  0.15431686732E+03  0.77086985568E+02 0.  0.
         -6    2    1    2    0  502 -0.79263661311E+02 -0.30222362608E+02  0.34697040220E+03  0.39706120015E+03  0.17341573590E+03 0.  0.
        -24    2    5    5    0    0  0.11662940018E+02  0.13722430760E+02  0.84926457751E+02  0.11619128273E+03  0.77224229875E+02 0.  0.
          5    1    3    3  501    0 -0.35344513020E+02  0.31039356597E+01  0.71984175549E+02  0.80390798893E+02  0.47000000000E+01 0. -1.
        -13    1    4    4    0    0  0.68927443259E+02  0.21991596128E+01  0.74032595379E+02  0.10117635058E+03  0.00000000000E+00 0.  1.
         14    1    4    4    0    0  0.45680731073E+02  0.24919267336E+02 -0.10780326710E+02  0.53140516745E+02  0.00000000000E+00 0. -1.
         -5    1    5    5    0  502 -0.90926601330E+02 -0.43944793368E+02  0.26204394445E+03  0.28086991742E+03  0.47000000000E+01 0.  1.
         13    1    6    6    0    0 -0.27014517019E+02  0.26543306464E+02  0.33368191279E+02  0.50475414184E+02  0.00000000000E+00 0. -1.
        -14    1    6    6    0    0  0.38677457037E+02 -0.12820875705E+02  0.51558266472E+02  0.65715868543E+02  0.00000000000E+00 0.  1.
</event>
<event>
12    1  0.8196217E-002  0.2457464E+03  0.7818608E-02  0.1116126E+00
         21   -1    0    0  501  502  0.00000000000E+00  0.00000000000E+00  0.46738767513E+03  0.46738767513E+03  0.00000000000E+00 0. -1.
         21   -1    0    0  502  503 -0.00000000000E+00 -0.00000000000E+00 -0.12947693508E+03  0.12947693508E+03  0.00000000000E+00 0.  1.
         -6    2    1    2    0  503 -0.17057328539E+03  0.35137605989E+02  0.14842241042E+03  0.28654686244E+03  0.17248186982E+03 0.  0.
        -24    2    3    3    0    0 -0.56081283371E+02 -0.13646847129E+02  0.15941995840E+02  0.10471866980E+03  0.85909870163E+02 0.  0.
          6    2    1    2  501    0  0.17057328539E+03 -0.35137605989E+02  0.18948832962E+03  0.31031774777E+03  0.17338218040E+03 0.  0.
         24    2    5    5    0    0  0.11405825645E+03 -0.35983360494E+02  0.37861790665E+02  0.14843087026E+03  0.79335489897E+02 0.  0.
          5    1    5    5  501    0  0.56515028940E+02  0.84575450534E+00  0.15162653895E+03  0.16188687752E+03  0.47000000000E+01 0. -1.
        -11    1    6    6    0    0  0.28204173425E+01 -0.24106189925E+02 -0.10638382482E+02  0.26499779783E+02  0.00000000000E+00 0.  1.
         12    1    6    6    0    0  0.11123783910E+03 -0.11877170569E+02  0.48500173147E+02  0.12193109047E+03  0.00000000000E+00 0. -1.
         -5    1    3    3    0  503 -0.11449200201E+03  0.48784453118E+02  0.13248041458E+03  0.18182819264E+03  0.47000000000E+01 0.  1.
         13    1    4    4    0    0 -0.45859930265E+02  0.16144915736E+01  0.48855412372E+02  0.67026793933E+02  0.00000000000E+00 0. -1.
        -14    1    4    4    0    0 -0.10221353106E+02 -0.15261338703E+02 -0.32913416532E+02  0.37691875863E+02  0.00000000000E+00 0.  1.
</event>
<event>
12    1  0.8196217E-002  0.2516593E+03  0.7818608E-02  0.1112453E+00
         21   -1    0    0  501  502  0.00000000000E+00  0.00000000000E+00  0.82959615237E+03  0.82959615237E+03  0.00000000000E+00 0.  1.
         21   -1    0    0  502  503 -0.00000000000E+00 -0.00000000000E+00 -0.80105924768E+02  0.80105924768E+02  0.00000000000E+00 0.  1.
         -6    2    1    2    0  503 -0.13996466258E+03  0.11663565238E+03  0.47896411958E+03  0.54105361092E+03  0.17360414704E+03 0.  0.
        -24    2    3    3    0    0 -0.49118639572E+02  0.12083641624E+03  0.35814094666E+03  0.38975597238E+03  0.81429110827E+02 0.  0.
          6    2    1    2  501    0  0.13996466258E+03 -0.11663565238E+03  0.27052610803E+03  0.36864846622E+03  0.17182355584E+03 0.  0.
         24    2    5    5    0    0  0.23356688097E+02 -0.36712515252E+02  0.44394412369E+02  0.10192246197E+03  0.80771162853E+02 0.  0.
          5    1    5    5  501    0  0.11660797449E+03 -0.79923137131E+02  0.22613169566E+03  0.26672600425E+03  0.47000000000E+01 0. -1.
        -11    1    6    6    0    0  0.33590926867E+01 -0.22103800811E+02  0.65608500490E+02  0.69313323759E+02  0.00000000000E+00 0.  1.
         12    1    6    6    0    0  0.19997595411E+02 -0.14608714440E+02 -0.21214088121E+02  0.32609138207E+02  0.00000000000E+00 0. -1.
         -5    1    3    3    0  503 -0.90846023012E+02 -0.42007638569E+01  0.12082317292E+03  0.15129763854E+03  0.47000000000E+01 0.  1.
         11    1    4    4    0    0  0.19904555708E+02  0.54546456520E+02  0.13652601364E+03  0.14836057312E+03  0.00000000000E+00 0. -1.
        -12    1    4    4    0    0 -0.69023195280E+02  0.66289959719E+02  0.22161493302E+03  0.24139539926E+03  0.00000000000E+00 0.  1.
</event>
<event>
12    1  0.8196217E-002  0.2640336E+03  0.7818608E-02  0.1106115E+00
         21   -1    0    0  501  502  0.00000000000E+00  0.00000000000E+00  0.85726145640E+03  0.85726145640E+03  0.00000000000E+00 0. -1.
         21   -1    0    0  502  503 -0.00000000000E+00 -0.00000000000E+00 -0.17618493229E+03  0.17618493229E+03  0.00000000000E+00 0. -1.
         -6    2    1    2    0  503 -0.39480274273E+01 -0.18850941834E+03 -0.41458232574E+02  0.26726860938E+03  0.18483056238E+03 0.  0.
        -24    2    3    3    0    0 -0.24362893559E+02 -0.12961532141E+03 -0.94396792910E+02  0.18535485850E+03  0.89732864283E+02 0.  0.
          6    2    1    2  501    0  0.39480274273E+01  0.18850941834E+03  0.72253475669E+03  0.76617777931E+03  0.17152412997E+03 0.  0.
         24    2    5    5    0    0 -0.59359431648E+02  0.99769101396E+02  0.40505181659E+03  0.43046929642E+03  0.88087600294E+02 0.  0.
          5    1    5    5  501    0  0.63307459075E+02  0.88740316944E+02  0.31748294010E+03  0.33570848289E+03  0.47000000000E+01 0. -1.
        -11    1    6    6    0    0 -0.11257140247E+02  0.59526983338E+02  0.31473773619E+03  0.32051525320E+03  0.00000000000E+00 0.  1.
         12    1    6    6    0    0 -0.48102291401E+02  0.40242118059E+02  0.90314080401E+02  0.10995404323E+03  0.00000000000E+00 0. -1.
         -5    1    3    3    0  503  0.20414866132E+02 -0.58894096929E+02  0.52938560336E+02  0.81913750877E+02  0.47000000000E+01 0.  1.
         11    1    4    4    0    0 -0.53231823295E+02 -0.92817862606E+02 -0.87205796064E+02  0.13803489956E+03  0.00000000000E+00 0. -1.
        -12    1    4    4    0    0  0.28868929736E+02 -0.36797458805E+02 -0.71909968463E+01  0.47319958942E+02  0.00000000000E+00 0.  1.
</event>
<event>
12    1  0.8196217E-002  0.2305157E+03  0.7818608E-02  0.1126505E+00
         21   -1    0    0  503  502  0.00000000000E+00  0.00000000000E+00  0.35289338509E+03  0.35289338509E+03  0.00000000000E+00 0. -1.
         21   -1    0    0  501  503 -0.00000000000E+00 -0.00000000000E+00 -0.16178619797E+03  0.16178619797E+03  0.00000000000E+00 0. -1.
          6    2    1    2  501    0  0.89309364905E+02  0.12505157139E+03  0.25066547932E+02  0.23058986969E+03  0.17008614880E+03 0.  0.
         24    2    3    3    0    0  0.19797719268E+02  0.33407257599E+02  0.64321177842E+02  0.10896106924E+03  0.78913282423E+02 0.  0.
         -6    2    1    2    0  502 -0.89309364905E+02 -0.12505157139E+03  0.16604063918E+03  0.28408971337E+03  0.17182378536E+03 0.  0.
        -24    2    5    5    0    0 -0.13391829587E+02 -0.11121869101E+03  0.72094706942E+02  0.16242316524E+03  0.92923083837E+02 0.  0.
          5    1    3    3  501    0  0.69511645637E+02  0.91644313791E+02 -0.39254629910E+02  0.12162880045E+03  0.47000000000E+01 0. -1.
        -13    1    4    4    0    0 -0.25074197353E+02 -0.67392268055E+01  0.29926213406E+02  0.39619575965E+02  0.00000000000E+00 0.  1.
         14    1    4    4    0    0  0.44871916621E+02  0.40146484404E+02  0.34394964436E+02  0.69341493276E+02  0.00000000000E+00 0. -1.
         -5    1    5    5    0  502 -0.75917535319E+02 -0.13832880383E+02  0.93945932241E+02  0.12166654813E+03  0.47000000000E+01 0.  1.
         11    1    6    6    0    0 -0.31465116580E+02 -0.11696131870E+03  0.76097856722E+02  0.14304155840E+03  0.00000000000E+00 0. -1.
        -12    1    6    6    0    0  0.18073286993E+02  0.57426276910E+01 -0.40031497800E+01  0.19381606840E+02  0.00000000000E+00 0.  1.
</event>
<event>
12    1  0.8196217E-002  0.2705176E+03  0.7818608E-02  0.1101173E+00
         21   -1    0    0  501  502  0.00000000000E+00  0.00000000000E+00  0.22547639504E+03  0.22547639504E+03  0.00000000000E+00 0.  1.
         21   -1    0    0  502  503 -0.00000000000E+00 -0.00000000000E+00 -0.53540906926E+03  0.53540906926E+03  0.00000000000E+00 0. -1.
         -6    2    1    2    0  503  0.16773083309E+03  0.12349914667E+03  0.84444230316E+02  0.28339128424E+03  0.17260973423E+03 0.  0.
        -24    2    3    3    0    0  0.95483491502E+01  0.35668963777E+02  0.50355606494E+01  0.85745980551E+02  0.77224156591E+02 0.  0.
          6    2    1    2  501    0 -0.16773083309E+03 -0.12349914667E+03 -0.39437690453E+03  0.47749418006E+03  0.17053409501E+03 0.  0.
         24    2    5    5    0    0 -0.84624013595E+02 -0.30471769535E+02 -0.93407371917E+02  0.15166357083E+03  0.78658433584E+02 0.  0.
          5    1    5    5  501    0 -0.83106819495E+02 -0.93027377136E+02 -0.30096953262E+03  0.32583060922E+03  0.47000000000E+01 0. -1.
        -11    1    6    6    0    0 -0.80031559826E+02 -0.12521306060E+01 -0.92150240895E+02  0.12205853226E+03  0.00000000000E+00 0.  1.
         12    1    6    6    0    0 -0.45924537686E+01 -0.29219638929E+02 -0.12571310216E+01  0.29605038578E+02  0.00000000000E+00 0. -1.
         -5    1    3    3    0  503  0.15818248394E+03  0.87830182894E+02  0.79408669667E+02  0.19764530369E+03  0.47000000000E+01 0.  1.
         11    1    4    4    0    0  0.17426070153E+02  0.34919153103E+02 -0.30380288975E+02  0.49456820890E+02  0.00000000000E+00 0. -1.
        -12    1    4    4    0    0 -0.78777210026E+01  0.74981067392E+00  0.35415849624E+02  0.36289159660E+02  0.00000000000E+00 0.  1.
</event>
<event>
12    1  0.8196217E-002  0.1797901E+03  0.7818608E-02  0.1168257E+00
         21   -1    0    0  501  502  0.00000000000E+00  0.00000000000E+00  0.54624886781E+02  0.54624886781E+02  0.00000000000E+00 0.  1.
         21   -1    0    0  502  503 -0.00000000000E+00 -0.00000000000E+00 -0.62671118156E+03  0.62671118156E+03  0.00000000000E+00 0.  1.
         -6    2    1    2    0  503  0.18419880845E+02  0.47906168169E+02 -0.37107715374E+03  0.41233812535E+03  0.17230839396E+03 0.  0.
        -24    2    3    3    0    0 -0.20720131086E+01  0.29923727029E+02 -0.57123002248E+02  0.97167401538E+02  0.72654964443E+02 0.  0.
          6    2    1    2  501    0 -0.18419880845E+02 -0.47906168169E+02 -0.20100914104E+03  0.26899794299E+03  0.17123354109E+03 0.  0.
         24    2    5    5    0    0 -0.32504339842E+02 -0.51557821169E+02 -0.42134486777E+02  0.10938919536E+03  0.80473225692E+02 0.  0.
          5    1    5    5  501    0  0.14084458996E+02  0.36516529996E+01 -0.15887465426E+03  0.15960874764E+03  0.47000000000E+01 0. -1.
        -11    1    6    6    0    0  0.72814602192E+00  0.12706111619E+02  0.13177224374E+02  0.18319790154E+02  0.00000000000E+00 0.  1.
         12    1    6    6    0    0 -0.33232485864E+02 -0.64263932788E+02 -0.55311711151E+02  0.91069405205E+02  0.00000000000E+00 0. -1.
         -5    1    3    3    0  503  0.20491893954E+02  0.17982441140E+02 -0.31395415149E+03  0.31517072381E+03  0.47000000000E+01 0.  1.
         11    1    4    4    0    0  0.28576063262E+02  0.15135165168E+02 -0.54069236495E+02  0.63001166270E+02  0.00000000000E+00 0. -1.
        -12    1    4    4    0    0 -0.30648076370E+02  0.14788561861E+02 -0.30537657529E+01  0.34166235268E+02  0.00000000000E+00 0.  1.
</event>
<event>
12    1  0.8196217E-002  0.1884389E+03  0.7818608E-02  0.1160310E+00
         21   -1    0    0  503  502  0.00000000000E+00  0.00000000000E+00  0.44268287215E+03  0.44268287215E+03  0.00000000000E+00 0.  1.
         21   -1    0    0  501  503 -0.00000000000E+00 -0.00000000000E+00 -0.10737240372E+03  0.10737240372E+03  0.00000000000E+00 0.  1.
          6    2    1    2  501    0 -0.30196098306E+02 -0.71524995317E+02  0.26684992476E+02  0.18844929502E+03  0.16962729339E+03 0.  0.
         24    2    3    3    0    0  0.13486071950E+02 -0.38358470245E+02 -0.43878186118E+02  0.98954029465E+02  0.78824858732E+02 0.  0.
         -6    2    1    2    0  502  0.30196098306E+02  0.71524995317E+02  0.30862547595E+03  0.36160598085E+03  0.17170198506E+03 0.  0.
        -24    2    5    5    0    0  0.23755294835E+02  0.11357538418E+03  0.26648936456E+03  0.30154550270E+03  0.80308323668E+02 0.  0.
          5    1    3    3  501    0 -0.43682170256E+02 -0.33166525072E+02  0.70563178594E+02  0.89495265556E+02  0.47000000000E+01 0. -1.
        -11    1    4    4    0    0 -0.17920826625E+02 -0.46052735156E+02 -0.70046853919E+01  0.49910680818E+02  0.00000000000E+00 0.  1.
         12    1    4    4    0    0  0.31406898575E+02  0.76942649118E+01 -0.36873500726E+02  0.49043348646E+02  0.00000000000E+00 0. -1.
         -5    1    5    5    0  502  0.64408034706E+01 -0.42050388863E+02  0.42136111390E+02  0.60060478153E+02  0.47000000000E+01 0.  1.
         11    1    6    6    0    0 -0.18750652345E+02  0.24678162286E+02  0.22177308662E+02  0.38110781633E+02  0.00000000000E+00 0. -1.
        -12    1    6    6    0    0  0.42505947181E+02  0.88897221894E+02  0.24431205590E+03  0.26343472107E+03  0.00000000000E+00 0.  1.
</event>
<event>
12    1  0.8196217E-002  0.1992568E+03  0.7818608E-02  0.1150905E+00
         21   -1    0    0  503  502  0.00000000000E+00  0.00000000000E+00  0.39209232853E+02  0.39209232853E+02  0.00000000000E+00 0. -1.
         21   -1    0    0  501  503 -0.00000000000E+00 -0.00000000000E+00 -0.12429127269E+04  0.12429127269E+04  0.00000000000E+00 0.  1.
          6    2    1    2  501    0 -0.80068757000E+02  0.52374196104E+02 -0.88841195998E+03  0.91048288708E+03  0.17478333662E+03 0.  0.
         24    2    3    3    0    0 -0.94013218416E+02  0.92257396292E+02 -0.62064066523E+03  0.63935805613E+03  0.78955533054E+02 0.  0.
         -6    2    1    2    0  502  0.80068757000E+02 -0.52374196104E+02 -0.31529153402E+03  0.37163907263E+03  0.17190923947E+03 0.  0.
        -24    2    5    5    0    0 -0.18514878022E+02 -0.53326188840E+01 -0.99810900140E+02  0.13000787295E+03  0.81046861194E+02 0.  0.
          5    1    3    3  501    0  0.13944461415E+02 -0.39883200188E+02 -0.26777129476E+03  0.27112483095E+03  0.47000000000E+01 0. -1.
        -13    1    4    4    0    0 -0.71575060153E+02  0.19150043872E+02 -0.36852320247E+03  0.37589767780E+03  0.00000000000E+00 0.  1.
         14    1    4    4    0    0 -0.22438158263E+02  0.73107352420E+02 -0.25211746276E+03  0.26346037833E+03  0.00000000000E+00 0. -1.
         -5    1    5    5    0  502  0.98583635022E+02 -0.47041577220E+02 -0.21548063388E+03  0.24163119968E+03  0.47000000000E+01 0.  1.
         13    1    6    6    0    0 -0.17560454388E+02 -0.17885123413E+01 -0.11399657932E+03  0.11535505378E+03  0.00000000000E+00 0. -1.
        -14    1    6    6    0    0 -0.95442363427E+00 -0.35441065426E+01  0.14185679185E+02  0.14652819169E+02  0.00000000000E+00 0.  1.
</event>
<event>
12    1  0.8196217E-002  0.1854147E+03  0.7818608E-02  0.1163320E+00
         21   -1    0    0  503  502  0.00000000000E+00  0.00000000000E+00  0.42541041214E+03  0.42541041214E+03  0.00000000000E+00 0. -1.
         21   -1    0    0  501  503 -0.00000000000E+00 -0.00000000000E+00 -0.81134137312E+02  0.81134137312E+02  0.00000000000E+00 0. -1.
          6    2    1    2  501    0  0.27697703033E+02  0.57572527853E+02  0.20570375211E+03  0.27506894258E+03  0.17107638886E+03 0.  0.
         24    2    3    3    0    0  0.38688155665E+02 -0.22807989076E+02  0.14953553005E+03  0.17628242164E+03  0.81839108480E+02 0.  0.
         -6    2    1    2    0  502 -0.27697703033E+02 -0.57572527853E+02  0.13857252271E+03  0.23147560687E+03  0.17405991442E+03 0.  0.
        -24    2    5    5    0    0 -0.41926093161E+02 -0.65919059862E+02  0.22309139289E+02  0.11395379609E+03  0.79904006203E+02 0.  0.
          5    1    3    3  501    0 -0.10990452632E+02  0.80380516929E+02  0.56168222066E+02  0.98786520947E+02  0.47000000000E+01 0. -1.
        -11    1    4    4    0    0 -0.59548542787E-01 -0.47338093843E+02  0.70884912780E+02  0.85238310251E+02  0.00000000000E+00 0.  1.
         12    1    4    4    0    0  0.38747704208E+02  0.24530104767E+02  0.78650617268E+02  0.91044111385E+02  0.00000000000E+00 0. -1.
         -5    1    5    5    0  502  0.14228390129E+02  0.83465320084E+01  0.11626338342E+03  0.11752181077E+03  0.47000000000E+01 0.  1.
         13    1    6    6    0    0 -0.62895825259E+02 -0.62008752914E+02  0.26503963583E+02  0.92214046428E+02  0.00000000000E+00 0. -1.
        -14    1    6    6    0    0  0.20969732097E+02 -0.39103069471E+01 -0.41948242936E+01  0.21739749665E+02  0.00000000000E+00 0.  1.
</event>
<event>
12    1  0.8196217E-002  0.1853094E+03  0.7818608E-02  0.1162903E+00
         21   -1    0    0  501  502  0.00000000000E+00  0.00000000000E+00  0.58649586505E+03  0.58649586505E+03  0.00000000000E+00 0. -1.
         21   -1    0    0  502  503 -0.00000000000E+00 -0.00000000000E+00 -0.58361197526E+02  0.58361197526E+02  0.00000000000E+00 0. -1.
         -6    2    1    2    0  503  0.45718938848E+02 -0.51904192257E+02  0.26561706035E+03  0.32352382363E+03  0.17126288321E+03 0.  0.
        -24    2    3    3    0    0 -0.28191819484E+02 -0.59400206240E+02  0.10923878473E+03  0.15033246845E+03  0.79646567999E+02 0.  0.
          6    2    1    2  501    0 -0.45718938848E+02  0.51904192257E+02  0.26251760717E+03  0.32133323895E+03  0.17191651995E+03 0.  0.
         24    2    5    5    0    0 -0.22683025311E+01 -0.22237768064E+02  0.47388775510E+02  0.89627623371E+02  0.72716925828E+02 0.  0.
          5    1    5    5  501    0 -0.43450636317E+02  0.74141960321E+02  0.21512883166E+03  0.23170561558E+03  0.47000000000E+01 0. -1.
        -13    1    6    6    0    0  0.15783752616E+02  0.18479639121E+02 -0.39342257891E+00  0.24305939397E+02  0.00000000000E+00 0.  1.
         14    1    6    6    0    0 -0.18052055147E+02 -0.40717407185E+02  0.47782198089E+02  0.65321683973E+02  0.00000000000E+00 0. -1.
         -5    1    3    3    0  503  0.73910758332E+02  0.74960139832E+01  0.15637827562E+03  0.17319135518E+03  0.47000000000E+01 0.  1.
         11    1    4    4    0    0  0.18835211124E+02 -0.27535672669E+02  0.79493430459E+02  0.86210115031E+02  0.00000000000E+00 0. -1.
        -12    1    4    4    0    0 -0.47027030608E+02 -0.31864533572E+02  0.29745354273E+02  0.64122353422E+02  0.00000000000E+00 0.  1.
</event>
<event>
12    1  0.8196217E-002  0.1778043E+03  0.7818608E-02  0.1170480E+00
         21   -1    0    0  503  502  0.00000000000E+00  0.00000000000E+00  0.36879359035E+02  0.36879359035E+02  0.00000000000E+00 0.  1.
         21   -1    0    0  501  503 -0.00000000000E+00 -0.00000000000E+00 -0.91771645490E+03  0.91771645490E+03  0.00000000000E+00 0.  1.
          6    2    1    2  501    0 -0.13617955762E+02 -0.44269498337E+02 -0.57057010836E+03  0.59699269955E+03  0.16942490242E+03 0.  0.
         24    2    3    3    0    0  0.32872882097E+02 -0.71799566869E+02 -0.29103603876E+03  0.31224598974E+03  0.80992456898E+02 0.  0.
         -6    2    1    2    0  502  0.13617955762E+02  0.44269498337E+02 -0.31026698751E+03  0.35760311439E+03  0.17166579939E+03 0.  0.
        -24    2    5    5    0    0  0.72710137761E+01  0.93726394726E+02 -0.18930635546E+03  0.22668393023E+03  0.81921934187E+02 0.  0.
          5    1    3    3  501    0 -0.46490837859E+02  0.27530068532E+02 -0.27953406960E+03  0.28474670980E+03  0.47000000000E+01 0. -1.
        -11    1    4    4    0    0 -0.26867231998E+02 -0.28475450097E+02 -0.92828047634E+02  0.10074594702E+03  0.00000000000E+00 0.  1.
         12    1    4    4    0    0  0.59740114095E+02 -0.43324116773E+02 -0.19820799113E+03  0.21150004272E+03  0.00000000000E+00 0. -1.
         -5    1    5    5    0  502  0.63469419859E+01 -0.49456896388E+02 -0.12096063205E+03  0.13091918415E+03  0.47000000000E+01 0.  1.
         11    1    6    6    0    0 -0.87476340512E+01 -0.88819438126E+01 -0.57732344425E+02  0.59062963185E+02  0.00000000000E+00 0. -1.
        -12    1    6    6    0    0  0.16018647827E+02  0.10260833854E+03 -0.13157401103E+03  0.16762096705E+03  0.00000000000E+00 0.  1.
</event>
<event>
12    1  0.8196217E-002  0.2605350E+03  0.7818608E-02  0.1106949E+00
         21   -1    0    0  503  502  0.00000000000E+00  0.00000000000E+00  0.14916442211E+04  0.14916442211E+04  0.00000000000E+00 0. -1.
         21   -1    0    0  501  503 -0.00000000000E+00 -0.00000000000E+00 -0.77585933003E+02  0.77585933003E+02  0.00000000000E+00 0.  1.
          6    2    1    2  501    0 -0.14404552920E+03 -0.13133598803E+03  0.20201838537E+03  0.32968152646E+03  0.17285897325E+03 0.  0.
         24    2    3    3    0    0 -0.82380386504E+02 -0.11695027663E+03  0.59645338816E+02  0.17379145975E+03  0.78625757585E+02 0.  0.
         -6    2    1    2    0  502  0.14404552920E+03  0.13133598803E+03  0.12120399027E+04  0.12395486276E+04  0.17158618313E+03 0.  0.
        -24    2    5    5    0    0  0.99594295124E+02  0.10399672883E+03  0.51010596289E+03  0.53566178076E+03  0.77402240079E+02 0.  0.
          5    1    3    3  501    0 -0.61665142693E+02 -0.14385711403E+02  0.14237304655E+03  0.15589006672E+03  0.47000000000E+01 0. -1.
        -11    1    4    4    0    0 -0.18883160166E+02 -0.87837279412E+02  0.51255150111E+02  0.10343622095E+03  0.00000000000E+00 0.  1.
         12    1    4    4    0    0 -0.63497226338E+02 -0.29112997214E+02  0.83901887051E+01  0.70355238795E+02  0.00000000000E+00 0. -1.
         -5    1    5    5    0  502  0.44451234073E+02  0.27339259203E+02  0.70193393981E+03  0.70388684685E+03  0.47000000000E+01 0.  1.
         11    1    6    6    0    0  0.44117849248E+02  0.59149464404E+00  0.10477543445E+03  0.11368652581E+03  0.00000000000E+00 0. -1.
        -12    1    6    6    0    0  0.55476445876E+02  0.10340523418E+03  0.40533052844E+03  0.42197525495E+03  0.00000000000E+00 0.  1.
</event>
<event>
12    1  0.8196217E-002  0.2612074E+03  0.7818608E-02  0.1106515E+00
         21   -1    0    0  503  502  0.00000000000E+00  0.00000000000E+00  0.31707731712E+03  0.31707731712E+03  0.00000000000E+00 0.  1.
         21   -1    0    0  501  503 -0.00000000000E+00 -0.00000000000E+00 -0.21963002593E+03  0.21963002593E+03  0.00000000000E+00 0.  1.
          6    2    1    2  501    0  0.10660435022E+03 -0.16517300104E+03  0.84122320492E+01  0.26134284224E+03  0.17199624353E+03 0.  0.
         24    2    3    3    0    0 -0.13576642802E+02 -0.77940537723E+02 -0.54912157651E+01  0.11211694101E+03  0.79252775096E+02 0.  0.
         -6    2    1    2    0  502 -0.10660435022E+03  0.16517300104E+03  0.89035059145E+02  0.27536450080E+03  0.17103145556E+03 0.  0.
        -24    2    5    5    0    0 -0.10733819821E+03  0.79256717395E+02  0.56011438135E+01  0.15550852659E+03  0.79676928793E+02 0.  0.
          5    1    3    3  501    0  0.12018099302E+03 -0.87232463312E+02  0.13903447814E+02  0.14922590123E+03  0.47000000000E+01 0. -1.
        -11    1    4    4    0    0  0.24711219931E+02 -0.53219439584E+02 -0.23371341724E+02  0.63159898307E+02  0.00000000000E+00 0.  1.
         12    1    4    4    0    0 -0.38287862733E+02 -0.24721098139E+02  0.17880125959E+02  0.48957042703E+02  0.00000000000E+00 0. -1.
         -5    1    5    5    0  502  0.73384799850E+00  0.85916283640E+02  0.83433915332E+02  0.11985597422E+03  0.47000000000E+01 0.  1.
         13    1    6    6    0    0 -0.62519230812E+01 -0.15560333386E+02 -0.52721585035E+00  0.16777618241E+02  0.00000000000E+00 0. -1.
        -14    1    6    6    0    0 -0.10108627513E+03  0.94817050781E+02  0.61283596638E+01  0.13873090835E+03  0.00000000000E+00 0.  1.
</event>
<event>
12    1  0.8196217E-002  0.1994667E+03  0.7818608E-02  0.1150900E+00
         21   -1    0    0  503  502  0.00000000000E+00  0.00000000000E+00  0.61418694122E+02  0.61418694122E+02  0.00000000000E+00 0.  1.
         21   -1    0    0  501  503 -0.00000000000E+00 -0.00000000000E+00 -0.13360674448E+04  0.13360674448E+04  0.00000000000E+00 0. -1.
          6    2    1    2  501    0  0.94313923678E+02 -0.27220830480E+02 -0.11401769489E+04  0.11569251020E+04  0.16981203437E+03 0.  0.
         24    2    3    3    0    0  0.12922491415E+03 -0.42916587191E+02 -0.91717272894E+03  0.93061092623E+03  0.79309327377E+02 0.  0.
         -6    2    1    2    0  502 -0.94313923678E+02  0.27220830480E+02 -0.13447180173E+03  0.24056103688E+03  0.17364002186E+03 0.  0.
        -24    2    5    5    0    0 -0.11988497228E+03 -0.19137704329E+02 -0.97702739719E+02  0.17593096495E+03  0.81653051222E+02 0.  0.
          5    1    3    3  501    0 -0.34910990473E+02  0.15695756710E+02 -0.22300421996E+03  0.22631417577E+03  0.47000000000E+01 0. -1.
        -13    1    4    4    0    0  0.16500868010E+01 -0.13110443411E+02 -0.20311740307E+02  0.24231659192E+02  0.00000000000E+00 0.  1.
         14    1    4    4    0    0  0.12757482735E+03 -0.29806143780E+02 -0.89686098863E+03  0.90637926704E+03  0.00000000000E+00 0. -1.
         -5    1    5    5    0  502  0.25571048602E+02  0.46358534809E+02 -0.36769062014E+02  0.64630071929E+02  0.47000000000E+01 0.  1.
         13    1    6    6    0    0 -0.84664045009E+01 -0.32827772534E+02 -0.19363409584E+02  0.39042083518E+02  0.00000000000E+00 0. -1.
        -14    1    6    6    0    0 -0.11141856778E+03  0.13690068205E+02 -0.78339330134E+02  0.13688888143E+03  0.00000000000E+00 0.  1.
</event>
<event>
12    1  0.8196217E-002  0.1999473E+03  0.7818608E-02  0.1149881E+00
         21   -1    0    0  501  502  0.00000000000E+00  0.00000000000E+00  0.55895416180E+03  0.55895416180E+03  0.00000000000E+00 0.  1.
         21   -1    0    0  502  503 -0.00000000000E+00 -0.00000000000E+00 -0.71894799872E+02  0.71894799872E+02  0.00000000000E+00 0. -1.
         -6    2    1    2    0  503 -0.90080148534E+02  0.45845157856E+02  0.27047845624E+03  0.33608426963E+03  0.17198206112E+03 0.  0.
        -24    2    3    3    0    0 -0.59287780635E+02  0.67994333975E+02  0.87060652277E+02  0.14872649228E+03  0.80010886423E+02 0.  0.
          6    2    1    2  501    0  0.90080148534E+02 -0.45845157856E+02  0.21658090570E+03  0.29476469205E+03  0.17251876219E+03 0.  0.
         24    2    5    5    0    0  0.42529939351E+02 -0.44081083312E+02  0.34590475107E+02  0.10659790120E+03  0.80091659520E+02 0.  0.
          5    1    5    5  501    0  0.47550209183E+02 -0.17640745442E+01  0.18199043059E+03  0.18816679085E+03  0.47000000000E+01 0. -1.
        -11    1    6    6    0    0  0.21329539798E+02 -0.43384757277E+02  0.57668895970E+02  0.75252162722E+02  0.00000000000E+00 0.  1.
         12    1    6    6    0    0  0.21200399552E+02 -0.69632603517E+00 -0.23078420863E+02  0.31345738477E+02  0.00000000000E+00 0. -1.
         -5    1    3    3    0  503 -0.30792367898E+02 -0.22149176119E+02  0.18341780396E+03  0.18735777735E+03  0.47000000000E+01 0.  1.
         11    1    4    4    0    0 -0.48646387922E+02  0.12605796642E+02  0.69186570807E+01  0.50727162178E+02  0.00000000000E+00 0. -1.
        -12    1    4    4    0    0 -0.10641392714E+02  0.55388537333E+02  0.80141995197E+02  0.97999330104E+02  0.00000000000E+00 0.  1.
</event>
<event>
12    1  0.8196217E-002  0.2303097E+03  0.7818608E-02  0.1126671E+00
         21   -1    0    0  503  502  0.00000000000E+00  0.00000000000E+00  0.88762323289E+03  0.88762323289E+03  0.00000000000E+00 0.  1.
         21   -1    0    0  501  503 -0.00000000000E+00 -0.00000000000E+00 -0.11506440628E+03  0.11506440628E+03  0.00000000000E+00 0.  1.
          6    2    1    2  501    0  0.15101791885E+03  0.16827101768E+02  0.36943187530E+02  0.23186151842E+03  0.17118820477E+03 0.  0.
         24    2    3    3    0    0  0.12620403805E+03  0.61742340636E+02 -0.11405553281E+02  0.16120178377E+03  0.78207113478E+02 0.  0.
         -6    2    1    2    0  502 -0.15101791885E+03 -0.16827101768E+02  0.73561563908E+03  0.77082612075E+03  0.17306928325E+03 0.  0.
        -24    2    5    5    0    0 -0.10906290163E+03 -0.63738445389E+02  0.61965189431E+03  0.63880120745E+03  0.90228635083E+02 0.  0.
          5    1    3    3  501    0  0.24813880804E+02 -0.44915238867E+02  0.48348740810E+02  0.70659734651E+02  0.47000000000E+01 0. -1.
        -11    1    4    4    0    0  0.11416329835E+03  0.29163780265E+02 -0.30299596514E+02  0.12166285513E+03  0.00000000000E+00 0.  1.
         12    1    4    4    0    0  0.12040739695E+02  0.32578560371E+02  0.18894043233E+02  0.39538928639E+02  0.00000000000E+00 0. -1.
         -5    1    5    5    0  502 -0.41955017220E+02  0.46911343620E+02  0.11596374477E+03  0.13202491330E+03  0.47000000000E+01 0.  1.
         11    1    6    6    0    0 -0.80164360186E+01 -0.40915166170E+02  0.29739521042E+03  0.30030355518E+03  0.00000000000E+00 0. -1.
        -12    1    6    6    0    0 -0.10104646561E+03 -0.22823279218E+02  0.32225668389E+03  0.33849765228E+03  0.00000000000E+00 0.  1.
</event>
<event>
12    1  0.8196217E-002  0.1766498E+03  0.7818608E-02  0.1171584E+00
         21   -1    0    0  503  502  0.00000000000E+00  0.00000000000E+00  0.84424148448E+02  0.84424148448E+02  0.00000000000E+00 0.  1.
         21   -1    0    0  501  503 -0.00000000000E+00 -0.00000000000E+00 -0.42331135043E+03  0.42331135043E+03  0.00000000000E+00 0.  1.
          6    2    1    2  501    0  0.30858867244E+02 -0.10498127616E+02 -0.26246690279E+03  0.31526415622E+03  0.17158127161E+03 0.  0.
         24    2    3    3    0    0  0.70796311737E+02 -0.24671730756E+02 -0.24728045348E+03  0.27000259702E+03  0.78313266254E+02 0.  0.
         -6    2    1    2    0  502 -0.30858867244E+02  0.10498127616E+02 -0.76420299196E+02  0.19247134266E+03  0.17361646018E+03 0.  0.
        -24    2    5    5    0    0 -0.74272353102E+02 -0.27471422618E+02 -0.73249358510E+02  0.13451823779E+03  0.80365578948E+02 0.  0.
          5    1    3    3  501    0 -0.39937444493E+02  0.14173603140E+02 -0.15186449310E+02  0.45261559201E+02  0.47000000000E+01 0. -1.
        -13    1    4    4    0    0  0.92585900469E+01 -0.38550172287E+02 -0.56190728092E+02  0.68769435046E+02  0.00000000000E+00 0.  1.
         14    1    4    4    0    0  0.61537721690E+02  0.13878441531E+02 -0.19108972539E+03  0.20123316197E+03  0.00000000000E+00 0. -1.
         -5    1    5    5    0  502  0.43413485858E+02  0.37969550234E+02 -0.31709406861E+01  0.57953104871E+02  0.47000000000E+01 0.  1.
         11    1    6    6    0    0 -0.60818999138E+02 -0.51429528762E+02 -0.33989053200E+02  0.86597937749E+02  0.00000000000E+00 0. -1.
        -12    1    6    6    0    0 -0.13453353965E+02  0.23958106145E+02 -0.39260305310E+02  0.47920300040E+02  0.00000000000E+00 0.  1.
</event>
<event>
12    1  0.8196217E-002  0.2071723E+03  0.7818608E-02  0.1144851E+00
         21   -1    0    0  503  502  0.00000000000E+00  0.00000000000E+00  0.11145222029E+03  0.11145222029E+03  0.00000000000E+00 0. -1.
         21   -1    0    0  501  503 -0.00000000000E+00 -0.00000000000E+00 -0.61733257021E+03  0.61733257021E+03  0.00000000000E+00 0. -1.
          6    2    1    2  501    0  0.81838002396E+02 -0.61781740967E+02 -0.47896026256E+03  0.51987085397E+03  0.17420771952E+03 0.  0.
         24    2    3    3    0    0  0.19398873719E+02 -0.96727926572E+02 -0.33381631104E+03  0.35797972592E+03  0.83567616768E+02 0.  0.
         -6    2    1    2    0  502 -0.81838002396E+02  0.61781740967E+02 -0.26920087362E+02  0.20891393653E+03  0.18001638708E+03 0.  0.
        -24    2    5    5    0    0 -0.41354988980E+02 -0.31305636306E+02 -0.45951401817E+02  0.10552914503E+03  0.79590144767E+02 0.  0.
          5    1    3    3  501    0  0.62439128677E+02  0.34946185605E+02 -0.14514395152E+03  0.16189112805E+03  0.47000000000E+01 0. -1.
        -11    1    4    4    0    0 -0.16507535474E+02 -0.33899454639E+02 -0.38350977435E+02  0.53781681105E+02  0.00000000000E+00 0.  1.
         12    1    4    4    0    0  0.35906409193E+02 -0.62828471933E+02 -0.29546533361E+03  0.30419804482E+03  0.00000000000E+00 0. -1.
         -5    1    5    5    0  502 -0.40483013416E+02  0.93087377274E+02  0.19031314454E+02  0.10338479150E+03  0.47000000000E+01 0.  1.
         11    1    6    6    0    0 -0.90158066081E+01 -0.18263742796E+01  0.22487671736E+02  0.24296415207E+02  0.00000000000E+00 0. -1.
        -12    1    6    6    0    0 -0.32339182372E+02 -0.29479262027E+02 -0.68439073552E+02  0.81232729825E+02  0.00000000000E+00 0.  1.
</event>
<event>
12    1  0.8196217E-002  0.2712381E+03  0.7818608E-02  0.1100731E+00
         21   -1    0    0  503  502  0.00000000000E+00  0.00000000000E+00  0.38173569135E+03  0.38173569135E+03  0.00000000000E+00 0. -1.
         21   -1    0    0  501  503 -0.00000000000E+00 -0.00000000000E+00 -0.27523600814E+03  0.27523600814E+03  0.00000000000E+00 0. -1.
          6    2    1    2  501    0 -0.90032838650E+02 -0.18970377070E+03 -0.12753478697E+03  0.29872281905E+03  0.16993165710E+03 0.  0.
         24    2    3    3    0    0 -0.10551027599E+03 -0.18738691424E+03 -0.71391365374E+02  0.24024981093E+03  0.79855936747E+02 0.  0.
         -6    2    1    2    0  502  0.90032838650E+02  0.18970377070E+03  0.23403447018E+03  0.35824888044E+03  0.17168778191E+03 0.  0.
        -24    2    5    5    0    0  0.49739034086E+02  0.17312358978E+03  0.10986247575E+03  0.22657022885E+03  0.82574549183E+02 0.  0.
          5    1    3    3  501    0  0.15477437344E+02 -0.23168564583E+01 -0.56143421594E+02  0.58473008122E+02  0.47000000000E+01 0. -1.
        -11    1    4    4    0    0 -0.10132884100E+03 -0.10283489024E+03 -0.38363464360E+02  0.14937973111E+03  0.00000000000E+00 0.  1.
         12    1    4    4    0    0 -0.41814349937E+01 -0.84552023999E+02 -0.33027901015E+02  0.90870079819E+02  0.00000000000E+00 0. -1.
         -5    1    5    5    0  502  0.40293804565E+02  0.16580180919E+02  0.12417199443E+03  0.13167865160E+03  0.47000000000E+01 0.  1.
         13    1    6    6    0    0  0.65131520477E+02  0.14837975439E+03  0.11256299016E+03  0.19730456970E+03  0.00000000000E+00 0. -1.
        -14    1    6    6    0    0 -0.15392486392E+02  0.24743835386E+02 -0.27005144101E+01  0.29265659142E+02  0.00000000000E+00 0.  1.
</event>
<event>
12    1  0.8196217E-002  0.1877542E+03  0.7818608E-02  0.1160777E+00
         21   -1    0    0  503  502  0.00000000000E+00  0.00000000000E+00  0.15380848633E+03  0.15380848633E+03  0.00000000000E+00 0.  1.
         21   -1    0    0  501  503 -0.00000000000E+00 -0.00000000000E+00 -0.28344916812E+03  0.28344916812E+03  0.00000000000E+00 0.  1.
          6    2    1    2  501    0 -0.71375138877E+02  0.15729735110E+02 -0.16191369905E+03  0.24792681076E+03  0.17294456493E+03 0.  0.
         24    2    3    3    0    0 -0.10151332946E+03 -0.29877778980E+02 -0.11898015191E+03  0.17825805634E+03  0.80137509107E+02 0.  0.
         -6    2    1    2    0  502  0.71375138877E+02 -0.15729735110E+02  0.32273017265E+02  0.18933084369E+03  0.17164727121E+03 0.  0.
        -24    2    5    5    0    0  0.42701822381E+02  0.16452001655E+02 -0.41435265172E+02  0.10381579145E+03  0.83466899792E+02 0.  0.
          5    1    3    3  501    0  0.30138190581E+02  0.45607514090E+02 -0.42933547143E+02  0.69668754426E+02  0.47000000000E+01 0. -1.
        -13    1    4    4    0    0 -0.40240365343E+02 -0.44523092897E+02 -0.91731664173E+02  0.10961884426E+03  0.00000000000E+00 0.  1.
         14    1    4    4    0    0 -0.61272964115E+02  0.14645313917E+02 -0.27248487739E+02  0.68639212082E+02  0.00000000000E+00 0. -1.
         -5    1    5    5    0  502  0.28673316497E+02 -0.32181736765E+02  0.73708282437E+02  0.85515052242E+02  0.47000000000E+01 0.  1.
         11    1    6    6    0    0  0.38280170455E+02  0.48585711243E+02 -0.20295961417E+02  0.65098915788E+02  0.00000000000E+00 0. -1.
        -12    1    6    6    0    0  0.44216519262E+01 -0.32133709587E+02 -0.21139303756E+02  0.38716875660E+02  0.00000000000E+00 0.  1.
</event>
<event>
12    1  0.8196217E-002  0.2052212E+03  0.7818608E-02  0.1145450E+00
         21   -1    0    0  501  502  0.00000000000E+00  0.00000000000E+00  0.16423124607E+03  0.16423124607E+03  0.00000000000E+00 0. -1.
         21   -1    0    0  502  503 -0.00000000000E+00 -0.00000000000E+00 -0.36997825177E+03  0.36997825177E+03  0.00000000000E+00 0.  1.
         -6    2    1    2    0  503 -0.77916765448E+02  0.80198513483E+02 -0.25097490792E+03  0.32406353996E+03  0.17183116604E+03 0.  0.
        -24    2    3    3    0    0 -0.77062174101E+02  0.61962806466E+01 -0.79328227563E+02  0.13708296966E+03  0.80757664105E+02 0.  0.
          6    2    1    2  501    0  0.77916765448E+02 -0.80198513483E+02  0.45227902224E+02  0.21014595787E+03  0.17208409737E+03 0.  0.
         24    2    5    5    0    0 -0.21871321979E+02 -0.23427189151E+02  0.38941194556E+02  0.95070946026E+02  0.80590819751E+02 0.  0.
          5    1    5    5  501    0  0.99788087427E+02 -0.56771324332E+02  0.62867076679E+01  0.11507501185E+03  0.47000000000E+01 0. -1.
        -13    1    6    6    0    0 -0.28101443352E+02 -0.25893170326E+02 -0.14752528736E+02  0.40960767719E+02  0.00000000000E+00 0.  1.
         14    1    6    6    0    0  0.62301213732E+01  0.24659811743E+01  0.53693723292E+02  0.54110178307E+02  0.00000000000E+00 0. -1.
         -5    1    3    3    0  503 -0.85459134720E+00  0.74002232836E+02 -0.17164668036E+03  0.18698057030E+03  0.47000000000E+01 0.  1.
         13    1    4    4    0    0 -0.33508995478E+02 -0.65583811277E+01  0.11101729515E+02  0.35904227317E+02  0.00000000000E+00 0. -1.
        -14    1    4    4    0    0 -0.43553178623E+02  0.12754661774E+02 -0.90429957078E+02  0.10117874234E+03  0.00000000000E+00 0.  1.
</event>
<event>
12    1  0.8196217E-002  0.2230304E+03  0.7818608E-02  0.1131685E+00
         21   -1    0    0  501  502  0.00000000000E+00  0.00000000000E+00  0.69420482897E+03  0.69420482897E+03  0.00000000000E+00 0.  1.
         21   -1    0    0  502  503 -0.00000000000E+00 -0.00000000000E+00 -0.80942766877E+02  0.80942766877E+02  0.00000000000E+00 0. -1.
         -6    2    1    2    0  503 -0.12836986188E+03  0.59438459143E+02  0.43830219084E+03  0.49168066177E+03  0.17213166703E+03 0.  0.
        -24    2    3    3    0    0 -0.11030502475E+02 -0.16258654654E+02  0.18452614839E+03  0.20198608463E+03  0.79765049407E+02 0.  0.
          6    2    1    2  501    0  0.12836986188E+03 -0.59438459143E+02  0.17495987126E+03  0.28346693409E+03  0.17242619958E+03 0.  0.
         24    2    5    5    0    0  0.41892779370E+02 -0.20643048670E+02  0.16296297116E+03  0.18781451495E+03  0.80846902459E+02 0.  0.
          5    1    5    5  501    0  0.86477082514E+02 -0.38795410473E+02  0.11996900104E+02  0.95652419133E+02  0.47000000000E+01 0. -1.
        -11    1    6    6    0    0 -0.18650703743E+02  0.60100975090E+01  0.11957794960E+02  0.22955584995E+02  0.00000000000E+00 0.  1.
         12    1    6    6    0    0  0.60543483113E+02 -0.26653146179E+02  0.15100517620E+03  0.16485892996E+03  0.00000000000E+00 0. -1.
         -5    1    3    3    0  503 -0.11733935941E+03  0.75697113797E+02  0.25377604244E+03  0.28969457714E+03  0.47000000000E+01 0.  1.
         11    1    4    4    0    0  0.13248900106E+02 -0.27421004170E+02  0.22738374335E+02  0.38006295414E+02  0.00000000000E+00 0. -1.
        -12    1    4    4    0    0 -0.24279402580E+02  0.11162349516E+02  0.16178777406E+03  0.16397978922E+03  0.00000000000E+00 0.  1.
</event>
<event>
12    1  0.8196217E-002  0.3524932E+03  0.7818608E-02  0.1061613E+00
         21   -1    0    0  503  502  0.00000000000E+00  0.00000000000E+00  0.16396728551E+03  0.16396728551E+03  0.00000000000E+00 0. -1.
         21   -1    0    0  501  503 -0.00000000000E+00 -0.00000000000E+00 -0.13485370293E+04  0.13485370293E+04  0.00000000000E+00 0.  1.
          6    2    1    2  501    0 -0.18315402697E+03 -0.24721500645E+03 -0.10930463890E+04  0.11484780633E+04  0.17201975609E+03 0.  0.
         24    2    3    3    0    0 -0.10662740759E+03 -0.22445647333E+03 -0.93965872226E+03  0.97549210839E+03  0.82923017044E+02 0.  0.
         -6    2    1    2    0  502  0.18315402697E+03  0.24721500645E+03 -0.91523354765E+02  0.36402625144E+03  0.17169138085E+03 0.  0.
        -24    2    5    5    0    0  0.13237692005E+03  0.25086655862E+03 -0.51823411945E+02  0.29929740254E+03  0.80222128774E+02 0.  0.
          5    1    3    3  501    0 -0.76526619380E+02 -0.22758533123E+02 -0.15338766672E+03  0.17298595494E+03  0.47000000000E+01 0. -1.
        -11    1    4    4    0    0 -0.10059369298E+03 -0.17769912918E+03 -0.85012292687E+03  0.87430261487E+03  0.00000000000E+00 0.  1.
         12    1    4    4    0    0 -0.60337146111E+01 -0.46757344151E+02 -0.89535795388E+02  0.10118949352E+03  0.00000000000E+00 0. -1.
         -5    1    5    5    0  502  0.50777106918E+02 -0.36515521615E+01 -0.39699942820E+02  0.64728848901E+02  0.47000000000E+01 0.  1.
         11    1    6    6    0    0  0.10150206449E+03  0.15994175413E+03  0.15497766117E+01  0.18943715479E+03  0.00000000000E+00 0. -1.
        -12    1    6    6    0    0  0.30874855564E+02  0.90924804491E+02 -0.53373188557E+02  0.10986024774E+03  0.00000000000E+00 0.  1.
</event>
<event>
12    1  0.8196217E-002  0.1821161E+03  0.7818608E-02  0.1166129E+00
         21   -1    0    0  501  502  0.00000000000E+00  0.00000000000E+00  0.21127363628E+03  0.21127363628E+03  0.00000000000E+00 0. -1.
         21   -1    0    0  502  503 -0.00000000000E+00 -0.00000000000E+00 -0.18962015220E+03  0.18962015220E+03  0.00000000000E+00 0. -1.
         -6    2    1    2    0  503  0.95009633316E+01  0.56438840443E+02 -0.73993899160E+02  0.19518839431E+03  0.17131199942E+03 0.  0.
        -24    2    3    3    0    0  0.47102478063E+02 -0.23382517565E+02 -0.35813230458E+02  0.98932607123E+02  0.75760726693E+02 0.  0.
          6    2    1    2  501    0 -0.95009633316E+01 -0.56438840443E+02  0.95647383233E+02  0.20570539417E+03  0.17288920226E+03 0.  0.
         24    2    5    5    0    0 -0.58217633879E+02 -0.81889919812E+02  0.69356270733E+02  0.14459578751E+03  0.77475141904E+02 0.  0.
          5    1    5    5  501    0  0.48716670547E+02  0.25451079369E+02  0.26291112499E+02  0.61109606665E+02  0.47000000000E+01 0. -1.
        -13    1    6    6    0    0 -0.18319377352E+02 -0.69563694013E+02  0.10900710617E+02  0.72756667071E+02  0.00000000000E+00 0.  1.
         14    1    6    6    0    0 -0.39898256527E+02 -0.12326225799E+02  0.58455560116E+02  0.71839120434E+02  0.00000000000E+00 0. -1.
         -5    1    3    3    0  503 -0.37601514731E+02  0.79821358008E+02 -0.38180668703E+02  0.96255787187E+02  0.47000000000E+01 0.  1.
         13    1    4    4    0    0 -0.12894010417E+02 -0.10105575615E+02 -0.33673852600E+02  0.37447383248E+02  0.00000000000E+00 0. -1.
        -14    1    4    4    0    0  0.59996488480E+02 -0.13276941950E+02 -0.21393778574E+01  0.61485223876E+02  0.00000000000E+00 0.  1.
</event>
<event>
12    1  0.8196217E-002  0.2514383E+03  0.7818608E-02  0.1112503E+00
         21   -1    0    0  503  502  0.00000000000E+00  0.00000000000E+00  0.87752255092E+03  0.87752255092E+03  0.00000000000E+00 0. -1.
         21   -1    0    0  501  503 -0.00000000000E+00 -0.00000000000E+00 -0.13583446884E+03  0.13583446884E+03  0.00000000000E+00 0. -1.
          6    2    1    2  501    0  0.17951146732E+03 -0.33678745542E+02  0.23371209792E+02  0.25252210357E+03  0.17280791227E+03 0.  0.
         24    2    3    3    0    0  0.11578453381E+03 -0.64439560114E+00 -0.49663931753E+02  0.15001058114E+03  0.81426008263E+02 0.  0.
         -6    2    1    2    0  502 -0.17951146732E+03  0.33678745542E+02  0.71831687229E+03  0.76083491619E+03  0.17184881692E+03 0.  0.
        -24    2    5    5    0    0 -0.24194980642E+02  0.11382511786E+01  0.34881480678E+03  0.35867081880E+03  0.79914292403E+02 0.  0.
          5    1    3    3  501    0  0.63726933514E+02 -0.33034349941E+02  0.73035141546E+02  0.10251152243E+03  0.47000000000E+01 0. -1.
        -11    1    4    4    0    0  0.15609860326E+02 -0.31174488553E+02 -0.19202670155E+01  0.34917100414E+02  0.00000000000E+00 0.  1.
         12    1    4    4    0    0  0.10017467348E+03  0.30530092951E+02 -0.47743664738E+02  0.11509348073E+03  0.00000000000E+00 0. -1.
         -5    1    5    5    0  502 -0.15531648668E+03  0.32540494363E+02  0.36950206551E+03  0.40216409739E+03  0.47000000000E+01 0.  1.
         11    1    6    6    0    0 -0.53457227979E+02 -0.46562376538E+01  0.22735395314E+03  0.23360046186E+03  0.00000000000E+00 0. -1.
        -12    1    6    6    0    0  0.29262247337E+02  0.57944888324E+01  0.12146085363E+03  0.12507035694E+03  0.00000000000E+00 0.  1.
</event>
<event>
12    1  0.8196217E-002  0.2099613E+03  0.7818608E-02  0.1141627E+00
         21   -1    0    0  501  502  0.00000000000E+00  0.00000000000E+00  0.71896298969E+03  0.71896298969E+03  0.00000000000E+00 0. -1.
         21   -1    0    0  502  503 -0.00000000000E+00 -0.00000000000E+00 -0.12550885434E+03  0.12550885434E+03  0.00000000000E+00 0. -1.
         -6    2    1    2    0  503  0.10355899346E+03  0.61545202966E+02 -0.52942417134E+01  0.21002806385E+03  0.17196360508E+03 0.  0.
        -24    2    3    3    0    0  0.19363735498E+02 -0.24946481449E+02  0.14269285475E+02  0.87657828361E+02  0.80517086235E+02 0.  0.
          6    2    1    2  501    0 -0.10355899346E+03 -0.61545202966E+02  0.59874837706E+03  0.63444378018E+03  0.17177605782E+03 0.  0.
         24    2    5    5    0    0 -0.11620086587E+03 -0.61552561328E+02  0.31422212166E+03  0.34959803771E+03  0.78688545495E+02 0.  0.
          5    1    5    5  501    0  0.12641872411E+02  0.73583618945E-02  0.28452625540E+03  0.28484574247E+03  0.47000000000E+01 0. -1.
        -13    1    6    6    0    0  0.30799169956E+01 -0.29193946669E+02  0.52140514737E+02  0.59836491273E+02  0.00000000000E+00 0.  1.
         14    1    6    6    0    0 -0.11928078287E+03 -0.32358614660E+02  0.26208160692E+03  0.28976154643E+03  0.00000000000E+00 0. -1.
         -5    1    3    3    0  503  0.84195257965E+02  0.86491684415E+02 -0.19563527188E+02  0.12237023549E+03  0.47000000000E+01 0.  1.
         13    1    4    4    0    0  0.48915446516E+02 -0.81003670119E+01 -0.26778380005E+01  0.49653878700E+02  0.00000000000E+00 0. -1.
        -14    1    4    4    0    0 -0.29551711018E+02 -0.16846114437E+02  0.16947123475E+02  0.38003949661E+02  0.00000000000E+00 0.  1.
</event>
<event>
12    1  0.8196217E-002  0.3391078E+03  0.7818608E-02  0.1067647E+00
         21   -1    0    0  503  502  0.00000000000E+00  0.00000000000E+00  0.81358422204E+03  0.81358422204E+03  0.00000000000E+00 0.  1.
         21   -1    0    0  501  503 -0.00000000000E+00 -0.00000000000E+00 -0.13982900819E+03  0.13982900819E+03  0.00000000000E+00 0. -1.
          6    2    1    2  501    0  0.14905382664E+03  0.25018507024E+03  0.36132444819E+03  0.49552949305E+03  0.17373689595E+03 0.  0.
         24    2    3    3    0    0  0.54855366336E+01  0.67595604310E+02  0.13546348617E+03  0.17151401328E+03  0.80420419246E+02 0.  0.
         -6    2    1    2    0  502 -0.14905382664E+03 -0.25018507024E+03  0.31243076566E+03  0.45788373717E+03  0.16503006039E+03 0.  0.
        -24    2    5    5    0    0 -0.85565435196E+02 -0.63690210524E+02  0.15990830105E+03  0.20869244367E+03  0.81264904372E+02 0.  0.
          5    1    3    3  501    0  0.14356829001E+03  0.18258946593E+03  0.22586096202E+03  0.32401547977E+03  0.47000000000E+01 0. -1.
        -13    1    4    4    0    0 -0.22993221909E+02  0.25265538039E+02  0.92694999084E+01  0.35397165067E+02  0.00000000000E+00 0.  1.
         14    1    4    4    0    0  0.28478758543E+02  0.42330066270E+02  0.12619398627E+03  0.13611684822E+03  0.00000000000E+00 0. -1.
         -5    1    5    5    0  502 -0.63488391446E+02 -0.18649485971E+03  0.15252246460E+03  0.24919129350E+03  0.47000000000E+01 0.  1.
         11    1    6    6    0    0 -0.97592079983E+02 -0.37706091312E+02  0.11536431212E+03  0.15573980836E+03  0.00000000000E+00 0. -1.
        -12    1    6    6    0    0  0.12026644787E+02 -0.25984119213E+02  0.44543988936E+02  0.52952635312E+02  0.00000000000E+00 0.  1.
</event>
<event>
12    1  0.8196217E-002  0.3357979E+03  0.7818608E-02  0.1068602E+00
         21   -1    0    0  503  502  0.00000000000E+00  0.00000000000E+00  0.99940527788E+02  0.99940527788E+02  0.00000000000E+00 0. -1.
         21   -1    0    0  501  503 -0.00000000000E+00 -0.00000000000E+00 -0.11341726326E+04  0.11341726326E+04  0.00000000000E+00 0.  1.
          6    2    1    2  501    0 -0.64746170129E+02  0.28097302489E+03 -0.56184943336E+03  0.65453950244E+03  0.17207343558E+03 0.  0.
         24    2    3    3    0    0 -0.89871380633E+02  0.16072761879E+03 -0.43342347274E+03  0.47676000066E+03  0.74390584172E+02 0.  0.
         -6    2    1    2    0  502  0.64746170129E+02 -0.28097302489E+03 -0.47238267150E+03  0.57957365799E+03  0.17211138673E+03 0.  0.
        -24    2    5    5    0    0  0.11432655546E+03 -0.19378233911E+03 -0.33801976371E+03  0.41183603166E+03  0.68770633868E+02 0.  0.
          5    1    3    3  501    0  0.25125210504E+02  0.12024540610E+03 -0.12842596062E+03  0.17777950178E+03  0.47000000000E+01 0. -1.
        -11    1    4    4    0    0 -0.80037341236E+02  0.13274236857E+03 -0.27583349225E+03  0.31640263566E+03  0.00000000000E+00 0.  1.
         12    1    4    4    0    0 -0.98340393975E+01  0.27985250218E+02 -0.15758998049E+03  0.16035736500E+03  0.00000000000E+00 0. -1.
         -5    1    5    5    0  502 -0.49580385335E+02 -0.87190685775E+02 -0.13436290779E+03  0.16773762633E+03  0.47000000000E+01 0.  1.
         11    1    6    6    0    0  0.57067909305E+02 -0.12242757232E+03 -0.25370074507E+03  0.28741837935E+03  0.00000000000E+00 0. -1.
        -12    1    6    6    0    0  0.57258646159E+02 -0.71354766790E+02 -0.84319018634E+02  0.12441765231E+03  0.00000000000E+00 0.  1.
</event>
<event>
12    1  0.8196217E-002  0.2380702E+03  0.7818608E-02  0.1121178E+00
         21   -1    0    0  503  502  0.00000000000E+00  0.00000000000E+00  0.55550819468E+02  0.55550819468E+02  0.00000000000E+00 0. -1.
         21   -1    0    0  501  503 -0.00000000000E+00 -0.00000000000E+00 -0.13376789045E+04  0.13376789045E+04  0.00000000000E+00 0.  1.
          6    2    1    2  501    0 -0.92480115042E+02 -0.13555559632E+03 -0.98108404544E+03  0.10094264849E+04  0.17172079904E+03 0.  0.
         24    2    3    3    0    0 -0.43888812657E+02 -0.11590449648E+03 -0.90481084435E+03  0.91676057100E+03  0.80044989352E+02 0.  0.
         -6    2    1    2    0  502  0.92480115042E+02  0.13555559632E+03 -0.30104403961E+03  0.38380323909E+03  0.17248049507E+03 0.  0.
        -24    2    5    5    0    0  0.12261539149E+03  0.72848975172E+02 -0.24409461574E+03  0.29377223276E+03  0.79865110612E+02 0.  0.
          5    1    3    3  501    0 -0.48591302386E+02 -0.19651099841E+02 -0.76273201090E+02  0.92665913890E+02  0.47000000000E+01 0. -1.
        -13    1    4    4    0    0 -0.65396871752E+02 -0.79621687299E+02 -0.70988524855E+03  0.71732379721E+03  0.00000000000E+00 0.  1.
         14    1    4    4    0    0  0.21508059096E+02 -0.36282809177E+02 -0.19492559579E+03  0.19943677380E+03  0.00000000000E+00 0. -1.
         -5    1    5    5    0  502 -0.30135276449E+02  0.62706621145E+02 -0.56949423876E+02  0.90031006336E+02  0.47000000000E+01 0.  1.
         11    1    6    6    0    0  0.61213260746E+02  0.23901369081E+02 -0.44708949657E+02  0.79480997191E+02  0.00000000000E+00 0. -1.
        -12    1    6    6    0    0  0.61402130745E+02  0.48947606092E+02 -0.19938566608E+03  0.21429123557E+03  0.00000000000E+00 0.  1.
</event>
<event>
12    1  0.8196217E-002  0.2479009E+03  0.7818608E-02  0.1115180E+00
         21   -1    0    0  501  502  0.00000000000E+00  0.00000000000E+00  0.80176305805E+02  0.80176305805E+02  0.00000000000E+00 0. -1.
         21   -1    0    0  502  503 -0.00000000000E+00 -0.00000000000E+00 -0.83625627424E+03  0.83625627424E+03  0.00000000000E+00 0. -1.
         -6    2    1    2    0  503 -0.12110471864E+03 -0.12620149198E+03 -0.51754463582E+03  0.57240649034E+03  0.17089052245E+03 0.  0.
        -24    2    3    3    0    0 -0.94165966643E+02 -0.11032519501E+02 -0.26939392080E+03  0.29746930489E+03  0.83222334899E+02 0.  0.
          6    2    1    2  501    0  0.12110471864E+03  0.12620149198E+03 -0.23853533261E+03  0.34402608970E+03  0.17567491578E+03 0.  0.
         24    2    5    5    0    0  0.14457855903E+03  0.14014202761E+03 -0.19040501789E+03  0.28849252407E+03  0.80194251481E+02 0.  0.
          5    1    5    5  501    0 -0.23473840392E+02 -0.13940535633E+02 -0.48130314723E+02  0.55533565632E+02  0.47000000000E+01 0. -1.
        -11    1    6    6    0    0  0.26652364843E+02  0.12095397152E+02 -0.72662837324E+02  0.78336039675E+02  0.00000000000E+00 0.  1.
         12    1    6    6    0    0  0.11792619419E+03  0.12804663046E+03 -0.11774218057E+03  0.21015648439E+03  0.00000000000E+00 0. -1.
         -5    1    3    3    0  503 -0.26938752000E+02 -0.11516897248E+03 -0.24815071502E+03  0.27493718545E+03  0.47000000000E+01 0.  1.
         13    1    4    4    0    0 -0.57546242619E+02 -0.42528231254E+02 -0.20389775492E+03  0.21608913659E+03  0.00000000000E+00 0. -1.
        -14    1    4    4    0    0 -0.36619724024E+02  0.31495711752E+02 -0.65496165883E+02  0.81380168295E+02  0.00000000000E+00 0.  1.
</event>
<event>
12    1  0.8196217E-002  0.1789255E+03  0.7818608E-02  0.1168907E+00
         21   -1    0    0  503  502  0.00000000000E+00  0.00000000000E+00  0.18809791244E+03  0.18809791244E+03  0.00000000000E+00 0. -1.
         21   -1    0    0  501  503 -0.00000000000E+00 -0.00000000000E+00 -0.23253973123E+03  0.23253973123E+03  0.00000000000E+00 0. -1.
          6    2    1    2  501    0 -0.50352670141E+02  0.29009581426E+01 -0.13131077789E+03  0.22173928450E+03  0.17141173517E+03 0.  0.
         24    2    3    3    0    0 -0.75107237709E+02  0.25992540745E+01 -0.15360064417E+03  0.18809693352E+03  0.78354612075E+02 0.  0.
         -6    2    1    2    0  502  0.50352670141E+02 -0.29009581426E+01  0.86868959098E+02  0.19889835917E+03  0.17166984090E+03 0.  0.
        -24    2    5    5    0    0 -0.21149010128E+02  0.14633572379E+02  0.94069926731E+02  0.12477755253E+03  0.77838707782E+02 0.  0.
          5    1    3    3  501    0  0.24754567568E+02  0.30170406810E+00  0.22289866281E+02  0.33642350983E+02  0.47000000000E+01 0. -1.
        -11    1    4    4    0    0  0.27524959308E+01 -0.32761348435E+01  0.77465063991E+01  0.88497262531E+01  0.00000000000E+00 0.  1.
         12    1    4    4    0    0 -0.77859733640E+02  0.58753889180E+01 -0.16134715057E+03  0.17924720727E+03  0.00000000000E+00 0. -1.
         -5    1    5    5    0  502  0.71501680269E+02 -0.17534530522E+02 -0.72009676336E+01  0.74120806639E+02  0.47000000000E+01 0.  1.
         11    1    6    6    0    0 -0.79048527155E+01  0.91935768621E+01  0.10566198380E+03  0.10635536363E+03  0.00000000000E+00 0. -1.
        -12    1    6    6    0    0 -0.13244157413E+02  0.54399955170E+01 -0.11592057067E+02  0.18422188899E+02  0.00000000000E+00 0.  1.
</event>
<event>
12    1  0.8196217E-002  0.1835522E+03  0.7818608E-02  0.1165049E+00
         21   -1    0    0  503  502  0.00000000000E+00  0.00000000000E+00  0.28373815003E+03  0.28373815003E+03  0.00000000000E+00 0.  1.
         21   -1    0    0  501  503 -0.00000000000E+00 -0.00000000000E+00 -0.23491179202E+03  0.23491179202E+03  0.00000000000E+00 0.  1.
          6    2    1    2  501    0 -0.54532917488E+02  0.29721872156E+01 -0.15939545163E+03  0.24107520947E+03  0.17241715006E+03 0.  0.
         24    2    3    3    0    0 -0.49753344872E+02  0.60513200911E+02 -0.59629002011E+02  0.12570949948E+03  0.78166601363E+02 0.  0.
         -6    2    1    2    0  502  0.54532917488E+02 -0.29721872156E+01  0.20822180964E+03  0.27757473258E+03  0.17523908573E+03 0.  0.
        -24    2    5    5    0    0 -0.32981116592E+02 -0.25561830394E+02  0.87174544678E+02  0.12643397535E+03  0.81516793721E+02 0.  0.
          5    1    3    3  501    0 -0.47795726164E+01 -0.57541013695E+02 -0.99766449623E+02  0.11536570999E+03  0.47000000000E+01 0. -1.
        -13    1    4    4    0    0 -0.51226705974E+02  0.35662167778E+01 -0.41203137570E+02  0.65837617307E+02  0.00000000000E+00 0.  1.
         14    1    4    4    0    0  0.14733611017E+01  0.56946984133E+02 -0.18425864441E+02  0.59871882175E+02  0.00000000000E+00 0. -1.
         -5    1    5    5    0  502  0.87514034081E+02  0.22589643178E+02  0.12104726497E+03  0.15114075723E+03  0.47000000000E+01 0.  1.
         11    1    6    6    0    0 -0.20263653225E+02  0.58082618906E+01 -0.10146251794E+02  0.23394400477E+02  0.00000000000E+00 0. -1.
        -12    1    6    6    0    0 -0.12717463367E+02 -0.31370092284E+02  0.97320796472E+02  0.10303957487E+03  0.00000000000E+00 0.  1.
</event>
<event>
12    1  0.8196217E-002  0.2898746E+03  0.7818608E-02  0.1090419E+00
         21   -1    0    0  501  502  0.00000000000E+00  0.00000000000E+00  0.98585903811E+02  0.98585903811E+02  0.00000000000E+00 0.  1.
         21   -1    0    0  502  503 -0.00000000000E+00 -0.00000000000E+00 -0.88527216738E+03  0.88527216738E+03  0.00000000000E+00 0.  1.
         -6    2    1    2    0  503 -0.18536456744E+03  0.14126035549E+03 -0.48840984256E+03  0.56795377002E+03  0.17237401103E+03 0.  0.
        -24    2    3    3    0    0 -0.12066419013E+03  0.60675358746E+02 -0.16260362967E+03  0.22611775834E+03  0.80299155146E+02 0.  0.
          6    2    1    2  501    0  0.18536456744E+03 -0.14126035549E+03 -0.29827642101E+03  0.41590430117E+03  0.17231672440E+03 0.  0.
         24    2    5    5    0    0  0.51574766163E+02 -0.41099266582E+02 -0.46877419172E+02  0.11398460526E+03  0.80286310096E+02 0.  0.
          5    1    5    5  501    0  0.13378980128E+03 -0.10016108891E+03 -0.25139900184E+03  0.30191969592E+03  0.47000000000E+01 0. -1.
        -11    1    6    6    0    0  0.27010297360E+01  0.88779035072E+01  0.16951156370E+02  0.19324969201E+02  0.00000000000E+00 0.  1.
         12    1    6    6    0    0  0.48873736427E+02 -0.49977170089E+02 -0.63828575542E+02  0.94659636055E+02  0.00000000000E+00 0. -1.
         -5    1    3    3    0  503 -0.64700377313E+02  0.80584996741E+02 -0.32580621290E+03  0.34183601169E+03  0.47000000000E+01 0.  1.
         13    1    4    4    0    0 -0.63646070070E+01  0.29903917776E+02 -0.83725747887E+01  0.31699408974E+02  0.00000000000E+00 0. -1.
        -14    1    4    4    0    0 -0.11429958312E+03  0.30771440970E+02 -0.15423105488E+03  0.19441834936E+03  0.00000000000E+00 0.  1.
</event>
<event>
12    1  0.8196217E-002  0.2551808E+03  0.7818608E-02  0.1110305E+00
         21   -1    0    0  501  502  0.00000000000E+00  0.00000000000E+00  0.10076942584E+03  0.10076942584E+03  0.00000000000E+00 0.  1.
         21   -1    0    0  502  503 -0.00000000000E+00 -0.00000000000E+00 -0.66861512094E+03  0.66861512094E+03  0.00000000000E+00 0. -1.
         -6    2    1    2    0  503 -0.12750826255E+03 -0.13968089946E+03 -0.35926722449E+03  0.43980572092E+03  0.16907697322E+03 0.  0.
        -24    2    3    3    0    0 -0.14995076800E+03 -0.11969485947E+03 -0.27252262034E+03  0.34788279563E+03  0.99708418368E+02 0.  0.
          6    2    1    2  501    0  0.12750826255E+03  0.13968089946E+03 -0.20857847062E+03  0.32957882586E+03  0.17131291065E+03 0.  0.
         24    2    5    5    0    0  0.11860213035E+03  0.12823157070E+03 -0.23239957790E+03  0.30129558927E+03  0.79118058964E+02 0.  0.
          5    1    5    5  501    0  0.89061322015E+01  0.11449328762E+02  0.23821107286E+02  0.28283236593E+02  0.47000000000E+01 0. -1.
        -11    1    6    6    0    0  0.44035290102E+02  0.10466530056E+03 -0.13754731664E+03  0.17836254156E+03  0.00000000000E+00 0.  1.
         12    1    6    6    0    0  0.74566840248E+02  0.23566270143E+02 -0.94852261259E+02  0.12293304771E+03  0.00000000000E+00 0. -1.
         -5    1    3    3    0  503  0.22442505449E+02 -0.19986039990E+02 -0.86744604148E+02  0.91922925291E+02  0.47000000000E+01 0.  1.
         11    1    4    4    0    0 -0.29002207696E+02 -0.62158048782E+02 -0.15576906872E+03  0.17020209707E+03  0.00000000000E+00 0. -1.
        -12    1    4    4    0    0 -0.12094856030E+03 -0.57536810689E+02 -0.11675355162E+03  0.17768069856E+03  0.00000000000E+00 0.  1.
</event>
<event>
12    1  0.8196217E-002  0.1775035E+03  0.7818608E-02  0.1172406E+00
         21   -1    0    0  503  502  0.00000000000E+00  0.00000000000E+00  0.22261446140E+04  0.22261446140E+04  0.00000000000E+00 0. -1.
         21   -1    0    0  501  503 -0.00000000000E+00 -0.00000000000E+00 -0.14069817708E+02  0.14069817708E+02  0.00000000000E+00 0. -1.
          6    2    1    2  501    0 -0.45686011052E+01 -0.36300422133E+02  0.85050987693E+03  0.86712794230E+03  0.16494006425E+03 0.  0.
         24    2    3    3    0    0  0.30695563437E+02 -0.76000392825E+02  0.61388587886E+03  0.62457350421E+03  0.80733590114E+02 0.  0.
         -6    2    1    2    0  502  0.45686011052E+01  0.36300422133E+02  0.13615649193E+04  0.13730864894E+04  0.17369192554E+03 0.  0.
        -24    2    5    5    0    0  0.20473293875E+02  0.87009067678E+02  0.76720565581E+03  0.77633750520E+03  0.78138787121E+02 0.  0.
          5    1    3    3  501    0 -0.35264164542E+02  0.39699970693E+02  0.23662399807E+03  0.24255443808E+03  0.47000000000E+01 0. -1.
        -11    1    4    4    0    0 -0.90935156704E+01 -0.30694277210E+02  0.42705888359E+03  0.42825707318E+03  0.00000000000E+00 0.  1.
         12    1    4    4    0    0  0.39789079107E+02 -0.45306115615E+02  0.18682699528E+03  0.19631643103E+03  0.00000000000E+00 0. -1.
         -5    1    5    5    0  502 -0.15904692770E+02 -0.50708645545E+02  0.59435926352E+03  0.59674898418E+03  0.47000000000E+01 0.  1.
         13    1    6    6    0    0  0.14944242497E+02  0.80188989084E+02  0.76152306134E+03  0.76587921848E+03  0.00000000000E+00 0. -1.
        -14    1    6    6    0    0  0.55290513783E+01  0.68200785938E+01  0.56825944771E+01  0.10458286722E+02  0.00000000000E+00 0.  1.
</event>
<event>
12    1  0.8196217E-002  0.1987761E+03  0.7818608E-02  0.1151900E+00
         21   -1    0    0  501  502  0.00000000000E+00  0.00000000000E+00  0.25429645719E+03  0.25429645719E+03  0.00000000000E+00 0. -1.
         21   -1    0    0  502  503 -0.00000000000E+00 -0.00000000000E+00 -0.17383689284E+03  0.17383689284E+03  0.00000000000E+00 0. -1.
         -6    2    1    2    0  503  0.73047552804E+01  0.94852151606E+02 -0.36324734193E+02  0.20206782384E+03  0.17453260155E+03 0.  0.
        -24    2    3    3    0    0  0.59681044948E+02  0.10118936284E+03 -0.38516893433E+02  0.14905526375E+03  0.83263475147E+02 0.  0.
          6    2    1    2  501    0 -0.73047552804E+01 -0.94852151606E+02  0.11678429854E+03  0.22606552620E+03  0.16857271320E+03 0.  0.
         24    2    5    5    0    0  0.21238481901E+02  0.10482514754E+02  0.45169648770E+02  0.95448312982E+02  0.80679161200E+02 0.  0.
          5    1    5    5  501    0 -0.28543237182E+02 -0.10533466636E+03  0.71614649770E+02  0.13061721321E+03  0.47000000000E+01 0. -1.
        -13    1    6    6    0    0  0.38412701817E+02 -0.21363832074E+02  0.10184658317E+02  0.45118469022E+02  0.00000000000E+00 0.  1.
         14    1    6    6    0    0 -0.17174219916E+02  0.31846346829E+02  0.34984990453E+02  0.50329843960E+02  0.00000000000E+00 0. -1.
         -5    1    3    3    0  503 -0.52376289668E+02 -0.63372112312E+01  0.21921592397E+01  0.53012560093E+02  0.47000000000E+01 0.  1.
         13    1    4    4    0    0  0.17168158934E+02  0.35621719846E+02  0.26331878949E+02  0.47508109360E+02  0.00000000000E+00 0. -1.
        -14    1    4    4    0    0  0.42512886014E+02  0.65567642990E+02 -0.64848772382E+02  0.10154715439E+03  0.00000000000E+00 0.  1.
</event>
<event>
12    1  0.8196217E-002  0.1916118E+03  0.7818608E-02  0.1157220E+00
         21   -1    0    0  501  502  0.00000000000E+00  0.00000000000E+00  0.31519366791E+04  0.31519366791E+04  0.00000000000E+00 0. -1.
         21   -1    0    0  502  503 -0.00000000000E+00 -0.00000000000E+00 -0.14013698531E+02  0.14013698531E+02  0.00000000000E+00 0. -1.
         -6    2    1    2    0  503 -0.80113598370E+02  0.15428013536E+02  0.91415049209E+03  0.93401617346E+03  0.17337496316E+03 0.  0.
        -24    2    3    3    0    0 -0.84022504204E+02 -0.11799439862E+02  0.35365383821E+03  0.37282529437E+03  0.82028378303E+02 0.  0.
          6    2    1    2  501    0  0.80113598370E+02 -0.15428013536E+02  0.22237724885E+04  0.22319342042E+04  0.17236588696E+03 0.  0.
         24    2    5    5    0    0 -0.24533308813E+02  0.74273195566E+01  0.96658954141E+03  0.97018763935E+03  0.79445992153E+02 0.  0.
          5    1    5    5  501    0  0.10464690718E+03 -0.22855333092E+02  0.12571829471E+04  0.12617465648E+04  0.47000000000E+01 0. -1.
        -13    1    6    6    0    0 -0.19676665244E+01  0.41228861548E+02  0.58027379674E+03  0.58173995042E+03  0.00000000000E+00 0.  1.
         14    1    6    6    0    0 -0.22565642288E+02 -0.33801541991E+02  0.38631574467E+03  0.38844768892E+03  0.00000000000E+00 0. -1.
         -5    1    3    3    0  503  0.39089058345E+01  0.27227453397E+02  0.56049665389E+03  0.56119087910E+03  0.47000000000E+01 0.  1.
         13    1    4    4    0    0 -0.90217140813E+02 -0.12251674742E+02  0.35498380315E+03  0.36647337766E+03  0.00000000000E+00 0. -1.
        -14    1    4    4    0    0  0.61946366092E+01  0.45223488013E+00 -0.13299649470E+01  0.63519167081E+01  0.00000000000E+00 0.  1.
</event>
<event>
12    1  0.8196217E-002  0.2308583E+03  0.7818608E-02  0.1126300E+00
         21   -1    0    0  501  502  0.00000000000E+00  0.00000000000E+00  0.59928254729E+03  0.59928254729E+03  0.00000000000E+00 0. -1.
         21   -1    0    0  502  503 -0.00000000000E+00 -0.00000000000E+00 -0.19483653486E+03  0.19483653486E+03  0.00000000000E+00 0. -1.
         -6    2    1    2    0  503 -0.86128542630E+02 -0.12796258161E+03 -0.91008759079E+02  0.24814945037E+03  0.17176439486E+03 0.  0.
        -24    2    3    3    0    0 -0.49662715227E+02 -0.14345097132E+03 -0.10785866484E+03  0.20484060475E+03  0.85332381402E+02 0.  0.
          6    2    1    2  501    0  0.86128542630E+02  0.12796258161E+03  0.49545477151E+03  0.54596963178E+03  0.16974940371E+03 0.  0.
         24    2    5    5    0    0  0.34821850514E+02  0.45775606171E+02  0.39282503387E+03  0.40475338400E+03  0.78777073009E+02 0.  0.
          5    1    5    5  501    0  0.51306692116E+02  0.82186975436E+02  0.10262973764E+03  0.14121624777E+03  0.47000000000E+01 0. -1.
        -13    1    6    6    0    0 -0.25414256020E+02  0.14306192358E+02  0.10154261148E+03  0.10564778036E+03  0.00000000000E+00 0.  1.
         14    1    6    6    0    0  0.60236106534E+02  0.31469413812E+02  0.29128242239E+03  0.29910560364E+03  0.00000000000E+00 0. -1.
         -5    1    3    3    0  503 -0.36465827403E+02  0.15488389718E+02  0.16849905766E+02  0.43308845615E+02  0.47000000000E+01 0.  1.
         13    1    4    4    0    0 -0.49639002783E+02 -0.64491995548E+02 -0.94577582139E+02  0.12477246143E+03  0.00000000000E+00 0. -1.
        -14    1    4    4    0    0 -0.23712443776E-01 -0.78958975777E+02 -0.13281082706E+02  0.80068143327E+02  0.00000000000E+00 0.  1.
</event>
<event>
12    1  0.8196217E-002  0.4141321E+03  0.7818608E-02  0.1039032E+00
         21   -1    0    0  501  502  0.00000000000E+00  0.00000000000E+00  0.12527712292E+04  0.12527712292E+04  0.00000000000E+00 0. -1.
         21   -1    0    0  502  503 -0.00000000000E+00 -0.00000000000E+00 -0.13682347121E+03  0.13682347121E+03  0.00000000000E+00 0.  1.
         -6    2    1    2    0  503  0.22347600241E+03 -0.30271121377E+03  0.54110689322E+03  0.68111225141E+03  0.17187677718E+03 0.  0.
        -24    2    3    3    0    0  0.20720384738E+03 -0.20770823203E+03  0.32871114001E+03  0.44782188395E+03  0.80107940648E+02 0.  0.
          6    2    1    2  501    0 -0.22347600241E+03  0.30271121377E+03  0.57484086481E+03  0.70848244904E+03  0.17300219114E+03 0.  0.
         24    2    5    5    0    0 -0.16478895227E+03  0.24314453073E+03  0.53540983624E+03  0.61591217521E+03  0.80059060781E+02 0.  0.
          5    1    5    5  501    0 -0.58687050137E+02  0.59566683037E+02  0.39431028570E+02  0.92570273824E+02  0.47000000000E+01 0. -1.
        -13    1    6    6    0    0 -0.12532119624E+03  0.12638654939E+03  0.27147848644E+03  0.32462213525E+03  0.00000000000E+00 0.  1.
         14    1    6    6    0    0 -0.39467756034E+02  0.11675798134E+03  0.26393134980E+03  0.29129003996E+03  0.00000000000E+00 0. -1.
         -5    1    3    3    0  503  0.16272155035E+02 -0.95002981737E+02  0.21239575321E+03  0.23329036746E+03  0.47000000000E+01 0.  1.
         13    1    4    4    0    0  0.75127096318E+02 -0.12657910985E+03  0.13499480509E+03  0.19972468313E+03  0.00000000000E+00 0. -1.
        -14    1    4    4    0    0  0.13207675106E+03 -0.81129122176E+02  0.19371633493E+03  0.24809720082E+03  0.00000000000E+00 0.  1.
</event>
<event>
12    1  0.8196217E-002  0.2359948E+03  0.7818608E-02  0.1122682E+00
         21   -1    0    0  503  502  0.00000000000E+00  0.00000000000E+00  0.33227612933E+02  0.33227612933E+02  0.00000000000E+00 0.  1.
         21   -1    0    0  501  503 -0.00000000000E+00 -0.00000000000E+00 -0.17098118475E+04  0.17098118475E+04  0.00000000000E+00 0. -1.
          6    2    1    2  501    0  0.15508510086E+03  0.40929715941E+02 -0.70028596540E+03  0.73862329192E+03  0.17157302785E+03 0.  0.
         24    2    3    3    0    0  0.18407695062E+03  0.38415606976E+02 -0.58455037276E+03  0.61919270330E+03  0.79626521408E+02 0.  0.
         -6    2    1    2    0  502 -0.15508510086E+03 -0.40929715941E+02 -0.97629826919E+03  0.10044161685E+04  0.17310950009E+03 0.  0.
        -24    2    5    5    0    0 -0.13934637188E+03 -0.70866013780E+02 -0.93238657136E+03  0.94879048449E+03  0.80120295456E+02 0.  0.
          5    1    3    3  501    0 -0.28991849766E+02  0.25141089648E+01 -0.11573559263E+03  0.11943058862E+03  0.47000000000E+01 0. -1.
        -13    1    4    4    0    0  0.58507899683E+02  0.30932213011E+02 -0.11111686636E+03  0.12933264907E+03  0.00000000000E+00 0.  1.
         14    1    4    4    0    0  0.12556905094E+03  0.74833939657E+01 -0.47343350641E+03  0.48986005423E+03  0.00000000000E+00 0. -1.
         -5    1    5    5    0  502 -0.15738728979E+02  0.29936297839E+02 -0.43911697824E+02  0.55625684031E+02  0.47000000000E+01 0.  1.
         13    1    6    6    0    0 -0.92587634262E+02 -0.10141861497E+02 -0.38730047045E+03  0.39834279432E+03  0.00000000000E+00 0. -1.
        -14    1    6    6    0    0 -0.46758737619E+02 -0.60724152283E+02 -0.54508610091E+03  0.55044769018E+03  0.00000000000E+00 0.  1.
</event>
<event>
12    1  0.8196217E-002  0.2881963E+03  0.7818608E-02  0.1092215E+00
         21   -1    0    0  501  502  0.00000000000E+00  0.00000000000E+00  0.11369419658E+03  0.11369419658E+03  0.00000000000E+00 0.  1.
         21   -1    0    0  502  503 -0.00000000000E+00 -0.00000000000E+00 -0.75885108330E+03  0.75885108330E+03  0.00000000000E+00 0.  1.
         -6    2    1    2    0  503 -0.15863454889E+03 -0.16821557528E+03 -0.42597327457E+03  0.51046994595E+03  0.16020279401E+03 0.  0.
        -24    2    3    3    0    0 -0.14504941558E+03 -0.18045186210E+03 -0.42585272470E+03  0.49159172849E+03  0.81912617397E+02 0.  0.
          6    2    1    2  501    0  0.15863454889E+03  0.16821557528E+03 -0.21918361215E+03  0.36207533392E+03  0.17203398424E+03 0.  0.
         24    2    5    5    0    0  0.10845040262E+03  0.18283185288E+03 -0.13955826664E+03  0.26671092884E+03  0.80431545560E+02 0.  0.
          5    1    5    5  501    0  0.50184146273E+02 -0.14616277606E+02 -0.79625345512E+02  0.95364405079E+02  0.47000000000E+01 0. -1.
        -13    1    6    6    0    0  0.32559815532E+02  0.61390853862E+02 -0.93069341785E+02  0.11615025142E+03  0.00000000000E+00 0.  1.
         14    1    6    6    0    0  0.75890587084E+02  0.12144099902E+03 -0.46488924853E+02  0.15056067742E+03  0.00000000000E+00 0. -1.
         -5    1    3    3    0  503 -0.13585133307E+02  0.12236286826E+02 -0.12054986748E+00  0.18878217461E+02  0.47000000000E+01 0.  1.
         11    1    4    4    0    0  0.10409843993E+01 -0.17348251737E+02 -0.65758493661E+01  0.18581907376E+02  0.00000000000E+00 0. -1.
        -12    1    4    4    0    0 -0.14609039998E+03 -0.16310361037E+03 -0.41927687534E+03  0.47300982112E+03  0.00000000000E+00 0.  1.
</event>
<event>
12    1  0.8196217E-002  0.2180595E+03  0.7818608E-02  0.1135459E+00
         21   -1    0    0  503  502  0.00000000000E+00  0.00000000000E+00  0.68023156096E+03  0.68023156096E+03  0.00000000000E+00 0. -1.
         21   -1    0    0  501  503 -0.00000000000E+00 -0.00000000000E+00 -0.70519735983E+02  0.70519735983E+02  0.00000000000E+00 0. -1.
          6    2    1    2  501    0 -0.11765040513E+03  0.63296932738E+02  0.34494273070E+03  0.40774601177E+03  0.17153193034E+03 0.  0.
         24    2    3    3    0    0  0.68029146536E+01  0.15893235094E+02  0.17112057823E+03  0.18872096743E+03  0.77681894187E+02 0.  0.
         -6    2    1    2    0  502  0.11765040513E+03 -0.63296932738E+02  0.26476909427E+03  0.34300528517E+03  0.17234219696E+03 0.  0.
        -24    2    5    5    0    0  0.11247576430E+03 -0.79246931881E+02  0.12449438318E+03  0.20165372362E+03  0.78958843963E+02 0.  0.
          5    1    3    3  501    0 -0.12445331979E+03  0.47403697644E+02  0.17382215247E+03  0.21902504433E+03  0.47000000000E+01 0. -1.
        -13    1    4    4    0    0  0.17086792799E+01 -0.31452826031E+02  0.58368432705E+02  0.66325513844E+02  0.00000000000E+00 0.  1.
         14    1    4    4    0    0  0.50942353736E+01  0.47346061125E+02  0.11275214553E+03  0.12239545359E+03  0.00000000000E+00 0. -1.
         -5    1    5    5    0  502  0.51746408343E+01  0.15949999143E+02  0.14027471110E+03  0.14135156156E+03  0.47000000000E+01 0.  1.
         11    1    6    6    0    0  0.92642331831E+02 -0.35153732094E+02  0.45493363351E+02  0.10903225503E+03  0.00000000000E+00 0. -1.
        -12    1    6    6    0    0  0.19833432468E+02 -0.44093199787E+02  0.79001019824E+02  0.92621468592E+02  0.00000000000E+00 0.  1.
</event>
<event>
12    1  0.8196217E-002  0.1963154E+03  0.7818608E-02  0.1153256E+00
         21   -1    0    0  503  502  0.00000000000E+00  0.00000000000E+00  0.42492870252E+03  0.42492870252E+03  0.00000000000E+00 0. -1.
         21   -1    0    0  501  503 -0.00000000000E+00 -0.00000000000E+00 -0.89960224186E+02  0.89960224186E+02  0.00000000000E+00 0. -1.
          6    2    1    2  501    0  0.73871661542E+01  0.93815065560E+02  0.16215708332E+03  0.25462652243E+03  0.17229018981E+03 0.  0.
         24    2    3    3    0    0  0.10845820164E+02  0.13339626422E+03  0.12463587536E+03  0.19977613846E+03  0.80400304417E+02 0.  0.
         -6    2    1    2    0  502 -0.73871661542E+01 -0.93815065560E+02  0.17281139502E+03  0.26026240428E+03  0.17034348853E+03 0.  0.
        -24    2    5    5    0    0  0.22067264726E+02 -0.11782805564E+03  0.87935242762E+02  0.16714828928E+03  0.76390633072E+02 0.  0.
          5    1    3    3  501    0 -0.34586540100E+01 -0.39581198656E+02  0.37521207957E+02  0.54850383965E+02  0.47000000000E+01 0. -1.
        -11    1    4    4    0    0 -0.27497679203E+02  0.63198473384E+02  0.28154913428E+02  0.74450443583E+02  0.00000000000E+00 0.  1.
         12    1    4    4    0    0  0.38343499367E+02  0.70197790832E+02  0.96480961936E+02  0.12532569488E+03  0.00000000000E+00 0. -1.
         -5    1    5    5    0  502 -0.29454430880E+02  0.24012990077E+02  0.84876152253E+02  0.93114115000E+02  0.47000000000E+01 0.  1.
         13    1    6    6    0    0 -0.17552500398E+02 -0.40643573812E+02  0.93500820289E+00  0.44281650859E+02  0.00000000000E+00 0. -1.
        -14    1    6    6    0    0  0.39619765123E+02 -0.77184481826E+02  0.87000234559E+02  0.12286663842E+03  0.00000000000E+00 0.  1.
</event>
<event>
12    1  0.8196217E-002  0.2925822E+03  0.7818608E-02  0.1089113E+00
         21   -1    0    0  503  502  0.00000000000E+00  0.00000000000E+00  0.13553316628E+03  0.13553316628E+03  0.00000000000E+00 0. -1.
         21   -1    0    0  501  503 -0.00000000000E+00 -0.00000000000E+00 -0.10651217407E+04  0.10651217407E+04  0.00000000000E+00 0. -1.
          6    2    1    2  501    0  0.40738050286E+02  0.23289563052E+03 -0.81414327645E+02  0.30369823959E+03  0.17234954171E+03 0.  0.
         24    2    3    3    0    0  0.42935058200E+02  0.23283793567E+03 -0.28152311910E+02  0.25018410601E+03  0.75780015336E+02 0.  0.
         -6    2    1    2    0  502 -0.40738050286E+02 -0.23289563052E+03 -0.84817424676E+03  0.89695666737E+03  0.17097294176E+03 0.  0.
        -24    2    5    5    0    0 -0.74429674249E+02 -0.87422739847E+02 -0.45433214513E+03  0.47573086276E+03  0.81973433748E+02 0.  0.
          5    1    3    3  501    0 -0.21970079139E+01  0.57694847923E-01 -0.53262015735E+02  0.53514133578E+02  0.47000000000E+01 0. -1.
        -11    1    4    4    0    0  0.35777865823E+02  0.34532521066E+02 -0.11603799199E+02  0.51060736872E+02  0.00000000000E+00 0.  1.
         12    1    4    4    0    0  0.71571923770E+01  0.19830541460E+03 -0.16548512710E+02  0.19912336914E+03  0.00000000000E+00 0. -1.
         -5    1    5    5    0  502  0.33691623963E+02 -0.14547289067E+03 -0.39384210164E+03  0.42122580461E+03  0.47000000000E+01 0.  1.
         11    1    6    6    0    0  0.10148040682E+02 -0.13846347517E+02 -0.15754997600E+03  0.15848248801E+03  0.00000000000E+00 0. -1.
        -12    1    6    6    0    0 -0.84577714931E+02 -0.73576392329E+02 -0.29678216913E+03  0.31724837475E+03  0.00000000000E+00 0.  1.
</event>
<event>
12    1  0.8196217E-002  0.2137367E+03  0.7818608E-02  0.1139006E+00
         21   -1    0    0  503  502  0.00000000000E+00  0.00000000000E+00  0.14274926940E+03  0.14274926940E+03  0.00000000000E+00 0. -1.
         21   -1    0    0  501  503 -0.00000000000E+00 -0.00000000000E+00 -0.32283290947E+03  0.32283290947E+03  0.00000000000E+00 0. -1.
          6    2    1    2  501    0  0.95662740436E+02 -0.79739254187E+02 -0.59721104782E+02  0.22192341143E+03  0.17370573283E+03 0.  0.
         24    2    3    3    0    0 -0.11761916535E+02 -0.89521409814E+01 -0.53300242704E+01  0.82168798053E+02  0.80652456293E+02 0.  0.
         -6    2    1    2    0  502 -0.95662740436E+02  0.79739254187E+02 -0.12036253528E+03  0.24365876744E+03  0.17138479070E+03 0.  0.
        -24    2    5    5    0    0 -0.77664246553E+02  0.11799610580E+03 -0.11466790913E+03  0.20073964298E+03  0.84810722809E+02 0.  0.
          5    1    3    3  501    0  0.10742465697E+03 -0.70787113206E+02 -0.54391080512E+02  0.13975461338E+03  0.47000000000E+01 0. -1.
        -13    1    4    4    0    0 -0.30479541391E+02 -0.14781296432E+02 -0.33635590458E+02  0.47737219369E+02  0.00000000000E+00 0.  1.
         14    1    4    4    0    0  0.18717624856E+02  0.58291554510E+01  0.28305566187E+02  0.34431578684E+02  0.00000000000E+00 0. -1.
         -5    1    5    5    0  502 -0.17998493882E+02 -0.38256851610E+02 -0.56946261570E+01  0.42919124458E+02  0.47000000000E+01 0.  1.
         11    1    6    6    0    0 -0.23859806140E+02  0.42893797444E+00  0.52065407483E+01  0.24425036405E+02  0.00000000000E+00 0. -1.
        -12    1    6    6    0    0 -0.53804440413E+02  0.11756716782E+03 -0.11987444987E+03  0.17631460657E+03  0.00000000000E+00 0.  1.
</event>
<event>
12    1  0.8196217E-002  0.2157277E+03  0.7818608E-02  0.1137375E+00
         21   -1    0    0  501  502  0.00000000000E+00  0.00000000000E+00  0.15714495988E+04  0.15714495988E+04  0.00000000000E+00 0.  1.
         21   -1    0    0  502  503 -0.00000000000E+00 -0.00000000000E+00 -0.34023223741E+02  0.34023223741E+02  0.00000000000E+00 0. -1.
         -6    2    1    2    0  503 -0.11714962288E+02  0.12912586276E+03  0.47575148784E+03  0.52237718201E+03  0.17241726516E+03 0.  0.
        -24    2    3    3    0    0 -0.19411145961E+02  0.14915544352E+03  0.47000055589E+03  0.49967082680E+03  0.78398174081E+02 0.  0.
          6    2    1    2  501    0  0.11714962288E+02 -0.12912586276E+03  0.10616748873E+04  0.10830956406E+04  0.17068061288E+03 0.  0.
         24    2    5    5    0    0  0.36543856578E+02 -0.15461157032E+03  0.88445539580E+03  0.90227851352E+03  0.81271013725E+02 0.  0.
          5    1    5    5  501    0 -0.24828894290E+02  0.25485707560E+02  0.17721949146E+03  0.18081712705E+03  0.47000000000E+01 0. -1.
        -13    1    6    6    0    0  0.57300215753E+02 -0.87592616440E+02  0.43727881590E+03  0.44963156474E+03  0.00000000000E+00 0.  1.
         14    1    6    6    0    0 -0.20756359175E+02 -0.67018953884E+02  0.44717657991E+03  0.45264694878E+03  0.00000000000E+00 0. -1.
         -5    1    3    3    0  503  0.76961836730E+01 -0.20029580756E+02  0.57509319451E+01  0.22706355204E+02  0.47000000000E+01 0.  1.
         11    1    4    4    0    0  0.16095647732E+02  0.10078550152E+03  0.21925894836E+03  0.24184969222E+03  0.00000000000E+00 0. -1.
        -12    1    4    4    0    0 -0.35506793693E+02  0.48369941997E+02  0.25074160753E+03  0.25782113458E+03  0.00000000000E+00 0.  1.
</event>
<event>
12    1  0.8196217E-002  0.1889965E+03  0.7818608E-02  0.1160211E+00
         21   -1    0    0  503  502  0.00000000000E+00  0.00000000000E+00  0.77448480418E+02  0.77448480418E+02  0.00000000000E+00 0.  1.
         21   -1    0    0  501  503 -0.00000000000E+00 -0.00000000000E+00 -0.11808218821E+04  0.11808218821E+04  0.00000000000E+00 0.  1.
          6    2    1    2  501    0 -0.58094714154E+02  0.46789610185E+02 -0.10437734839E+04  0.10600991903E+04  0.16965536863E+03 0.  0.
         24    2    3    3    0    0 -0.96713925662E+02  0.15061518922E+02 -0.87351197022E+03  0.88259091354E+03  0.79769203115E+02 0.  0.
         -6    2    1    2    0  502  0.58094714154E+02 -0.46789610185E+02 -0.59599917793E+02  0.19817117225E+03  0.17365310212E+03 0.  0.
        -24    2    5    5    0    0 -0.68214926763E+01  0.28787111769E+02 -0.11291602043E+02  0.87348168404E+02  0.81406214016E+02 0.  0.
          5    1    3    3  501    0  0.38619211508E+02  0.31728091263E+02 -0.17026151365E+03  0.17750827672E+03  0.47000000000E+01 0. -1.
        -13    1    4    4    0    0 -0.43997641966E+01  0.14956024464E+02 -0.27942797648E+02  0.31997508233E+02  0.00000000000E+00 0.  1.
         14    1    4    4    0    0 -0.92314161466E+02  0.10549445790E+00 -0.84556917258E+03  0.85059340530E+03  0.00000000000E+00 0. -1.
         -5    1    5    5    0  502  0.64916206831E+02 -0.75576721954E+02 -0.48308315750E+02  0.11082300384E+03  0.47000000000E+01 0.  1.
         13    1    6    6    0    0  0.22661645769E+02  0.43517644218E+02  0.71475567851E+01  0.49582487990E+02  0.00000000000E+00 0. -1.
        -14    1    6    6    0    0 -0.29483138446E+02 -0.14730532448E+02 -0.18439158828E+02  0.37765680414E+02  0.00000000000E+00 0.  1.
</event>
<event>
12    1  0.8196217E-002  0.2508158E+03  0.7818608E-02  0.1112876E+00
         21   -1    0    0  503  502  0.00000000000E+00  0.00000000000E+00  0.16879979197E+04  0.16879979197E+04  0.00000000000E+00 0.  1.
         21   -1    0    0  501  503 -0.00000000000E+00 -0.00000000000E+00 -0.69261894169E+02  0.69261894169E+02  0.00000000000E+00 0. -1.
          6    2    1    2  501    0  0.69393054879E+02 -0.16777460562E+03  0.21097544359E+03  0.32733029865E+03  0.17225206025E+03 0.  0.
         24    2    3    3    0    0 -0.30696641613E+00 -0.13686683408E+03  0.19174173594E+03  0.24855588136E+03  0.79262275741E+02 0.  0.
         -6    2    1    2    0  502 -0.69393054879E+02  0.16777460562E+03  0.14077605820E+04  0.14299295152E+04  0.17304579761E+03 0.  0.
        -24    2    5    5    0    0 -0.22386559409E+00  0.93905417864E+02  0.44973487438E+03  0.46656230589E+03  0.81244387073E+02 0.  0.
          5    1    3    3  501    0  0.69700021295E+02 -0.30907771540E+02  0.19233707649E+02  0.78774417294E+02  0.47000000000E+01 0. -1.
        -13    1    4    4    0    0 -0.22863524623E+02 -0.72581258449E+02  0.15122044067E+03  0.16928792489E+03  0.00000000000E+00 0.  1.
         14    1    4    4    0    0  0.22556558207E+02 -0.64285575632E+02  0.40521295272E+02  0.79267956471E+02  0.00000000000E+00 0. -1.
         -5    1    5    5    0  502 -0.69169189285E+02  0.73869187756E+02  0.95802570758E+03  0.96336720934E+03  0.47000000000E+01 0.  1.
         11    1    6    6    0    0 -0.13741293162E+02 -0.10714235992E+02  0.43645685013E+02  0.46995359461E+02  0.00000000000E+00 0. -1.
        -12    1    6    6    0    0  0.13517427568E+02  0.10461965386E+03  0.40608918936E+03  0.41956694643E+03  0.00000000000E+00 0.  1.
</event>
<event>
12    1  0.8196217E-002  0.2005420E+03  0.7818608E-02  0.1149288E+00
         21   -1    0    0  503  502  0.00000000000E+00  0.00000000000E+00  0.11662628436E+03  0.11662628436E+03  0.00000000000E+00 0. -1.
         21   -1    0    0  501  503 -0.00000000000E+00 -0.00000000000E+00 -0.50199059038E+03  0.50199059038E+03  0.00000000000E+00 0. -1.
          6    2    1    2  501    0 -0.54178876279E+01  0.10200339678E+03 -0.36577868465E+03  0.41714642904E+03  0.17257766559E+03 0.  0.
         24    2    3    3    0    0 -0.37977989021E+02  0.11785295371E+03 -0.34272577284E+03  0.37396199434E+03  0.83993877730E+02 0.  0.
         -6    2    1    2    0  502  0.54178876279E+01 -0.10200339678E+03 -0.19585621366E+02  0.20147044570E+03  0.17254766722E+03 0.  0.
        -24    2    5    5    0    0  0.65596743331E+02 -0.34226244904E+02 -0.22508795013E+02  0.11066366217E+03  0.79154479948E+02 0.  0.
          5    1    3    3  501    0  0.32560101393E+02 -0.15849556926E+02 -0.23052911804E+02  0.43184434697E+02  0.47000000000E+01 0. -1.
        -11    1    4    4    0    0  0.22273231883E+02  0.72770384726E+01 -0.62274486694E+02  0.66536935911E+02  0.00000000000E+00 0.  1.
         12    1    4    4    0    0 -0.60251220904E+02  0.11057591524E+03 -0.28045128615E+03  0.30742505843E+03  0.00000000000E+00 0. -1.
         -5    1    5    5    0  502 -0.60178855703E+02 -0.67777151879E+02  0.29231736470E+01  0.90806783528E+02  0.47000000000E+01 0.  1.
         13    1    6    6    0    0 -0.25889644553E+00 -0.24983982365E+02  0.19769935783E+02  0.31860897085E+02  0.00000000000E+00 0. -1.
        -14    1    6    6    0    0  0.65855639776E+02 -0.92422625396E+01 -0.42278730797E+02  0.78802765084E+02  0.00000000000E+00 0.  1.
</event>
<event>
12    1  0.8196217E-002  0.1807794E+03  0.7818608E-02  0.1167168E+00
         21   -1    0    0  503  502  0.00000000000E+00  0.00000000000E+00  0.20230953315E+03  0.20230953315E+03  0.00000000000E+00 0.  1.
         21   -1    0    0  501  503 -0.00000000000E+00 -0.00000000000E+00 -0.18827396644E+03  0.18827396644E+03  0.00000000000E+00 0.  1.
          6    2    1    2  501    0 -0.23287509878E+02 -0.49572595981E+02  0.81193319370E+02  0.19773293010E+03  0.17177370621E+03 0.  0.
         24    2    3    3    0    0  0.12197376538E+02 -0.82162440649E+02  0.93083733634E+02  0.14788569255E+03  0.79411296090E+02 0.  0.
         -6    2    1    2    0  502  0.23287509878E+02  0.49572595981E+02 -0.67157752658E+02  0.19285056949E+03  0.17228298819E+03 0.  0.
        -24    2    5    5    0    0  0.51040805820E+02  0.62110318386E+02  0.41511829300E+01  0.11516856247E+03  0.82363280374E+02 0.  0.
          5    1    3    3  501    0 -0.35484886416E+02  0.32589844668E+02 -0.11890414264E+02  0.49847237544E+02  0.47000000000E+01 0. -1.
        -13    1    4    4    0    0  0.47279998932E+01 -0.90762642469E+02  0.50852186219E+02  0.10414488031E+03  0.00000000000E+00 0.  1.
         14    1    4    4    0    0  0.74693766450E+01  0.86002018202E+01  0.42231547414E+02  0.43740812245E+02  0.00000000000E+00 0. -1.
         -5    1    5    5    0  502 -0.27753295942E+02 -0.12537722405E+02 -0.71308935588E+02  0.77682007012E+02  0.47000000000E+01 0.  1.
         13    1    6    6    0    0  0.11738304111E+02  0.73293949976E+02  0.22754766569E+01  0.74262835123E+02  0.00000000000E+00 0. -1.
        -14    1    6    6    0    0  0.39302501709E+02 -0.11183631590E+02  0.18757062730E+01  0.40905727351E+02  0.00000000000E+00 0.  1.
</event>
<event>
12    1  0.8196217E-002  0.1805601E+03  0.7818608E-02  0.1167472E+00
         21   -1    0    0  501  502  0.00000000000E+00  0.00000000000E+00  0.29321972839E+03  0.29321972839E+03  0.00000000000E+00 0. -1.
         21   -1    0    0  502  503 -0.00000000000E+00 -0.00000000000E+00 -0.12010113081E+03  0.12010113081E+03  0.00000000000E+00 0. -1.
         -6    2    1    2    0  503 -0.79944780033E+01 -0.52489960323E+02  0.28784462805E+02  0.18284004093E+03  0.17257701949E+03 0.  0.
        -24    2    3    3    0    0  0.27454045442E+02  0.15746187841E+02  0.53689868653E+02  0.10187622820E+03  0.80588441073E+02 0.  0.
          6    2    1    2  501    0  0.79944780033E+01  0.52489960323E+02  0.14433413477E+03  0.23048081826E+03  0.17166816104E+03 0.  0.
         24    2    5    5    0    0 -0.60561777810E+01 -0.23034267324E+02  0.11171857020E+03  0.14689137550E+03  0.92351407716E+02 0.  0.
          5    1    5    5  501    0  0.14050655784E+02  0.75524227647E+02  0.32615564570E+02  0.83589442766E+02  0.47000000000E+01 0. -1.
        -11    1    6    6    0    0 -0.31338139804E+02  0.56885816156E+01  0.34220484030E+01  0.32033566496E+02  0.00000000000E+00 0.  1.
         12    1    6    6    0    0  0.25281962023E+02 -0.28722848940E+02  0.10829652180E+03  0.11485780900E+03  0.00000000000E+00 0. -1.
         -5    1    3    3    0  503 -0.35448523445E+02 -0.68236148164E+02 -0.24905405848E+02  0.80963812726E+02  0.47000000000E+01 0.  1.
         13    1    4    4    0    0  0.66329781673E+01 -0.32104276550E+02  0.11400929204E+02  0.34708243385E+02  0.00000000000E+00 0. -1.
        -14    1    4    4    0    0  0.20821067275E+02  0.47850464391E+02  0.42288939449E+02  0.67167984819E+02  0.00000000000E+00 0.  1.
</event>
<event>
12    1  0.8196217E-002  0.1738271E+03  0.7818608E-02  0.1174286E+00
         21   -1    0    0  501  502  0.00000000000E+00  0.00000000000E+00  0.93367852528E+03  0.93367852528E+03  0.00000000000E+00 0.  1.
         21   -1    0    0  502  503 -0.00000000000E+00 -0.00000000000E+00 -0.34159631988E+02  0.34159631988E+02  0.00000000000E+00 0.  1.
         -6    2    1    2    0  503  0.21350296475E+01  0.65526290702E+01  0.33245840138E+03  0.37515923270E+03  0.17369043133E+03 0.  0.
        -24    2    3    3    0    0  0.45857117388E+02 -0.22355813643E+02  0.10468554973E+03  0.14138609274E+03  0.80176712831E+02 0.  0.
          6    2    1    2  501    0 -0.21350296475E+01 -0.65526290702E+01  0.56706049191E+03  0.59267892457E+03  0.17223011014E+03 0.  0.
         24    2    5    5    0    0  0.45360312628E+02  0.40369548699E+01  0.17751945117E+03  0.20008210944E+03  0.80285988862E+02 0.  0.
          5    1    5    5  501    0 -0.47495342276E+02 -0.10589583940E+02  0.38954104074E+03  0.39259681512E+03  0.47000000000E+01 0. -1.
        -13    1    6    6    0    0  0.40955385610E+02 -0.25551540244E+02  0.15582015470E+03  0.16312616415E+03  0.00000000000E+00 0.  1.
         14    1    6    6    0    0  0.44049270180E+01  0.29588495114E+02  0.21699296477E+02  0.36955945296E+02  0.00000000000E+00 0. -1.
         -5    1    3    3    0  503 -0.43722087741E+02  0.28908442713E+02  0.22777285165E+03  0.23377313996E+03  0.47000000000E+01 0.  1.
         11    1    4    4    0    0  0.24700888042E+02 -0.37443867592E+02  0.10627317027E+03  0.11535234635E+03  0.00000000000E+00 0. -1.
        -12    1    4    4    0    0  0.21156229347E+02  0.15088053949E+02 -0.15876205402E+01  0.26033746390E+02  0.00000000000E+00 0.  1.
</event>
<event>
12    1  0.8196217E-002  0.2716776E+03  0.7818608E-02  0.1100372E+00
         21   -1    0    0  503  502  0.00000000000E+00  0.00000000000E+00  0.22271018093E+03  0.22271018093E+03  0.00000000000E+00 0. -1.
         21   -1    0    0  501  503 -0.00000000000E+00 -0.00000000000E+00 -0.49152705795E+03  0.49152705795E+03  0.00000000000E+00 0.  1.
          6    2    1    2  501    0  0.18822287810E+03 -0.93411067330E+02  0.69623639441E+02  0.28045709970E+03  0.17220700992E+03 0.  0.
         24    2    3    3    0    0  0.15143764505E+02 -0.38338145930E+02  0.17649456678E+02  0.91478762562E+02  0.79735272258E+02 0.  0.
         -6    2    1    2    0  502 -0.18822287810E+03  0.93411067330E+02 -0.33844051646E+03  0.43378013918E+03  0.17166754680E+03 0.  0.
        -24    2    5    5    0    0 -0.14766095476E+03  0.88173937507E+01 -0.26948499247E+03  0.31725411838E+03  0.78399684113E+02 0.  0.
          5    1    3    3  501    0  0.17307911359E+03 -0.55072921400E+02  0.51974182763E+02  0.18897833714E+03  0.47000000000E+01 0. -1.
        -13    1    4    4    0    0  0.34058184570E+02  0.92025887738E+01 -0.48011196003E+01  0.35604751449E+02  0.00000000000E+00 0.  1.
         14    1    4    4    0    0 -0.18914420066E+02 -0.47540734704E+02  0.22450576278E+02  0.55874011113E+02  0.00000000000E+00 0. -1.
         -5    1    5    5    0  502 -0.40561923338E+02  0.84593673580E+02 -0.68955523990E+02  0.11652602080E+03  0.47000000000E+01 0.  1.
         13    1    6    6    0    0 -0.46262591316E+02  0.17906719400E+02 -0.32440349441E+02  0.59272710642E+02  0.00000000000E+00 0. -1.
        -14    1    6    6    0    0 -0.10139836345E+03 -0.90893256498E+01 -0.23704464303E+03  0.25798140774E+03  0.00000000000E+00 0.  1.
</event>
<event>
12    1  0.8196217E-002  0.2171394E+03  0.7818608E-02  0.1136056E+00
         21   -1    0    0  503  502  0.00000000000E+00  0.00000000000E+00  0.37101446471E+03  0.37101446471E+03  0.00000000000E+00 0. -1.
         21   -1    0    0  501  503 -0.00000000000E+00 -0.00000000000E+00 -0.14573727511E+03  0.14573727511E+03  0.00000000000E+00 0.  1.
          6    2    1    2  501    0 -0.27814640638E+02  0.12982779588E+03  0.20005413807E+02  0.21794406568E+03  0.17166970719E+03 0.  0.
         24    2    3    3    0    0 -0.61365498678E+02  0.93040545722E+02 -0.36624585794E+02  0.14239270101E+03  0.80697295119E+02 0.  0.
         -6    2    1    2    0  502  0.27814640638E+02 -0.12982779588E+03  0.20527177580E+03  0.29880767414E+03  0.17181563772E+03 0.  0.
        -24    2    5    5    0    0  0.11203890704E+02 -0.72475869097E+01  0.12948859378E+03  0.15366290047E+03  0.81651309725E+02 0.  0.
          5    1    3    3  501    0  0.33550858041E+02  0.36787250159E+02  0.56629999601E+02  0.75551364675E+02  0.47000000000E+01 0. -1.
        -13    1    4    4    0    0 -0.53192408164E+02  0.97965152422E+02 -0.74794759890E+01  0.11172531466E+03  0.00000000000E+00 0.  1.
         14    1    4    4    0    0 -0.81730905145E+01 -0.49246067001E+01 -0.29145109805E+02  0.30667386346E+02  0.00000000000E+00 0. -1.
         -5    1    5    5    0  502  0.16610749934E+02 -0.12258020897E+03  0.75783182022E+02  0.14514477366E+03  0.47000000000E+01 0.  1.
         11    1    6    6    0    0  0.42717905192E+02  0.11896815731E+02  0.55894638903E+02  0.71348190634E+02  0.00000000000E+00 0. -1.
        -12    1    6    6    0    0 -0.31514014488E+02 -0.19144402641E+02  0.73593954874E+02  0.82314709837E+02  0.00000000000E+00 0.  1.
</event>
<event>
12    1  0.8196217E-002  0.1854339E+03  0.7818608E-02  0.1162658E+00
         21   -1    0    0  501  502  0.00000000000E+00  0.00000000000E+00  0.15174165895E+03  0.15174165895E+03  0.00000000000E+00 0.  1.
         21   -1    0    0  502  503 -0.00000000000E+00 -0.00000000000E+00 -0.35619141269E+03  0.35619141269E+03  0.00000000000E+00 0.  1.
         -6    2    1    2    0  503  0.49061248821E+02 -0.49609187398E+02 -0.25545569612E+03  0.31566336354E+03  0.17180706852E+03 0.  0.
        -24    2    3    3    0    0  0.65154875429E+02 -0.61816545128E+02 -0.27005200490E+03  0.29030263347E+03  0.57280804831E+02 0.  0.
          6    2    1    2  501    0 -0.49061248821E+02  0.49609187398E+02  0.51005942385E+02  0.19226970809E+03  0.17174969252E+03 0.  0.
         24    2    5    5    0    0 -0.36048286969E+02  0.97057612498E+02  0.62835864071E+02  0.14144916827E+03  0.73074361123E+02 0.  0.
          5    1    5    5  501    0 -0.13012961852E+02 -0.47448425100E+02 -0.11829921686E+02  0.50820539821E+02  0.47000000000E+01 0. -1.
        -13    1    6    6    0    0 -0.16775289002E+02  0.60343697281E+02 -0.40392896313E+01  0.62762154068E+02  0.00000000000E+00 0.  1.
         14    1    6    6    0    0 -0.19272997967E+02  0.36713915218E+02  0.66875153703E+02  0.78687014202E+02  0.00000000000E+00 0. -1.
         -5    1    3    3    0  503 -0.16093626608E+02  0.12207357729E+02  0.14596308779E+02  0.25360730078E+02  0.47000000000E+01 0.  1.
         13    1    4    4    0    0  0.33793762088E+02 -0.38229458822E+01 -0.14500110422E+03  0.14893607184E+03  0.00000000000E+00 0. -1.
        -14    1    4    4    0    0  0.31361113341E+02 -0.57993599246E+02 -0.12505090068E+03  0.14136656162E+03  0.00000000000E+00 0.  1.
</event>
<event>
12    1  0.8196217E-002  0.1845826E+03  0.7818608E-02  0.1163798E+00
         21   -1    0    0  501  502  0.00000000000E+00  0.00000000000E+00  0.21194267772E+02  0.21194267772E+02  0.00000000000E+00 0. -1.
         21   -1    0    0  502  503 -0.00000000000E+00 -0.00000000000E+00 -0.21924651337E+04  0.21924651337E+04  0.00000000000E+00 0. -1.
         -6    2    1    2    0  503  0.20194652005E+02  0.59784642226E+02 -0.16670166161E+04  0.16772045617E+04  0.17346099344E+03 0.  0.
        -24    2    3    3    0    0  0.24607525869E+02  0.10548810053E+03 -0.11490737052E+04  0.11572091497E+04  0.83841318134E+02 0.  0.
          6    2    1    2  501    0 -0.20194652005E+02 -0.59784642226E+02 -0.50425424987E+03  0.53645483974E+03  0.17184126152E+03 0.  0.
         24    2    5    5    0    0  0.30083843494E+02 -0.23695221170E+02 -0.13506867996E+03  0.16208810985E+03  0.81009295167E+02 0.  0.
          5    1    5    5  501    0 -0.50278495499E+02 -0.36089421056E+02 -0.36918556991E+03  0.37436672989E+03  0.47000000000E+01 0. -1.
        -11    1    6    6    0    0  0.13788940384E+02 -0.32095355595E+02 -0.13901397972E+03  0.14333573624E+03  0.00000000000E+00 0.  1.
         12    1    6    6    0    0  0.16294903110E+02  0.84001344252E+01  0.39452997584E+01  0.18752373607E+02  0.00000000000E+00 0. -1.
         -5    1    3    3    0  503 -0.44128738642E+01 -0.45703458303E+02 -0.51794291087E+03  0.51999541198E+03  0.47000000000E+01 0.  1.
         13    1    4    4    0    0  0.24810307979E+02 -0.15771150787E+01 -0.11792543731E+03  0.12051741550E+03  0.00000000000E+00 0. -1.
        -14    1    4    4    0    0 -0.20278211040E+00  0.10706521561E+03 -0.10311482679E+04  0.10366917342E+04  0.00000000000E+00 0.  1.
</event>
<event>
12    1  0.8196217E-002  0.4292755E+03  0.7818608E-02  0.1034338E+00
         21   -1    0    0  501  502  0.00000000000E+00  0.00000000000E+00  0.20847348019E+04  0.20847348019E+04  0.00000000000E+00 0. -1.
         21   -1    0    0  502  503 -0.00000000000E+00 -0.00000000000E+00 -0.89696900212E+02  0.89696900212E+02  0.00000000000E+00 0.  1.
         -6    2    1    2    0  503 -0.26302314319E+03  0.29228755595E+03  0.84093971552E+03  0.94417004690E+03  0.17223322298E+03 0.  0.
        -24    2    3    3    0    0 -0.18153202582E+03  0.16491517055E+03  0.38074302187E+03  0.45974501284E+03  0.79052756141E+02 0.  0.
          6    2    1    2  501    0  0.26302314319E+03 -0.29228755595E+03  0.11540981861E+04  0.12302616552E+04  0.16428002848E+03 0.  0.
         24    2    5    5    0    0  0.26500500499E+03 -0.29187396755E+03  0.10243760844E+04  0.11004386507E+04  0.78745132693E+02 0.  0.
          5    1    5    5  501    0 -0.19818618013E+01 -0.41358840482E+00  0.12972210170E+03  0.12982300451E+03  0.47000000000E+01 0. -1.
        -11    1    6    6    0    0  0.14690664493E+03 -0.17731804851E+03  0.49202198576E+03  0.54323925403E+03  0.00000000000E+00 0.  1.
         12    1    6    6    0    0  0.11809836006E+03 -0.11455591904E+03  0.53235409867E+03  0.55719939663E+03  0.00000000000E+00 0. -1.
         -5    1    3    3    0  503 -0.81491117367E+02  0.12737238541E+03  0.46019669365E+03  0.48442503406E+03  0.47000000000E+01 0.  1.
         11    1    4    4    0    0 -0.10711719555E+03  0.64595357770E+02  0.24623709926E+03  0.27618718812E+03  0.00000000000E+00 0. -1.
        -12    1    4    4    0    0 -0.74414830266E+02  0.10031981278E+03  0.13450592261E+03  0.18355782472E+03  0.00000000000E+00 0.  1.
</event>
<event>
12    1  0.8196217E-002  0.2368119E+03  0.7818608E-02  0.1122517E+00
         21   -1    0    0  503  502  0.00000000000E+00  0.00000000000E+00  0.81650390902E+03  0.81650390902E+03  0.00000000000E+00 0. -1.
         21   -1    0    0  501  503 -0.00000000000E+00 -0.00000000000E+00 -0.13045239697E+03  0.13045239697E+03  0.00000000000E+00 0. -1.
          6    2    1    2  501    0  0.83535715800E+02  0.13865297374E+03  0.15925623198E+02  0.23734677414E+03  0.17284965368E+03 0.  0.
         24    2    3    3    0    0  0.10305883736E+03  0.43702149859E+02 -0.75201859216E+01  0.13750386154E+03  0.79496898559E+02 0.  0.
         -6    2    1    2    0  502 -0.83535715800E+02 -0.13865297374E+03  0.67012588885E+03  0.70960953186E+03  0.16814909412E+03 0.  0.
        -24    2    5    5    0    0 -0.10532224520E+03 -0.12643998248E+03  0.42243789504E+03  0.46062109378E+03  0.81474979995E+02 0.  0.
          5    1    3    3  501    0 -0.19523121560E+02  0.94950823886E+02  0.23445809120E+02  0.99842912604E+02  0.47000000000E+01 0. -1.
        -11    1    4    4    0    0  0.23884614501E+02 -0.15101270142E+02  0.20577964986E+02  0.34956770628E+02  0.00000000000E+00 0.  1.
         12    1    4    4    0    0  0.79174222859E+02  0.58803420001E+02 -0.28098150908E+02  0.10254709091E+03  0.00000000000E+00 0. -1.
         -5    1    5    5    0  502  0.21786529401E+02 -0.12212991263E+02  0.24768799381E+03  0.24898843808E+03  0.47000000000E+01 0.  1.
         13    1    6    6    0    0 -0.72956218012E+02 -0.11490075749E+03  0.39113380882E+03  0.41413820183E+03  0.00000000000E+00 0. -1.
        -14    1    6    6    0    0 -0.32366027190E+02 -0.11539224996E+02  0.31304086223E+02  0.46482891948E+02  0.00000000000E+00 0.  1.
</event>
<event>
12    1  0.8196217E-002  0.2040566E+03  0.7818608E-02  0.1146383E+00
         21   -1    0    0  501  502  0.00000000000E+00  0.00000000000E+00  0.13223446745E+03  0.13223446745E+03  0.00000000000E+00 0. -1.
         21   -1    0    0  502  503 -0.00000000000E+00 -0.00000000000E+00 -0.33688934849E+03  0.33688934849E+03  0.00000000000E+00 0.  1.
         -6    2    1    2    0  503 -0.88155678246E+02  0.67337150313E+02 -0.16246909199E+03  0.26075221572E+03  0.17114262103E+03 0.  0.
        -24    2    3    3    0    0  0.70960293849E+01  0.68731821677E+02 -0.10118525414E+03  0.14738276792E+03  0.81907311511E+02 0.  0.
          6    2    1    2  501    0  0.88155678246E+02 -0.67337150313E+02 -0.42185789045E+02  0.20837160022E+03  0.17126986764E+03 0.  0.
         24    2    5    5    0    0 -0.94421299307E+01 -0.70041405857E+02 -0.30388636357E+02  0.10991395465E+03  0.78502585025E+02 0.  0.
          5    1    5    5  501    0  0.97597808176E+02  0.27042555435E+01 -0.11797152688E+02  0.98457645566E+02  0.47000000000E+01 0. -1.
        -11    1    6    6    0    0  0.17785808832E+02 -0.70014590504E+02 -0.38025529331E+02  0.81635278895E+02  0.00000000000E+00 0.  1.
         12    1    6    6    0    0 -0.27227938762E+02 -0.26815352264E-01  0.76368929738E+01  0.28278675758E+02  0.00000000000E+00 0. -1.
         -5    1    3    3    0  503 -0.95251707631E+02 -0.13946713641E+01 -0.61283837844E+02  0.11336944781E+03  0.47000000000E+01 0.  1.
         11    1    4    4    0    0 -0.92746023128E+01  0.80285746631E+02 -0.98108691251E+02  0.12711071811E+03  0.00000000000E+00 0. -1.
        -12    1    4    4    0    0  0.16370631698E+02 -0.11553924954E+02 -0.30765628909E+01  0.20272049804E+02  0.00000000000E+00 0.  1.
</event>
<event>
12    1  0.8196217E-002  0.1781164E+03  0.7818608E-02  0.1170596E+00
         21   -1    0    0  501  502  0.00000000000E+00  0.00000000000E+00  0.73173561209E+02  0.73173561209E+02  0.00000000000E+00 0. -1.
         21   -1    0    0  502  503 -0.00000000000E+00 -0.00000000000E+00 -0.42774499061E+03  0.42774499061E+03  0.00000000000E+00 0. -1.
         -6    2    1    2    0  503 -0.14123570268E+01 -0.20631753261E+02 -0.15649644349E+03  0.23710041372E+03  0.17691185762E+03 0.  0.
        -24    2    3    3    0    0  0.33492418013E+01 -0.50163913355E+01  0.18642546884E+01  0.77831103811E+02  0.77574632917E+02 0.  0.
          6    2    1    2  501    0  0.14123570268E+01  0.20631753261E+02 -0.19807498592E+03  0.26381813810E+03  0.17302787623E+03 0.  0.
         24    2    5    5    0    0  0.42718653072E+02 -0.40503693376E+02 -0.99692087173E+02  0.14075296150E+03  0.80046557875E+02 0.  0.
          5    1    5    5  501    0 -0.41306296045E+02  0.61135446636E+02 -0.98382898744E+02  0.12306517661E+03  0.47000000000E+01 0. -1.
        -13    1    6    6    0    0 -0.83920173454E+01 -0.46937214869E+02 -0.52000656116E+02  0.70552082402E+02  0.00000000000E+00 0.  1.
         14    1    6    6    0    0  0.51110670417E+02  0.64335214935E+01 -0.47691431057E+02  0.70200879094E+02  0.00000000000E+00 0. -1.
         -5    1    3    3    0  503 -0.47615988281E+01 -0.15615361925E+02 -0.15836069817E+03  0.15926930990E+03  0.47000000000E+01 0.  1.
         11    1    4    4    0    0 -0.27247719826E+02 -0.19181535155E+02 -0.18825594886E+02  0.38272347060E+02  0.00000000000E+00 0. -1.
        -12    1    4    4    0    0  0.30596961628E+02  0.14165143820E+02  0.20689849574E+02  0.39558756751E+02  0.00000000000E+00 0.  1.
</event>
<event>
12    1  0.8196217E-002  0.1748772E+03  0.7818608E-02  0.1172954E+00
         21   -1    0    0  503  502  0.00000000000E+00  0.00000000000E+00  0.87078278865E+02  0.87078278865E+02  0.00000000000E+00 0. -1.
         21   -1    0    0  501  503 -0.00000000000E+00 -0.00000000000E+00 -0.38162869464E+03  0.38162869464E+03  0.00000000000E+00 0. -1.
          6    2    1    2  501    0  0.29917808476E+02 -0.10768410158E+02 -0.21415111292E+03  0.27623335001E+03  0.17156086550E+03 0.  0.
         24    2    3    3    0    0  0.20365867300E+02  0.20664679622E+02 -0.22573251675E+03  0.24108370381E+03  0.79526005758E+02 0.  0.
         -6    2    1    2    0  502 -0.29917808476E+02  0.10768410158E+02 -0.80399302853E+02  0.19247362349E+03  0.17196224562E+03 0.  0.
        -24    2    5    5    0    0 -0.15088519858E+02 -0.37364287406E+02  0.72675608601E+01  0.91259823204E+02  0.81558472800E+02 0.  0.
          5    1    3    3  501    0  0.95519411757E+01 -0.31433089780E+02  0.11581403826E+02  0.35149646199E+02  0.47000000000E+01 0. -1.
        -11    1    4    4    0    0  0.16018735714E+02  0.36730675302E+01 -0.18760209889E+01  0.16541184169E+02  0.00000000000E+00 0.  1.
         12    1    4    4    0    0  0.43471315861E+01  0.16991612092E+02 -0.22385649576E+03  0.22454251964E+03  0.00000000000E+00 0. -1.
         -5    1    5    5    0  502 -0.14829288618E+02  0.48132697564E+02 -0.87666863713E+02  0.10121380029E+03  0.47000000000E+01 0.  1.
         13    1    6    6    0    0 -0.27364178988E+02  0.14359409795E+02  0.19722071292E+02  0.36659937771E+02  0.00000000000E+00 0. -1.
        -14    1    6    6    0    0  0.12275659130E+02 -0.51723697201E+02 -0.12454510432E+02  0.54599885433E+02  0.00000000000E+00 0.  1.
</event>
<event>
12    1  0.8196217E-002  0.1794919E+03  0.7818608E-02  0.1168823E+00
         21   -1    0    0  501  502  0.00000000000E+00  0.00000000000E+00  0.26106978567E+03  0.26106978567E+03  0.00000000000E+00 0.  1.
         21   -1    0    0  502  503 -0.00000000000E+00 -0.00000000000E+00 -0.27934398329E+03  0.27934398329E+03  0.00000000000E+00 0.  1.
         -6    2    1    2    0  503  0.32266465203E+01  0.49979414314E+02 -0.21195200846E+03  0.27635231160E+03  0.17011347134E+03 0.  0.
        -24    2    3    3    0    0  0.35828478455E+01 -0.39981601842E+02 -0.10456980068E+03  0.13618762326E+03  0.77465219501E+02 0.  0.
          6    2    1    2  501    0 -0.32266465203E+01 -0.49979414314E+02  0.19367781084E+03  0.26406145737E+03  0.17236300575E+03 0.  0.
         24    2    5    5    0    0  0.64008132934E+02 -0.18533418262E+02  0.98572743247E+02  0.14332856989E+03  0.79912230369E+02 0.  0.
          5    1    5    5  501    0 -0.67234779454E+02 -0.31445996053E+02  0.95105067589E+02  0.12073288747E+03  0.47000000000E+01 0. -1.
        -11    1    6    6    0    0  0.28186723996E+02 -0.43924696616E+02  0.25519946303E+02  0.58095938255E+02  0.00000000000E+00 0.  1.
         12    1    6    6    0    0  0.35821408938E+02  0.25391278355E+02  0.73052796943E+02  0.85232631639E+02  0.00000000000E+00 0. -1.
         -5    1    3    3    0  503 -0.35620132526E+00  0.89961016156E+02 -0.10738220778E+03  0.14016468833E+03  0.47000000000E+01 0.  1.
         13    1    4    4    0    0  0.30651915301E+02 -0.13298909789E+02 -0.89085688429E+02  0.95145471758E+02  0.00000000000E+00 0. -1.
        -14    1    4    4    0    0 -0.27069067456E+02 -0.26682692053E+02 -0.15484112247E+02  0.41042151505E+02  0.00000000000E+00 0.  1.
</event>
<event>
12    1  0.8196217E-002  0.2637239E+03  0.7818608E-02  0.1105073E+00
         21   -1    0    0  501  502  0.00000000000E+00  0.00000000000E+00  0.49098780713E+03  0.49098780713E+03  0.00000000000E+00 0. -1.
         21   -1    0    0  502  503 -0.00000000000E+00 -0.00000000000E+00 -0.52074861050E+03  0.52074861050E+03  0.00000000000E+00 0.  1.
         -6    2    1    2    0  503 -0.27427597041E+02 -0.19653982944E+03 -0.44680586006E+03  0.51883117633E+03  0.17369552471E+03 0.  0.
        -24    2    3    3    0    0 -0.68086345471E+01 -0.39181307173E+02 -0.83529919690E+02  0.12237393399E+03  0.80103682194E+02 0.  0.
          6    2    1    2  501    0  0.27427597041E+02  0.19653982944E+03  0.41704505670E+03  0.49290524131E+03  0.17218832701E+03 0.  0.
         24    2    5    5    0    0  0.52307665115E+02  0.14013050102E+03  0.17745341688E+03  0.24546378562E+03  0.79938136993E+02 0.  0.
          5    1    5    5  501    0 -0.24880068074E+02  0.56409328428E+02  0.23959163982E+03  0.24744145569E+03  0.47000000000E+01 0. -1.
        -11    1    6    6    0    0 -0.14755350644E+02  0.38654225570E+02  0.18529116936E+02  0.45334288364E+02  0.00000000000E+00 0.  1.
         12    1    6    6    0    0  0.67063015760E+02  0.10147627545E+03  0.15892429994E+03  0.20012949726E+03  0.00000000000E+00 0. -1.
         -5    1    3    3    0  503 -0.20618962494E+02 -0.15735852227E+03 -0.36327594037E+03  0.39645724234E+03  0.47000000000E+01 0.  1.
         11    1    4    4    0    0  0.90323121735E+01 -0.60181450985E+02 -0.44849993302E+02  0.75597034367E+02  0.00000000000E+00 0. -1.
        -12    1    4    4    0    0 -0.15840946721E+02  0.21000143812E+02 -0.38679926389E+02  0.46776899625E+02  0.00000000000E+00 0.  1.
</event>
<event>
12    1  0.8196217E-002  0.1890192E+03  0.7818608E-02  0.1159993E+00
         21   -1    0    0  503  502  0.00000000000E+00  0.00000000000E+00  0.21928683798E+03  0.21928683798E+03  0.00000000000E+00 0. -1.
         21   -1    0    0  501  503 -0.00000000000E+00 -0.00000000000E+00 -0.30187002660E+03  0.30187002660E+03  0.00000000000E+00 0. -1.
          6    2    1    2  501    0  0.66472466958E+01 -0.80564410078E+02 -0.21976917153E+03  0.28987366406E+03  0.17086088581E+03 0.  0.
         24    2    3    3    0    0  0.49683309061E+02 -0.10463450357E+03 -0.14955541033E+03  0.20394616947E+03  0.76226037178E+02 0.  0.
         -6    2    1    2    0  502 -0.66472466958E+01  0.80564410078E+02  0.13718598291E+03  0.23128320053E+03  0.16774121401E+03 0.  0.
        -24    2    5    5    0    0 -0.37896627320E+02  0.86629251489E+02  0.53348134726E+02  0.14148241613E+03  0.90721932402E+02 0.  0.
          5    1    3    3  501    0 -0.43036062365E+02  0.24070093494E+02 -0.70213761197E+02  0.85927494588E+02  0.47000000000E+01 0. -1.
        -13    1    4    4    0    0  0.15508231262E+02 -0.10278381689E+03 -0.10484156866E+03  0.14763730142E+03  0.00000000000E+00 0.  1.
         14    1    4    4    0    0  0.34175077799E+02 -0.18506866825E+01 -0.44713841677E+02  0.56308868052E+02  0.00000000000E+00 0. -1.
         -5    1    5    5    0  502  0.31249380624E+02 -0.60648414110E+01  0.83837848182E+02  0.89800784398E+02  0.47000000000E+01 0.  1.
         11    1    6    6    0    0 -0.14088727304E+02  0.97334308516E+02  0.22164930916E+02  0.10081539572E+03  0.00000000000E+00 0. -1.
        -12    1    6    6    0    0 -0.23807900015E+02 -0.10705057027E+02  0.31183203810E+02  0.40667020409E+02  0.00000000000E+00 0.  1.
</event>
<event>
12    1  0.8196217E-002  0.1892822E+03  0.7818608E-02  0.1159549E+00
         21   -1    0    0  503  502  0.00000000000E+00  0.00000000000E+00  0.54786493072E+03  0.54786493072E+03  0.00000000000E+00 0.  1.
         21   -1    0    0  501  503 -0.00000000000E+00 -0.00000000000E+00 -0.13914119043E+03  0.13914119043E+03  0.00000000000E+00 0.  1.
          6    2    1    2  501    0 -0.73760602429E+01 -0.80096522916E+02 -0.47321455628E+02  0.19324001724E+03  0.16921147967E+03 0.  0.
         24    2    3    3    0    0  0.18306146051E+02 -0.17228748532E+02 -0.82016698594E+02  0.11683463353E+03  0.79319909128E+02 0.  0.
         -6    2    1    2    0  502  0.73760602429E+01  0.80096522916E+02  0.45604519592E+03  0.49376610391E+03  0.17134142932E+03 0.  0.
        -24    2    5    5    0    0 -0.22690124886E+02  0.94217953672E+02  0.43823722736E+03  0.45578447626E+03  0.79345805118E+02 0.  0.
          5    1    3    3  501    0 -0.25682206294E+02 -0.62867774384E+02  0.34695242967E+02  0.76405383715E+02  0.47000000000E+01 0. -1.
        -13    1    4    4    0    0  0.19175362097E+02 -0.22316152492E+02 -0.96801819215E+02  0.10117458859E+03  0.00000000000E+00 0.  1.
         14    1    4    4    0    0 -0.86921604630E+00  0.50874039597E+01  0.14785120621E+02  0.15660044935E+02  0.00000000000E+00 0. -1.
         -5    1    5    5    0  502  0.30066185129E+02 -0.14121430756E+02  0.17807968555E+02  0.37981627649E+02  0.47000000000E+01 0.  1.
         11    1    6    6    0    0 -0.26454833442E+02  0.41676054638E+01  0.18621384459E+03  0.18812980377E+03  0.00000000000E+00 0. -1.
        -12    1    6    6    0    0  0.37647085566E+01  0.90050348208E+02  0.25202338277E+03  0.26765467249E+03  0.00000000000E+00 0.  1.
</event>
<event>
12    1  0.8196217E-002  0.1805902E+03  0.7818608E-02  0.1167592E+00
         21   -1    0    0  503  502  0.00000000000E+00  0.00000000000E+00  0.19866534032E+03  0.19866534032E+03  0.00000000000E+00 0. -1.
         21   -1    0    0  501  503 -0.00000000000E+00 -0.00000000000E+00 -0.18806364540E+03  0.18806364540E+03  0.00000000000E+00 0. -1.
          6    2    1    2  501    0  0.48726734261E+02 -0.93187915617E+01 -0.65533364514E+02  0.19211309267E+03  0.17364240266E+03 0.  0.
         24    2    3    3    0    0 -0.40764827458E+02  0.92717010189E+00 -0.31000083963E+02  0.95529673720E+02  0.80636732035E+02 0.  0.
         -6    2    1    2    0  502 -0.48726734261E+02  0.93187915617E+01  0.76135059427E+02  0.19461589305E+03  0.17209783278E+03 0.  0.
        -24    2    5    5    0    0 -0.84841177482E+02 -0.28944741770E+02  0.15836029982E+02  0.11445097589E+03  0.69371626503E+02 0.  0.
          5    1    3    3  501    0  0.89491561720E+02 -0.10245961664E+02 -0.34533280551E+02  0.96583418945E+02  0.47000000000E+01 0. -1.
        -13    1    4    4    0    0 -0.10668030761E+02 -0.16367921004E+02 -0.51593224034E+02  0.55168618657E+02  0.00000000000E+00 0.  1.
         14    1    4    4    0    0 -0.30096796698E+02  0.17295091106E+02  0.20593140071E+02  0.40361055063E+02  0.00000000000E+00 0. -1.
         -5    1    5    5    0  502  0.36114443221E+02  0.38263533331E+02  0.60299029445E+02  0.80164917166E+02  0.47000000000E+01 0.  1.
         11    1    6    6    0    0 -0.93139770982E+02 -0.20702858238E+02  0.81875544971E+00  0.95416432748E+02  0.00000000000E+00 0. -1.
        -12    1    6    6    0    0  0.82985935001E+01 -0.82418835320E+01  0.15017274532E+02  0.19034543141E+02  0.00000000000E+00 0.  1.
</event>
<event>
12    1  0.8196217E-002  0.2047052E+03  0.7818608E-02  0.1146037E+00
         21   -1    0    0  503  502  0.00000000000E+00  0.00000000000E+00  0.16443195902E+03  0.16443195902E+03  0.00000000000E+00 0. -1.
         21   -1    0    0  501  503 -0.00000000000E+00 -0.00000000000E+00 -0.28726374499E+03  0.28726374499E+03  0.00000000000E+00 0. -1.
          6    2    1    2  501    0 -0.10667375670E+03  0.22951048695E+02 -0.13861879053E+03  0.24638263221E+03  0.17199764928E+03 0.  0.
         24    2    3    3    0    0 -0.49159179930E+01  0.53834099489E+02 -0.77135852330E+02  0.12345719849E+03  0.79808919463E+02 0.  0.
         -6    2    1    2    0  502  0.10667375670E+03 -0.22951048695E+02  0.15787004564E+02  0.20531307181E+03  0.17319984682E+03 0.  0.
        -24    2    5    5    0    0  0.58097764483E+02 -0.14250445016E+02  0.77189650496E+02  0.12639727839E+03  0.80247145859E+02 0.  0.
          5    1    3    3  501    0 -0.10175783871E+03 -0.30883050794E+02 -0.61482938203E+02  0.12292543372E+03  0.47000000000E+01 0. -1.
        -11    1    4    4    0    0 -0.57275718220E+01 -0.10278826717E+02 -0.54040088567E+02  0.55306333544E+02  0.00000000000E+00 0.  1.
         12    1    4    4    0    0  0.81165382900E+00  0.64112926206E+02 -0.23095763763E+02  0.68150864943E+02  0.00000000000E+00 0. -1.
         -5    1    5    5    0  502  0.48575992219E+02 -0.87006036795E+01 -0.61402645931E+02  0.78915793425E+02  0.47000000000E+01 0.  1.
         13    1    6    6    0    0  0.26639910819E+02 -0.46233017449E+02  0.53927476740E+02  0.75864019788E+02  0.00000000000E+00 0. -1.
        -14    1    6    6    0    0  0.31457853664E+02  0.31982572433E+02  0.23262173756E+02  0.50533258597E+02  0.00000000000E+00 0.  1.
</event>
<event>
12    1  0.8196217E-002  0.1926054E+03  0.7818608E-02  0.1156147E+00
         21   -1    0    0  501  502  0.00000000000E+00  0.00000000000E+00  0.97636055568E+02  0.97636055568E+02  0.00000000000E+00 0.  1.
         21   -1    0    0  502  503 -0.00000000000E+00 -0.00000000000E+00 -0.65269438155E+03  0.65269438155E+03  0.00000000000E+00 0. -1.
         -6    2    1    2    0  503 -0.84630329160E+02 -0.14312732781E+02 -0.52013274145E+03  0.55464844017E+03  0.17242295824E+03 0.  0.
        -24    2    3    3    0    0  0.20302453300E+02 -0.17280578387E+02 -0.16651309648E+03  0.18574650164E+03  0.77873895338E+02 0.  0.
          6    2    1    2  501    0  0.84630329160E+02  0.14312732781E+02 -0.34925584537E+02  0.19568199695E+03  0.17234993629E+03 0.  0.
         24    2    5    5    0    0  0.11975490956E+03  0.23779060583E+02  0.49950355793E+00  0.14468813088E+03  0.77638415935E+02 0.  0.
          5    1    5    5  501    0 -0.35124580395E+02 -0.94663278022E+01 -0.35425088095E+02  0.50993866068E+02  0.47000000000E+01 0. -1.
        -11    1    6    6    0    0  0.30457306195E+00  0.23597487127E+02 -0.80435037619E+01  0.24932551338E+02  0.00000000000E+00 0.  1.
         12    1    6    6    0    0  0.11945033649E+03  0.18157345613E+00  0.85430073198E+01  0.11975557954E+03  0.00000000000E+00 0. -1.
         -5    1    3    3    0  503 -0.10493278246E+03  0.29678456059E+01 -0.35361964497E+03  0.36890193853E+03  0.47000000000E+01 0.  1.
         13    1    4    4    0    0 -0.18332666653E+02 -0.28907452500E+02 -0.11684627278E+03  0.12175704883E+03  0.00000000000E+00 0. -1.
        -14    1    4    4    0    0  0.38635119953E+02  0.11626874114E+02 -0.49666823693E+02  0.63989452812E+02  0.00000000000E+00 0.  1.
</event>
<event>
12    1  0.8196217E-002  0.2279522E+03  0.7818608E-02  0.1128605E+00
         21   -1    0    0  503  502  0.00000000000E+00  0.00000000000E+00  0.18928781991E+03  0.18928781991E+03  0.00000000000E+00 0. -1.
         21   -1    0    0  501  503 -0.00000000000E+00 -0.00000000000E+00 -0.28490342224E+03  0.28490342224E+03  0.00000000000E+00 0.  1.
          6    2    1    2  501    0 -0.10179505333E+03  0.10316204759E+03 -0.99784839627E+02  0.24620090105E+03  0.17220112809E+03 0.  0.
         24    2    3    3    0    0 -0.85924150098E+02  0.82540342635E+02 -0.13830600003E+03  0.19947713747E+03  0.80415862830E+02 0.  0.
         -6    2    1    2    0  502  0.10179505333E+03 -0.10316204759E+03  0.41692372924E+01  0.22799034110E+03  0.17594764037E+03 0.  0.
        -24    2    5    5    0    0  0.10031307136E+03 -0.35920045747E+02 -0.48332253614E+02  0.14253754928E+03  0.81412432969E+02 0.  0.
          5    1    3    3  501    0 -0.15870903230E+02  0.20621704957E+02  0.38521160406E+02  0.46723763587E+02  0.47000000000E+01 0. -1.
        -13    1    4    4    0    0 -0.41188757758E+02  0.85405125304E+02 -0.70344085636E+02  0.11806286282E+03  0.00000000000E+00 0.  1.
         14    1    4    4    0    0 -0.44735392339E+02 -0.28647826687E+01 -0.67961914397E+02  0.81414274645E+02  0.00000000000E+00 0. -1.
         -5    1    5    5    0  502  0.14819819624E+01 -0.67242001845E+02  0.52501490906E+02  0.85452791821E+02  0.47000000000E+01 0.  1.
         13    1    6    6    0    0  0.36082985456E+02  0.14951200992E+01  0.20246182570E+02  0.41401994302E+02  0.00000000000E+00 0. -1.
        -14    1    6    6    0    0  0.64230085909E+02 -0.37415165846E+02 -0.68578436184E+02  0.10113555498E+03  0.00000000000E+00 0.  1.
</event>
<event>
12    1  0.8196217E-002  0.2506423E+03  0.7818608E-02  0.1113111E+00
         21   -1    0    0  503  502  0.00000000000E+00  0.00000000000E+00  0.13254391231E+03  0.13254391231E+03  0.00000000000E+00 0.  1.
         21   -1    0    0  501  503 -0.00000000000E+00 -0.00000000000E+00 -0.72730741627E+03  0.72730741627E+03  0.00000000000E+00 0.  1.
          6    2    1    2  501    0 -0.17410884416E+03 -0.52821364903E+02 -0.55289694917E+03  0.60705566546E+03  0.17238781382E+03 0.  0.
         24    2    3    3    0    0 -0.20139001867E+03 -0.49171836895E+02 -0.46024625802E+03  0.51028882140E+03  0.74781375121E+02 0.  0.
         -6    2    1    2    0  502  0.17410884416E+03  0.52821364903E+02 -0.41866554791E+02  0.25279566312E+03  0.17043723970E+03 0.  0.
        -24    2    5    5    0    0  0.44301044168E+02  0.37496009278E+02 -0.67703886302E+02  0.11947428762E+03  0.79509470861E+02 0.  0.
          5    1    3    3  501    0  0.27281174505E+02 -0.36495280081E+01 -0.92650691156E+02  0.96766844057E+02  0.47000000000E+01 0. -1.
        -11    1    4    4    0    0 -0.63363637870E+02 -0.44974237552E+02 -0.11856375631E+03  0.14175682332E+03  0.00000000000E+00 0.  1.
         12    1    4    4    0    0 -0.13802638080E+03 -0.41975993431E+01 -0.34168250171E+03  0.36853199808E+03  0.00000000000E+00 0. -1.
         -5    1    5    5    0  502  0.12980780000E+03  0.15325355625E+02  0.25837331511E+02  0.13332137550E+03  0.47000000000E+01 0.  1.
         11    1    6    6    0    0  0.53740221397E+02  0.36126975797E+02 -0.15737187340E+02  0.66639544126E+02  0.00000000000E+00 0. -1.
        -12    1    6    6    0    0 -0.94391772290E+01  0.13690334813E+01 -0.51966698962E+02  0.52834743497E+02  0.00000000000E+00 0.  1.
</event>
<event>
12    1  0.8196217E-002  0.2333565E+03  0.7818608E-02  0.1124454E+00
         21   -1    0    0  503  502  0.00000000000E+00  0.00000000000E+00  0.15227468167E+03  0.15227468167E+03  0.00000000000E+00 0.  1.
         21   -1    0    0  501  503 -0.00000000000E+00 -0.00000000000E+00 -0.45921344880E+03  0.45921344880E+03  0.00000000000E+00 0.  1.
          6    2    1    2  501    0 -0.59047071981E+02  0.14405821124E+03 -0.29847782941E+03  0.37887236951E+03  0.17382730738E+03 0.  0.
         24    2    3    3    0    0 -0.96168532081E+02  0.14187884150E+03 -0.27841529232E+03  0.33635945563E+03  0.79022883792E+02 0.  0.
         -6    2    1    2    0  502  0.59047071981E+02 -0.14405821124E+03 -0.84609377197E+01  0.23261576096E+03  0.17262438948E+03 0.  0.
        -24    2    5    5    0    0  0.17016945209E+02 -0.76716254763E+02 -0.69841821181E+02  0.13216092776E+03  0.80085396112E+02 0.  0.
          5    1    3    3  501    0  0.37121460099E+02  0.21793697460E+01 -0.20062537087E+02  0.42512913882E+02  0.47000000000E+01 0. -1.
        -11    1    4    4    0    0 -0.82517522036E+02  0.93493122864E+02 -0.13215780549E+03  0.18170247940E+03  0.00000000000E+00 0.  1.
         12    1    4    4    0    0 -0.13651010044E+02  0.48385718632E+02 -0.14625748683E+03  0.15465697623E+03  0.00000000000E+00 0. -1.
         -5    1    5    5    0  502  0.42030126772E+02 -0.67341956480E+02  0.61380883461E+02  0.10045483320E+03  0.47000000000E+01 0.  1.
         13    1    6    6    0    0 -0.70545451230E+01 -0.77188760288E+02 -0.74646264235E+02  0.10761011145E+03  0.00000000000E+00 0. -1.
        -14    1    6    6    0    0  0.24071490332E+02  0.47250552548E+00  0.48044430546E+01  0.24550816307E+02  0.00000000000E+00 0.  1.
</event>
<event>
12    1  0.8196217E-002  0.2352410E+03  0.7818608E-02  0.1123818E+00
         21   -1    0    0  501  502  0.00000000000E+00  0.00000000000E+00  0.66289466860E+02  0.66289466860E+02  0.00000000000E+00 0. -1.
         21   -1    0    0  502  503 -0.00000000000E+00 -0.00000000000E+00 -0.14992798762E+04  0.14992798762E+04  0.00000000000E+00 0. -1.
         -6    2    1    2    0  503  0.61525433373E+02  0.14066748596E+03 -0.12480341723E+04  0.12700108686E+04  0.17822904000E+03 0.  0.
        -24    2    3    3    0    0  0.80833050085E+02  0.14822157965E+03 -0.79465066561E+03  0.81612922930E+03  0.78061641731E+02 0.  0.
          6    2    1    2  501    0 -0.61525433373E+02 -0.14066748596E+03 -0.18495623703E+03  0.29555847441E+03  0.17196883909E+03 0.  0.
         24    2    5    5    0    0 -0.18613068085E+02 -0.15495961119E+03 -0.10714522049E+03  0.20543422554E+03  0.79775907054E+02 0.  0.
          5    1    5    5  501    0 -0.42912365288E+02  0.14292125228E+02 -0.77811016549E+02  0.90124248871E+02  0.47000000000E+01 0. -1.
        -11    1    6    6    0    0  0.21433633990E+02 -0.73387281065E+02 -0.18876686817E+02  0.78749114238E+02  0.00000000000E+00 0.  1.
         12    1    6    6    0    0 -0.40046702075E+02 -0.81572330121E+02 -0.88268533669E+02  0.12668511130E+03  0.00000000000E+00 0. -1.
         -5    1    3    3    0  503 -0.19307616712E+02 -0.75540936967E+01 -0.45338350668E+03  0.45388163933E+03  0.47000000000E+01 0.  1.
         11    1    4    4    0    0  0.58971057899E+02  0.13866702228E+03 -0.54840122689E+03  0.56872667811E+03  0.00000000000E+00 0. -1.
        -12    1    4    4    0    0  0.21861992186E+02  0.95545573781E+01 -0.24624943872E+03  0.24740255120E+03  0.00000000000E+00 0.  1.
</event>
<event>
12    1  0.8196217E-002  0.1727972E+03  0.7818608E-02  0.1175206E+00
         21   -1    0    0  501  502  0.00000000000E+00  0.00000000000E+00  0.58013864303E+03  0.58013864303E+03  0.00000000000E+00 0.  1.
         21   -1    0    0  502  503 -0.00000000000E+00 -0.00000000000E+00 -0.59824822435E+02  0.59824822435E+02  0.00000000000E+00 0.  1.
         -6    2    1    2    0  503  0.83195213186E+01  0.12659111691E+02  0.13917265089E+03  0.22187359052E+03  0.17213191416E+03 0.  0.
        -24    2    3    3    0    0 -0.96625590758E+01  0.73113489828E+02  0.96114168084E+02  0.14536078119E+03  0.80329794959E+02 0.  0.
          6    2    1    2  501    0 -0.83195213186E+01 -0.12659111691E+02  0.38114116970E+03  0.41808987494E+03  0.17117559621E+03 0.  0.
         24    2    5    5    0    0  0.15284904510E+02 -0.65124342345E+02  0.15890592104E+03  0.18848071769E+03  0.76151696798E+02 0.  0.
          5    1    5    5  501    0 -0.23604425828E+02  0.52465230654E+02  0.22223524866E+03  0.22960915725E+03  0.47000000000E+01 0. -1.
        -13    1    6    6    0    0  0.16788932939E+02 -0.48388670139E+02  0.16327405771E+03  0.17111910936E+03  0.00000000000E+00 0.  1.
         14    1    6    6    0    0 -0.15040284291E+01 -0.16735672206E+02 -0.43681366676E+01  0.17361608325E+02  0.00000000000E+00 0. -1.
         -5    1    3    3    0  503  0.17982080394E+02 -0.60454378137E+02  0.43058482804E+02  0.76512809337E+02  0.47000000000E+01 0.  1.
         13    1    4    4    0    0  0.19152963249E+02  0.38428259913E+02  0.90178496458E+02  0.99878568195E+02  0.00000000000E+00 0. -1.
        -14    1    4    4    0    0 -0.28815522325E+02  0.34685229915E+02  0.59356716265E+01  0.45482212993E+02  0.00000000000E+00 0.  1.
</event>
<event>
12    1  0.8196217E-002  0.2306793E+03  0.7818608E-02  0.1126197E+00
         21   -1    0    0  503  502  0.00000000000E+00  0.00000000000E+00  0.14033034756E+03  0.14033034756E+03  0.00000000000E+00 0. -1.
         21   -1    0    0  501  503 -0.00000000000E+00 -0.00000000000E+00 -0.41794303595E+03  0.41794303595E+03  0.00000000000E+00 0. -1.
          6    2    1    2  501    0 -0.13911046254E+03  0.66107006231E+02 -0.22419921974E+03  0.32168029531E+03  0.17172962820E+03 0.  0.
         24    2    3    3    0    0 -0.42664390105E+02  0.91051568436E+02 -0.15177923031E+03  0.19842924688E+03  0.78908763554E+02 0.  0.
         -6    2    1    2    0  502  0.13911046254E+03 -0.66107006231E+02 -0.53413468650E+02  0.23659308821E+03  0.17146846268E+03 0.  0.
        -24    2    5    5    0    0  0.57258172810E+02 -0.30664408622E+02 -0.93143602202E+02  0.13883548712E+03  0.79879644102E+02 0.  0.
          5    1    3    3  501    0 -0.96446072431E+02 -0.24944562205E+02 -0.72419989430E+02  0.12325104843E+03  0.47000000000E+01 0. -1.
        -11    1    4    4    0    0 -0.40016141379E+02  0.10432287753E+03 -0.12041009577E+03  0.16426547267E+03  0.00000000000E+00 0.  1.
         12    1    4    4    0    0 -0.26482487265E+01 -0.13271309098E+02 -0.31369134537E+02  0.34163774208E+02  0.00000000000E+00 0. -1.
         -5    1    5    5    0  502  0.81852289726E+02 -0.35442597609E+02  0.39730133552E+02  0.97757601089E+02  0.47000000000E+01 0.  1.
         13    1    6    6    0    0  0.53182144834E+02 -0.46291189435E+02 -0.35436283676E+02  0.78910993842E+02  0.00000000000E+00 0. -1.
        -14    1    6    6    0    0  0.40760279763E+01  0.15626780813E+02 -0.57707318526E+02  0.59924493274E+02  0.00000000000E+00 0.  1.
</event>
<event>
12    1  0.8196217E-002  0.1916976E+03  0.7818608E-02  0.1156999E+00
         21   -1    0    0  503  502  0.00000000000E+00  0.00000000000E+00  0.50948550201E+03  0.50948550201E+03  0.00000000000E+00 0.  1.
         21   -1    0    0  501  503 -0.00000000000E+00 -0.00000000000E+00 -0.12317995285E+03  0.12317995285E+03  0.00000000000E+00 0.  1.
          6    2    1    2  501    0  0.19006552593E+02  0.82068471318E+02 -0.10776521084E+02  0.19173218089E+03  0.17189709932E+03 0.  0.
         24    2    3    3    0    0  0.29054939198E+02  0.18258921153E+02 -0.63737210278E+02  0.10806884743E+03  0.80242545557E+02 0.  0.
         -6    2    1    2    0  502 -0.19006552593E+02 -0.82068471318E+02  0.39708207025E+03  0.44093327397E+03  0.17219610493E+03 0.  0.
        -24    2    5    5    0    0  0.38062910087E+02 -0.21954219459E+02  0.22568802251E+03  0.25048995839E+03  0.99394984154E+02 0.  0.
          5    1    3    3  501    0 -0.10048386605E+02  0.63809550165E+02  0.52960689194E+02  0.83663333460E+02  0.47000000000E+01 0. -1.
        -13    1    4    4    0    0  0.46937179938E+01  0.48175741751E+02 -0.39798237519E+02  0.62664445991E+02  0.00000000000E+00 0.  1.
         14    1    4    4    0    0  0.24361221204E+02 -0.29916820598E+02 -0.23938972759E+02  0.45404401439E+02  0.00000000000E+00 0. -1.
         -5    1    5    5    0  502 -0.57069462681E+02 -0.60114251859E+02  0.17139404774E+03  0.19044331558E+03  0.47000000000E+01 0.  1.
         13    1    6    6    0    0  0.41761001942E+02  0.14686778268E+02  0.20178913841E+03  0.20658784843E+03  0.00000000000E+00 0. -1.
        -14    1    6    6    0    0 -0.36980918545E+01 -0.36640997727E+02  0.23898884098E+02  0.43902109960E+02  0.00000000000E+00 0.  1.
</event>
<event>
12    1  0.8196217E-002  0.1907527E+03  0.7818608E-02  0.1158146E+00
         21   -1    0    0  501  502  0.00000000000E+00  0.00000000000E+00  0.73064678770E+02  0.73064678770E+02  0.00000000000E+00 0. -1.
         21   -1    0    0  502  503 -0.00000000000E+00 -0.00000000000E+00 -0.80975117320E+03  0.80975117320E+03  0.00000000000E+00 0.  1.
         -6    2    1    2    0  503  0.58662092055E+01 -0.80141432220E+02 -0.64310530813E+03  0.67034463692E+03  0.17123210370E+03 0.  0.
        -24    2    3    3    0    0  0.67525115890E+02 -0.68145583732E+02 -0.46208089105E+03  0.47867395389E+03  0.80040879564E+02 0.  0.
          6    2    1    2  501    0 -0.58662092055E+01  0.80141432220E+02 -0.93581186304E+02  0.21247121505E+03  0.17300149487E+03 0.  0.
         24    2    5    5    0    0 -0.62617584409E+02  0.47846738503E+02 -0.94106207411E+02  0.14700342544E+03  0.80893488953E+02 0.  0.
          5    1    5    5  501    0  0.56751375203E+02  0.32294693716E+02  0.52502110668E+00  0.65467789613E+02  0.47000000000E+01 0. -1.
        -11    1    6    6    0    0 -0.10523323984E+02 -0.13937105736E+02 -0.54059517118E+02  0.56810339332E+02  0.00000000000E+00 0.  1.
         12    1    6    6    0    0 -0.52094260424E+02  0.61783844239E+02 -0.40046690293E+02  0.90193086107E+02  0.00000000000E+00 0. -1.
         -5    1    3    3    0  503 -0.61658906685E+02 -0.11995848488E+02 -0.18102441708E+03  0.19167068303E+03  0.47000000000E+01 0.  1.
         13    1    4    4    0    0  0.75379198579E+02 -0.52392046638E+02 -0.25817454977E+03  0.27400921204E+03  0.00000000000E+00 0. -1.
        -14    1    4    4    0    0 -0.78540826889E+01 -0.15753537094E+02 -0.20390634128E+03  0.20466474186E+03  0.00000000000E+00 0.  1.
</event>
<event>
12    1  0.8196217E-002  0.2039002E+03  0.7818608E-02  0.1147475E+00
         21   -1    0    0  503  502  0.00000000000E+00  0.00000000000E+00  0.11427156949E+03  0.11427156949E+03  0.00000000000E+00 0. -1.
         21   -1    0    0  501  503 -0.00000000000E+00 -0.00000000000E+00 -0.40674617377E+03  0.40674617377E+03  0.00000000000E+00 0. -1.
          6    2    1    2  501    0 -0.86609979697E+02  0.45276338456E+02 -0.23725877758E+03  0.30977357904E+03  0.17354165876E+03 0.  0.
         24    2    3    3    0    0 -0.73903879892E+01  0.62312498092E+02 -0.69341333567E+02  0.12326799615E+03  0.80307615330E+02 0.  0.
         -6    2    1    2    0  502  0.86609979697E+02 -0.45276338456E+02 -0.55215826698E+02  0.21124416422E+03  0.17895271440E+03 0.  0.
        -24    2    5    5    0    0  0.46909672907E+02 -0.81391379719E+02  0.11853155460E+02  0.12521655857E+03  0.81936653226E+02 0.  0.
          5    1    3    3  501    0 -0.79219591708E+02 -0.17036159636E+02 -0.16791744402E+03  0.18650558289E+03  0.47000000000E+01 0. -1.
        -13    1    4    4    0    0 -0.12250512396E+02  0.45662602056E+02  0.44305941319E+01  0.47484507419E+02  0.00000000000E+00 0.  1.
         14    1    4    4    0    0  0.48601244068E+01  0.16649896036E+02 -0.73771927699E+02  0.75783488728E+02  0.00000000000E+00 0. -1.
         -5    1    5    5    0  502  0.39700306790E+02  0.36115041263E+02 -0.67068982158E+02  0.86027605641E+02  0.47000000000E+01 0.  1.
         11    1    6    6    0    0  0.37230211961E+02  0.78795149513E+00  0.19645748290E+02  0.42103028111E+02  0.00000000000E+00 0. -1.
        -12    1    6    6    0    0  0.96794609457E+01 -0.82179331214E+02 -0.77925928296E+01  0.83113530463E+02  0.00000000000E+00 0.  1.
</event>
<event>
12    1  0.8196217E-002  0.2498221E+03  0.7818608E-02  0.1113522E+00
         21   -1    0    0  503  502  0.00000000000E+00  0.00000000000E+00  0.74597533962E+03  0.74597533962E+03  0.00000000000E+00 0. -1.
         21   -1    0    0  501  503 -0.00000000000E+00 -0.00000000000E+00 -0.83471400190E+02  0.83471400190E+02  0.00000000000E+00 0. -1.
          6    2    1    2  501    0 -0.14480063025E+03  0.10886489845E+03  0.32391106101E+03  0.40905925279E+03  0.17202415009E+03 0.  0.
         24    2    3    3    0    0 -0.11056217287E+03  0.71597063291E+01  0.13614447844E+03  0.19273866293E+03  0.79609155965E+02 0.  0.
         -6    2    1    2    0  502  0.14480063025E+03 -0.10886489845E+03  0.33859287842E+03  0.42038748702E+03  0.17106055445E+03 0.  0.
        -24    2    5    5    0    0  0.16526200427E+03 -0.10953531911E+03  0.33648165191E+03  0.39927671800E+03  0.83020956858E+02 0.  0.
          5    1    3    3  501    0 -0.34238457377E+02  0.10170519212E+03  0.18776658257E+03  0.21632058986E+03  0.47000000000E+01 0. -1.
        -13    1    4    4    0    0 -0.53076209241E+02 -0.10982203808E+02  0.13159834935E+02  0.55775209935E+02  0.00000000000E+00 0.  1.
         14    1    4    4    0    0 -0.57485963628E+02  0.18141910137E+02  0.12298464350E+03  0.13696345299E+03  0.00000000000E+00 0. -1.
         -5    1    5    5    0  502 -0.20461374029E+02  0.67042065868E+00  0.21112265088E+01  0.21110769014E+02  0.47000000000E+01 0.  1.
         11    1    6    6    0    0  0.30615672796E+02  0.10770441005E+02  0.34018752431E+02  0.47016989878E+02  0.00000000000E+00 0. -1.
        -12    1    6    6    0    0  0.13464633148E+03 -0.12030576012E+03  0.30246289948E+03  0.35225972813E+03  0.00000000000E+00 0.  1.
</event>
<event>
12    1  0.8196217E-002  0.2052679E+03  0.7818608E-02  0.1145803E+00
         21   -1    0    0  503  502  0.00000000000E+00  0.00000000000E+00  0.89609317374E+03  0.89609317374E+03  0.00000000000E+00 0.  1.
         21   -1    0    0  501  503 -0.00000000000E+00 -0.00000000000E+00 -0.52045381369E+02  0.52045381369E+02  0.00000000000E+00 0.  1.
          6    2    1    2  501    0  0.20174598486E+02 -0.10965516023E+03  0.26975005704E+03  0.33896905617E+03  0.17234749542E+03 0.  0.
         24    2    3    3    0    0  0.11186325252E+02 -0.10321515831E+03  0.90497371241E+02  0.15931417022E+03  0.80079509565E+02 0.  0.
         -6    2    1    2    0  502 -0.20174598486E+02  0.10965516023E+03  0.57429773533E+03  0.60916949894E+03  0.16981849441E+03 0.  0.
        -24    2    5    5    0    0  0.17486923770E+02 -0.39647645642E+01  0.18744079452E+03  0.20419016586E+03  0.78981393525E+02 0.  0.
          5    1    3    3  501    0  0.89882732344E+01 -0.64400019172E+01  0.17925268580E+03  0.17965488596E+03  0.47000000000E+01 0. -1.
        -13    1    4    4    0    0  0.10893499528E+02 -0.39345806456E+01 -0.11957815998E+02  0.16647480899E+02  0.00000000000E+00 0.  1.
         14    1    4    4    0    0  0.29282572360E+00 -0.99280577665E+02  0.10245518724E+03  0.14266668932E+03  0.00000000000E+00 0. -1.
         -5    1    5    5    0  502 -0.37661522256E+02  0.11361992479E+03  0.38685694081E+03  0.40497933308E+03  0.47000000000E+01 0.  1.
         13    1    6    6    0    0 -0.15182164082E+02 -0.26792792825E+02  0.34970466362E+02  0.46597053245E+02  0.00000000000E+00 0. -1.
        -14    1    6    6    0    0  0.32669087852E+02  0.22828028261E+02  0.15247032816E+03  0.15759311262E+03  0.00000000000E+00 0.  1.
</event>
<event>
12    1  0.8196217E-002  0.2935478E+03  0.7818608E-02  0.1088740E+00
         21   -1    0    0  501  502  0.00000000000E+00  0.00000000000E+00  0.11262255913E+03  0.11262255913E+03  0.00000000000E+00 0.  1.
         21   -1    0    0  502  503 -0.00000000000E+00 -0.00000000000E+00 -0.12073082033E+04  0.12073082033E+04  0.00000000000E+00 0. -1.
         -6    2    1    2    0  503  0.16600046039E+03  0.17038543236E+03 -0.94778178833E+03  0.99167618606E+03  0.16894967086E+03 0.  0.
        -24    2    3    3    0    0  0.14992251993E+03  0.99260645588E+02 -0.82875542650E+03  0.85201015484E+03  0.82196771631E+02 0.  0.
          6    2    1    2  501    0 -0.16600046039E+03 -0.17038543236E+03 -0.14690385587E+03  0.32825457641E+03  0.17199702222E+03 0.  0.
         24    2    5    5    0    0 -0.12607862770E+03 -0.85110828558E+02 -0.15989213706E+03  0.23309000197E+03  0.75005200008E+02 0.  0.
          5    1    5    5  501    0 -0.39921832697E+02 -0.85274603799E+02  0.12988281186E+02  0.95164574433E+02  0.47000000000E+01 0. -1.
        -13    1    6    6    0    0 -0.12665858738E+03 -0.52713710411E+02 -0.12827544711E+03  0.18781832539E+03  0.00000000000E+00 0.  1.
         14    1    6    6    0    0  0.57995967969E+00 -0.32397118147E+02 -0.31616689950E+02  0.45271676585E+02  0.00000000000E+00 0. -1.
         -5    1    3    3    0  503  0.16077940466E+02  0.71124786768E+02 -0.11902636184E+03  0.13966603121E+03  0.47000000000E+01 0.  1.
         13    1    4    4    0    0  0.93809585148E+02  0.10428533706E+03 -0.54881010384E+03  0.56645229266E+03  0.00000000000E+00 0. -1.
        -14    1    4    4    0    0  0.56112934780E+02 -0.50246914703E+01 -0.27994532266E+03  0.28555786218E+03  0.00000000000E+00 0.  1.
</event>
<event>
12    1  0.8196217E-002  0.2077629E+03  0.7818608E-02  0.1143470E+00
         21   -1    0    0  503  502  0.00000000000E+00  0.00000000000E+00  0.17855767302E+04  0.17855767302E+04  0.00000000000E+00 0.  1.
         21   -1    0    0  501  503 -0.00000000000E+00 -0.00000000000E+00 -0.24248256372E+02  0.24248256372E+02  0.00000000000E+00 0.  1.
          6    2    1    2  501    0  0.83508775082E+02  0.80385841235E+02  0.80988001951E+03  0.83595662340E+03  0.17170390566E+03 0.  0.
         24    2    3    3    0    0  0.61155843496E+02  0.11975346583E+03  0.69878409969E+03  0.71589890055E+03  0.78301264683E+02 0.  0.
         -6    2    1    2    0  502 -0.83508775082E+02 -0.80385841235E+02  0.95144845429E+03  0.97386836315E+03  0.17242339916E+03 0.  0.
        -24    2    5    5    0    0 -0.24582780114E+02  0.14442861392E+02  0.55362311255E+03  0.56064705651E+03  0.83747608339E+02 0.  0.
          5    1    3    3  501    0  0.22352931586E+02 -0.39367624592E+02  0.11109591982E+03  0.12005772285E+03  0.47000000000E+01 0. -1.
        -11    1    4    4    0    0  0.13713064991E+02  0.99061280268E+01  0.18087326592E+02  0.24765518512E+02  0.00000000000E+00 0.  1.
         12    1    4    4    0    0  0.47442778505E+02  0.10984733780E+03  0.68069677310E+03  0.69113338204E+03  0.00000000000E+00 0. -1.
         -5    1    5    5    0  502 -0.58925994968E+02 -0.94828702626E+02  0.39782534175E+03  0.41322130664E+03  0.47000000000E+01 0.  1.
         13    1    6    6    0    0  0.11380470831E+02  0.33642379026E+02  0.12091812144E+03  0.12602585796E+03  0.00000000000E+00 0. -1.
        -14    1    6    6    0    0 -0.35963250945E+02 -0.19199517635E+02  0.43270499111E+03  0.43462119855E+03  0.00000000000E+00 0.  1.
</event>
<event>
12    1  0.8196217E-002  0.1828769E+03  0.7818608E-02  0.1165377E+00
         21   -1    0    0  501  502  0.00000000000E+00  0.00000000000E+00  0.13178019875E+04  0.13178019875E+04  0.00000000000E+00 0.  1.
         21   -1    0    0  502  503 -0.00000000000E+00 -0.00000000000E+00 -0.37517038197E+02  0.37517038197E+02  0.00000000000E+00 0.  1.
         -6    2    1    2    0  503  0.57973126958E+02  0.87864378383E+01  0.25328400783E+03  0.31240479791E+03  0.17322206613E+03 0.  0.
        -24    2    3    3    0    0  0.45796775860E+02  0.65124956188E+02  0.19790685938E+03  0.23233601031E+03  0.92055918341E+02 0.  0.
          6    2    1    2  501    0 -0.57973126958E+02 -0.87864378383E+01  0.10270009415E+04  0.10429142278E+04  0.17175874883E+03 0.  0.
         24    2    5    5    0    0  0.30068223550E+02 -0.20621972089E+02  0.39920603887E+03  0.40884807272E+03  0.80386076510E+02 0.  0.
          5    1    5    5  501    0 -0.88041350509E+02  0.11835534250E+02  0.62779490258E+03  0.63406615505E+03  0.47000000000E+01 0. -1.
        -11    1    6    6    0    0 -0.20026511459E+02  0.14651748095E+02  0.78028443395E+02  0.81879013564E+02  0.00000000000E+00 0.  1.
         12    1    6    6    0    0  0.50094735009E+02 -0.35273720183E+02  0.32117759547E+03  0.32696905916E+03  0.00000000000E+00 0. -1.
         -5    1    3    3    0  503  0.12176351098E+02 -0.56338518350E+02  0.55377148452E+02  0.80068787593E+02  0.47000000000E+01 0.  1.
         13    1    4    4    0    0 -0.23896160063E+01  0.71156514916E+02  0.96715089689E+02  0.12009483108E+03  0.00000000000E+00 0. -1.
        -14    1    4    4    0    0  0.48186391867E+02 -0.60315587279E+01  0.10119176969E+03  0.11224117923E+03  0.00000000000E+00 0.  1.
</event>
<event>
12    1  0.8196217E-002  0.2055052E+03  0.7818608E-02  0.1145213E+00
         21   -1    0    0  501  502  0.00000000000E+00  0.00000000000E+00  0.12504411041E+03  0.12504411041E+03  0.00000000000E+00 0.  1.
         21   -1    0    0  502  503 -0.00000000000E+00 -0.00000000000E+00 -0.43532308130E+03  0.43532308130E+03  0.00000000000E+00 0.  1.
         -6    2    1    2    0  503  0.78589443787E+02 -0.80306944053E+02 -0.28794537357E+03  0.35365202261E+03  0.17184792406E+03 0.  0.
        -24    2    3    3    0    0  0.10546172371E+02 -0.15078104461E+02 -0.46311683797E+02  0.94241887247E+02  0.79988688388E+02 0.  0.
          6    2    1    2  501    0 -0.78589443787E+02  0.80306944053E+02 -0.22333597317E+02  0.20671516910E+03  0.17206645701E+03 0.  0.
         24    2    5    5    0    0  0.22694249012E+02  0.54541589259E+02 -0.15689393672E+01  0.10005917558E+03  0.80743811831E+02 0.  0.
          5    1    5    5  501    0 -0.10128369280E+03  0.25765354794E+02 -0.20764657949E+02  0.10665599352E+03  0.47000000000E+01 0. -1.
        -11    1    6    6    0    0 -0.30385212434E+02  0.22673222881E+02 -0.38395662392E+01  0.38106147003E+02  0.00000000000E+00 0.  1.
         12    1    6    6    0    0  0.53079461446E+02  0.31868366378E+02  0.22706268720E+01  0.61953028573E+02  0.00000000000E+00 0. -1.
         -5    1    3    3    0  503  0.68043271416E+02 -0.65228839592E+02 -0.24163368977E+03  0.25941013537E+03  0.47000000000E+01 0.  1.
         13    1    4    4    0    0 -0.16000371360E+02  0.23313518900E+02  0.30004048671E+00  0.28277589562E+02  0.00000000000E+00 0. -1.
        -14    1    4    4    0    0  0.26546543731E+02 -0.38391623361E+02 -0.46611724283E+02  0.65964297685E+02  0.00000000000E+00 0.  1.
</event>
<event>
12    1  0.8196217E-002  0.2689408E+03  0.7818608E-02  0.1102097E+00
         21   -1    0    0  501  502  0.00000000000E+00  0.00000000000E+00  0.10625802030E+03  0.10625802030E+03  0.00000000000E+00 0. -1.
         21   -1    0    0  502  503 -0.00000000000E+00 -0.00000000000E+00 -0.71564090105E+03  0.71564090105E+03  0.00000000000E+00 0. -1.
         -6    2    1    2    0  503  0.16864896893E+03 -0.11592560996E+03 -0.39938240731E+03  0.48068144689E+03  0.17224147105E+03 0.  0.
        -24    2    3    3    0    0  0.14650111233E+03 -0.37710333962E+02 -0.18476359772E+03  0.25113519800E+03  0.77760243246E+02 0.  0.
          6    2    1    2  501    0 -0.16864896893E+03  0.11592560996E+03 -0.21000047345E+03  0.34121747445E+03  0.17449339317E+03 0.  0.
         24    2    5    5    0    0 -0.37253921224E+02  0.10434982477E+03 -0.10031250507E+03  0.16960104817E+03  0.80157197366E+02 0.  0.
          5    1    5    5  501    0 -0.13139504771E+03  0.11575785187E+02 -0.10968796837E+03  0.17161642628E+03  0.47000000000E+01 0. -1.
        -11    1    6    6    0    0  0.73645907322E+01  0.30081923152E+02  0.69272264958E+01  0.31735559930E+02  0.00000000000E+00 0.  1.
         12    1    6    6    0    0 -0.44618511957E+02  0.74267901618E+02 -0.10723973157E+03  0.13786548824E+03  0.00000000000E+00 0. -1.
         -5    1    3    3    0  503  0.22147856604E+02 -0.78215275995E+02 -0.21461880959E+03  0.22954624889E+03  0.47000000000E+01 0.  1.
         11    1    4    4    0    0  0.81666327721E+02 -0.35044349253E+02 -0.15731143222E+03  0.18067756420E+03  0.00000000000E+00 0. -1.
        -12    1    4    4    0    0  0.64834784610E+02 -0.26659847084E+01 -0.27452165500E+02  0.70457633799E+02  0.00000000000E+00 0.  1.
</event>
<event>
12    1  0.8196217E-002  0.2217200E+03  0.7818608E-02  0.1133335E+00
         21   -1    0    0  501  502  0.00000000000E+00  0.00000000000E+00  0.16509452199E+03  0.16509452199E+03  0.00000000000E+00 0. -1.
         21   -1    0    0  502  503 -0.00000000000E+00 -0.00000000000E+00 -0.34212631638E+03  0.34212631638E+03  0.00000000000E+00 0.  1.
         -6    2    1    2    0  503  0.72621551203E+02 -0.11914372832E+03 -0.18438743148E+03  0.28537887534E+03  0.16725208491E+03 0.  0.
        -24    2    3    3    0    0  0.13822532510E+02 -0.12778400648E+03 -0.97266235510E+02  0.17981291590E+03  0.79700372893E+02 0.  0.
          6    2    1    2  501    0 -0.72621551203E+02  0.11914372832E+03  0.73556370893E+01  0.22184196303E+03  0.17230970218E+03 0.  0.
         24    2    5    5    0    0 -0.24669441311E+02  0.11381153234E+03 -0.49548392131E+02  0.14708906543E+03  0.74956679352E+02 0.  0.
          5    1    5    5  501    0 -0.47952109892E+02  0.53321959842E+01  0.56904029220E+02  0.74752897594E+02  0.47000000000E+01 0. -1.
        -13    1    6    6    0    0 -0.31748963516E+02  0.54725679894E+02  0.86446928595E+01  0.63856303047E+02  0.00000000000E+00 0.  1.
         14    1    6    6    0    0  0.70795222053E+01  0.59085852444E+02 -0.58193084991E+02  0.83232762386E+02  0.00000000000E+00 0. -1.
         -5    1    3    3    0  503  0.58799018693E+02  0.86402781545E+01 -0.87121195967E+02  0.10556595944E+03  0.47000000000E+01 0.  1.
         11    1    4    4    0    0 -0.17002996516E+02 -0.62711505457E+02 -0.85225657222E+01  0.65532197687E+02  0.00000000000E+00 0. -1.
        -12    1    4    4    0    0  0.30825529026E+02 -0.65072501019E+02 -0.88743669787E+02  0.11428071822E+03  0.00000000000E+00 0.  1.
</event>
<event>
12    1  0.8196217E-002  0.2383158E+03  0.7818608E-02  0.1121245E+00
         21   -1    0    0  501  502  0.00000000000E+00  0.00000000000E+00  0.20266864503E+03  0.20266864503E+03  0.00000000000E+00 0. -1.
         21   -1    0    0  502  503 -0.00000000000E+00 -0.00000000000E+00 -0.29037816721E+03  0.29037816721E+03  0.00000000000E+00 0.  1.
         -6    2    1    2    0  503 -0.12424122786E+03 -0.10324258339E+03  0.69226281784E+01  0.23841634207E+03  0.17521277255E+03 0.  0.
        -24    2    3    3    0    0 -0.46381073376E+02 -0.12364519414E+03 -0.14664426494E+02  0.15495041423E+03  0.79719805976E+02 0.  0.
          6    2    1    2  501    0  0.12424122786E+03  0.10324258339E+03 -0.94632150362E+02  0.25463047016E+03  0.17258771314E+03 0.  0.
         24    2    5    5    0    0  0.92315323078E+02 -0.31999983987E+01 -0.69410529901E+02  0.14058001312E+03  0.80078458788E+02 0.  0.
          5    1    5    5  501    0  0.31925904780E+02  0.10644258179E+03 -0.25221620461E+02  0.11405045704E+03  0.47000000000E+01 0. -1.
        -11    1    6    6    0    0  0.83976227296E+02  0.20122130912E+02 -0.25286204492E+02  0.89979436767E+02  0.00000000000E+00 0.  1.
         12    1    6    6    0    0  0.83390957814E+01 -0.23322129310E+02 -0.44124325409E+02  0.50600576349E+02  0.00000000000E+00 0. -1.
         -5    1    3    3    0  503 -0.77860154481E+02  0.20402610751E+02  0.21587054672E+02  0.83465927843E+02  0.47000000000E+01 0.  1.
         11    1    4    4    0    0 -0.46335027023E+02 -0.25607155740E+02  0.99558766397E+01  0.53868178305E+02  0.00000000000E+00 0. -1.
        -12    1    4    4    0    0 -0.46046353416E-01 -0.98038038399E+02 -0.24620303133E+02  0.10108223593E+03  0.00000000000E+00 0.  1.
</event>
<event>
12    1  0.8196217E-002  0.1753375E+03  0.7818608E-02  0.1173338E+00
         21   -1    0    0  503  502  0.00000000000E+00  0.00000000000E+00  0.87634348574E+03  0.87634348574E+03  0.00000000000E+00 0.  1.
         21   -1    0    0  501  503 -0.00000000000E+00 -0.00000000000E+00 -0.69436926939E+02  0.69436926939E+02  0.00000000000E+00 0.  1.
          6    2    1    2  501    0  0.17093490240E+02  0.79313208985E+00  0.69401328829E+02  0.18857306235E+03  0.17450054136E+03 0.  0.
         24    2    3    3    0    0  0.63936031608E+02  0.41407147180E+02  0.28406219331E+02  0.11409883254E+03  0.80057868538E+02 0.  0.
         -6    2    1    2    0  502 -0.17093490240E+02 -0.79313208985E+00  0.73750522997E+03  0.75720735033E+03  0.17075183948E+03 0.  0.
        -24    2    5    5    0    0  0.62818046901E+01 -0.91420195495E+01  0.16493928959E+03  0.18408436664E+03  0.80987944795E+02 0.  0.
          5    1    3    3  501    0 -0.46842541368E+02 -0.40614015090E+02  0.40995109498E+02  0.74474229813E+02  0.47000000000E+01 0. -1.
        -11    1    4    4    0    0  0.26155622851E+02  0.47160784676E+02 -0.15284878955E+02  0.56052508799E+02  0.00000000000E+00 0.  1.
         12    1    4    4    0    0  0.37780408757E+02 -0.57536374964E+01  0.43691098287E+02  0.58046323741E+02  0.00000000000E+00 0. -1.
         -5    1    5    5    0  502 -0.23375294930E+02  0.83488874596E+01  0.57256594039E+03  0.57312298368E+03  0.47000000000E+01 0.  1.
         13    1    6    6    0    0  0.17784266015E+02 -0.30999058474E+02  0.15211054776E+03  0.15625248953E+03  0.00000000000E+00 0. -1.
        -14    1    6    6    0    0 -0.11502461324E+02  0.21857038924E+02  0.12828741829E+02  0.27831877119E+02  0.00000000000E+00 0.  1.
</event>
<event>
12    1  0.8196217E-002  0.2323878E+03  0.7818608E-02  0.1125476E+00
         21   -1    0    0  503  502  0.00000000000E+00  0.00000000000E+00  0.36797502572E+03  0.36797502572E+03  0.00000000000E+00 0.  1.
         21   -1    0    0  501  503 -0.00000000000E+00 -0.00000000000E+00 -0.20029650402E+03  0.20029650402E+03  0.00000000000E+00 0. -1.
          6    2    1    2  501    0  0.87958000736E+02  0.12532766856E+03 -0.65155522213E+02  0.24134896402E+03  0.17481546258E+03 0.  0.
         24    2    3    3    0    0  0.82319365472E+02  0.17823806924E+02 -0.60284103188E+02  0.13348471972E+03  0.84201135838E+02 0.  0.
         -6    2    1    2    0  502 -0.87958000736E+02 -0.12532766856E+03  0.23283404391E+03  0.32692256572E+03  0.17094747022E+03 0.  0.
        -24    2    5    5    0    0 -0.14917018825E+02 -0.48341079775E+02  0.31594841156E+02  0.99367678682E+02  0.79475305187E+02 0.  0.
          5    1    3    3  501    0  0.56386352639E+01  0.10750386164E+03 -0.48714190253E+01  0.10786424430E+03  0.47000000000E+01 0. -1.
        -13    1    4    4    0    0  0.90470020427E+02  0.51682465570E+00 -0.25847670471E+02  0.94091411790E+02  0.00000000000E+00 0.  1.
         14    1    4    4    0    0 -0.81506549547E+01  0.17306982268E+02 -0.34436432717E+02  0.39393307930E+02  0.00000000000E+00 0. -1.
         -5    1    5    5    0  502 -0.73040981911E+02 -0.76986588790E+02  0.20123920275E+03  0.22755488704E+03  0.47000000000E+01 0.  1.
         13    1    6    6    0    0 -0.22793750989E+02 -0.32042271621E+02  0.56341471741E+02  0.68706795099E+02  0.00000000000E+00 0. -1.
        -14    1    6    6    0    0  0.78767321635E+01 -0.16298808154E+02 -0.24746630585E+02  0.30660883584E+02  0.00000000000E+00 0.  1.
</event>
<event>
12    1  0.8196217E-002  0.1846756E+03  0.7818608E-02  0.1163411E+00
         21   -1    0    0  503  502  0.00000000000E+00  0.00000000000E+00  0.28345443527E+03  0.28345443527E+03  0.00000000000E+00 0. -1.
         21   -1    0    0  501  503 -0.00000000000E+00 -0.00000000000E+00 -0.23418896786E+03  0.23418896786E+03  0.00000000000E+00 0. -1.
          6    2    1    2  501    0  0.41380523084E+02 -0.51498447072E+02 -0.15596281570E+03  0.24172190748E+03  0.17245475619E+03 0.  0.
         24    2    3    3    0    0  0.68454677259E+01 -0.41106083343E+02 -0.10955656226E+02  0.92223286845E+02  0.81538565826E+02 0.  0.
         -6    2    1    2    0  502 -0.41380523084E+02  0.51498447072E+02  0.20522828311E+03  0.27592149566E+03  0.17219055094E+03 0.  0.
        -24    2    5    5    0    0 -0.30170381716E+02  0.87478397977E+02  0.82564266657E+02  0.14751287028E+03  0.79877823740E+02 0.  0.
          5    1    3    3  501    0  0.34535055358E+02 -0.10392363729E+02 -0.14500715948E+03  0.14949862063E+03  0.47000000000E+01 0. -1.
        -11    1    4    4    0    0 -0.22441982192E+01 -0.62013368749E+02 -0.23316789629E+02  0.66290021933E+02  0.00000000000E+00 0.  1.
         12    1    4    4    0    0  0.90896659452E+01  0.20907285405E+02  0.12361133403E+02  0.25933264913E+02  0.00000000000E+00 0. -1.
         -5    1    5    5    0  502 -0.11210141368E+02 -0.35979950904E+02  0.12266401646E+03  0.12840862537E+03  0.47000000000E+01 0.  1.
         13    1    6    6    0    0  0.10833685867E+02  0.25363057291E+02  0.65619074350E+02  0.71179465740E+02  0.00000000000E+00 0. -1.
        -14    1    6    6    0    0 -0.41004067583E+02  0.62115340686E+02  0.16945192307E+02  0.76333404544E+02  0.00000000000E+00 0.  1.
</event>
<event>
12    1  0.8196217E-002  0.2070616E+03  0.7818608E-02  0.1143926E+00
         21   -1    0    0  503  502  0.00000000000E+00  0.00000000000E+00  0.88752630538E+03  0.88752630538E+03  0.00000000000E+00 0.  1.
         21   -1    0    0  501  503 -0.00000000000E+00 -0.00000000000E+00 -0.11075143081E+03  0.11075143081E+03  0.00000000000E+00 0. -1.
          6    2    1    2  501    0  0.85176036578E+02  0.76201951973E+02  0.13578181097E+02  0.20750628951E+03  0.17266383088E+03 0.  0.
         24    2    3    3    0    0  0.56112514398E+02  0.75784222928E+02  0.72318385616E+02  0.14179963501E+03  0.77364881404E+02 0.  0.
         -6    2    1    2    0  502 -0.85176036578E+02 -0.76201951973E+02  0.76319669347E+03  0.79077144668E+03  0.17259372315E+03 0.  0.
        -24    2    5    5    0    0 -0.19319415749E+02  0.25476473420E+02  0.27993540888E+03  0.29253540234E+03  0.78681878183E+02 0.  0.
          5    1    3    3  501    0  0.29063522180E+02  0.41772904452E+00 -0.58740204518E+02  0.65706654503E+02  0.47000000000E+01 0. -1.
        -11    1    4    4    0    0  0.67571373782E+02  0.75919081976E+02  0.78826921049E+02  0.12862068669E+03  0.00000000000E+00 0.  1.
         12    1    4    4    0    0 -0.11458859384E+02 -0.13485904814E+00 -0.65085354334E+01  0.13178948321E+02  0.00000000000E+00 0. -1.
         -5    1    5    5    0  502 -0.65856620829E+02 -0.10167842539E+03  0.48326128459E+03  0.49823604434E+03  0.47000000000E+01 0.  1.
         11    1    6    6    0    0  0.26350622821E+01 -0.25712820678E+02  0.54463501265E+02  0.60285700382E+02  0.00000000000E+00 0. -1.
        -12    1    6    6    0    0 -0.21954478031E+02  0.51189294099E+02  0.22547190761E+03  0.23224970196E+03  0.00000000000E+00 0.  1.
</event>
<event>
12    1  0.8196217E-002  0.1866801E+03  0.7818608E-02  0.1161761E+00
         21   -1    0    0  503  502  0.00000000000E+00  0.00000000000E+00  0.25954001342E+03  0.25954001342E+03  0.00000000000E+00 0. -1.
         21   -1    0    0  501  503 -0.00000000000E+00 -0.00000000000E+00 -0.16054439839E+03  0.16054439839E+03  0.00000000000E+00 0.  1.
          6    2    1    2  501    0  0.62003894571E+02  0.36861873878E+02 -0.36683713446E+02  0.19025019553E+03  0.17218060686E+03 0.  0.
         24    2    3    3    0    0 -0.32851192019E+02  0.22978623199E+02 -0.86931816778E+01  0.90271237895E+02  0.80412107560E+02 0.  0.
         -6    2    1    2    0  502 -0.62003894571E+02 -0.36861873878E+02  0.13567932847E+03  0.22983421628E+03  0.17091403134E+03 0.  0.
        -24    2    5    5    0    0  0.82153307373E+01  0.29188645991E+02  0.40288782812E+02  0.94132864115E+02  0.79487995145E+02 0.  0.
          5    1    3    3  501    0  0.94855086589E+02  0.13883250678E+02 -0.27990531769E+02  0.99978957636E+02  0.47000000000E+01 0. -1.
        -11    1    4    4    0    0  0.16849914443E+02 -0.15446851789E+02 -0.14675372355E+02  0.27164156543E+02  0.00000000000E+00 0.  1.
         12    1    4    4    0    0 -0.49701106462E+02  0.38425474988E+02  0.59821906772E+01  0.63107081353E+02  0.00000000000E+00 0. -1.
         -5    1    5    5    0  502 -0.70219225308E+02 -0.66050519869E+02  0.95390545662E+02  0.13570135217E+03  0.47000000000E+01 0.  1.
         13    1    6    6    0    0 -0.23244322078E+02 -0.11004635748E+02  0.34110328309E+02  0.42719024031E+02  0.00000000000E+00 0. -1.
        -14    1    6    6    0    0  0.31459652815E+02  0.40193281738E+02  0.61784545029E+01  0.51413840084E+02  0.00000000000E+00 0.  1.
</event>
<event>
12    1  0.8196217E-002  0.2136611E+03  0.7818608E-02  0.1139068E+00
         21   -1    0    0  503  502  0.00000000000E+00  0.00000000000E+00  0.17124925041E+04  0.17124925041E+04  0.00000000000E+00 0.  1.
         21   -1    0    0  501  503 -0.00000000000E+00 -0.00000000000E+00 -0.29978193394E+02  0.29978193394E+02  0.00000000000E+00 0.  1.
          6    2    1    2  501    0 -0.11229561846E+02  0.12570970632E+03  0.54448412994E+03  0.58490514697E+03  0.17240078268E+03 0.  0.
         24    2    3    3    0    0 -0.33175941662E+02  0.12031904167E+03  0.25631930357E+03  0.29581734021E+03  0.78936673978E+02 0.  0.
         -6    2    1    2    0  502  0.11229561846E+02 -0.12570970632E+03  0.11380301808E+04  0.11575655506E+04  0.17004787008E+03 0.  0.
        -24    2    5    5    0    0 -0.16112921537E+02  0.19801736286E+01  0.40603785880E+03  0.41400172257E+03  0.79165246047E+02 0.  0.
          5    1    3    3  501    0  0.21946379816E+02  0.53906646523E+01  0.28816482637E+03  0.28908780675E+03  0.47000000000E+01 0. -1.
        -11    1    4    4    0    0 -0.15288181560E+01  0.18843559862E+02  0.12708898568E+03  0.12848745976E+03  0.00000000000E+00 0.  1.
         12    1    4    4    0    0 -0.31647123506E+02  0.10147548180E+03  0.12923031788E+03  0.16732988046E+03  0.00000000000E+00 0. -1.
         -5    1    5    5    0  502  0.27342483383E+02 -0.12768987995E+03  0.73199232199E+03  0.74356382799E+03  0.47000000000E+01 0.  1.
         13    1    6    6    0    0  0.29224611246E+02 -0.10340000287E+02  0.11103772427E+03  0.11528386582E+03  0.00000000000E+00 0. -1.
        -14    1    6    6    0    0 -0.45337532783E+02  0.12320173915E+02  0.29500013453E+03  0.29871785675E+03  0.00000000000E+00 0.  1.
</event>
<event>
12    1  0.8196217E-002  0.2170046E+03  0.7818608E-02  0.1137924E+00
         21   -1    0    0  501  502  0.00000000000E+00  0.00000000000E+00  0.51031804103E+02  0.51031804103E+02  0.00000000000E+00 0.  1.
         21   -1    0    0  502  503 -0.00000000000E+00 -0.00000000000E+00 -0.11153636794E+04  0.11153636794E+04  0.00000000000E+00 0.  1.
         -6    2    1    2    0  503  0.15331186759E+02 -0.11479496903E+03 -0.80684915386E+03  0.83552172443E+03  0.18351584319E+03 0.  0.
        -24    2    3    3    0    0 -0.62352995371E+01 -0.10289408181E+03 -0.79823642073E+03  0.80900732042E+03  0.81764234754E+02 0.  0.
          6    2    1    2  501    0 -0.15331186759E+02  0.11479496903E+03 -0.25748272142E+03  0.33087375906E+03  0.17253162725E+03 0.  0.
         24    2    5    5    0    0  0.43004445417E+02  0.69447765074E+02 -0.22114204720E+03  0.24839861437E+03  0.78266801294E+02 0.  0.
          5    1    5    5  501    0 -0.58335632177E+02  0.45347203956E+02 -0.36340674221E+02  0.82475144686E+02  0.47000000000E+01 0. -1.
        -13    1    6    6    0    0  0.59534222000E+00  0.55091681112E+02 -0.61373908573E+02  0.82475477650E+02  0.00000000000E+00 0.  1.
         14    1    6    6    0    0  0.42409103197E+02  0.14356083962E+02 -0.15976813862E+03  0.16592313672E+03  0.00000000000E+00 0. -1.
         -5    1    3    3    0  503  0.21566486296E+02 -0.11900887224E+02 -0.86127331339E+01  0.26514404008E+02  0.47000000000E+01 0.  1.
         13    1    4    4    0    0  0.20369894050E+02 -0.12454000826E+01 -0.24731312948E+03  0.24815371772E+03  0.00000000000E+00 0. -1.
        -14    1    4    4    0    0 -0.26605193587E+02 -0.10164868172E+03 -0.55092329126E+03  0.56085360271E+03  0.00000000000E+00 0.  1.
</event>
<event>
12    1  0.8196217E-002  0.2391029E+03  0.7818608E-02  0.1121884E+00
         21   -1    0    0  501  502  0.00000000000E+00  0.00000000000E+00  0.57294092770E+03  0.57294092770E+03  0.00000000000E+00 0. -1.
         21   -1    0    0  502  503 -0.00000000000E+00 -0.00000000000E+00 -0.11557355732E+03  0.11557355732E+03  0.00000000000E+00 0. -1.
         -6    2    1    2    0  503  0.32968346005E+02  0.14908865824E+03  0.91189852713E+02  0.25590192983E+03  0.18399964293E+03 0.  0.
        -24    2    3    3    0    0  0.62033274127E+02  0.16990753534E+03  0.96774911096E+02  0.21941249893E+03  0.77844483476E+02 0.  0.
          6    2    1    2  501    0 -0.32968346005E+02 -0.14908865824E+03  0.36617751766E+03  0.43261255518E+03  0.17249147401E+03 0.  0.
         24    2    5    5    0    0 -0.18404866694E+02 -0.17609990686E+03  0.27835974249E+03  0.33946882691E+03  0.80031380656E+02 0.  0.
          5    1    5    5  501    0 -0.14563479311E+02  0.27011248614E+02  0.87817775169E+02  0.93143728275E+02  0.47000000000E+01 0. -1.
        -11    1    6    6    0    0 -0.55949655147E+01 -0.84356011896E+02  0.64269062226E+02  0.10619676427E+03  0.00000000000E+00 0.  1.
         12    1    6    6    0    0 -0.12809901179E+02 -0.91743894961E+02  0.21409068027E+03  0.23327206264E+03  0.00000000000E+00 0. -1.
         -5    1    3    3    0  503 -0.29064928122E+02 -0.20818877094E+02 -0.55850583833E+01  0.36489430900E+02  0.47000000000E+01 0.  1.
         11    1    4    4    0    0  0.41170127058E+02  0.13577109639E+03  0.10748828498E+03  0.17799579035E+03  0.00000000000E+00 0. -1.
        -12    1    4    4    0    0  0.20863147069E+02  0.34136438951E+02 -0.10713373881E+02  0.41416708582E+02  0.00000000000E+00 0.  1.
</event>
<event>
12    1  0.8196217E-002  0.1756326E+03  0.7818608E-02  0.1172222E+00
         21   -1    0    0  503  502  0.00000000000E+00  0.00000000000E+00  0.37269394524E+03  0.37269394524E+03  0.00000000000E+00 0.  1.
         21   -1    0    0  501  503 -0.00000000000E+00 -0.00000000000E+00 -0.99257464759E+02  0.99257464759E+02  0.00000000000E+00 0.  1.
          6    2    1    2  501    0 -0.33959408581E+02 -0.49874445929E+00  0.39698607497E+02  0.17958141327E+03  0.17181389460E+03 0.  0.
         24    2    3    3    0    0 -0.44075896235E+02  0.32727552093E+02 -0.28930573829E+02  0.10252049818E+03  0.81606967531E+02 0.  0.
         -6    2    1    2    0  502  0.33959408581E+02  0.49874445929E+00  0.23373787299E+03  0.29236999674E+03  0.17231753116E+03 0.  0.
        -24    2    5    5    0    0 -0.29282180721E+02  0.29996445383E+02  0.18592960138E+03  0.20765085007E+03  0.82412535593E+02 0.  0.
          5    1    3    3  501    0  0.10116487654E+02 -0.33226296552E+02  0.68629181326E+02  0.77060915090E+02  0.47000000000E+01 0. -1.
        -13    1    4    4    0    0  0.74433371499E+01  0.38997588796E+02 -0.31316701919E+02  0.50566303197E+02  0.00000000000E+00 0.  1.
         14    1    4    4    0    0 -0.51519233385E+02 -0.62700367034E+01  0.23861280909E+01  0.51954194981E+02  0.00000000000E+00 0. -1.
         -5    1    5    5    0  502  0.63241589302E+02 -0.29497700923E+02  0.47808271608E+02  0.84719146663E+02  0.47000000000E+01 0.  1.
         13    1    6    6    0    0 -0.28341996300E+02  0.47330998002E+02  0.18154996276E+03  0.18974688694E+03  0.00000000000E+00 0. -1.
        -14    1    6    6    0    0 -0.94018442136E+00 -0.17334552619E+02  0.43796386180E+01  0.17903963128E+02  0.00000000000E+00 0.  1.
</event>
<event>
12    1  0.8196217E-002  0.1768306E+03  0.7818608E-02  0.1171089E+00
         21   -1    0    0  503  502  0.00000000000E+00  0.00000000000E+00  0.27417588055E+02  0.27417588055E+02  0.00000000000E+00 0. -1.
         21   -1    0    0  501  503 -0.00000000000E+00 -0.00000000000E+00 -0.12200706994E+04  0.12200706994E+04  0.00000000000E+00 0. -1.
          6    2    1    2  501    0  0.38203118511E+02 -0.12696375485E+02 -0.76147556397E+03  0.78173786945E+03  0.17218706628E+03 0.  0.
         24    2    3    3    0    0  0.71719615918E+02 -0.51414147031E+02 -0.39187704510E+03  0.40857895346E+03  0.74712950089E+02 0.  0.
         -6    2    1    2    0  502 -0.38203118511E+02  0.12696375485E+02 -0.43117754742E+03  0.46575041805E+03  0.17143132240E+03 0.  0.
        -24    2    5    5    0    0 -0.42002843886E+02 -0.37938644285E+02 -0.14470276505E+03  0.17477235346E+03  0.80018158537E+02 0.  0.
          5    1    3    3  501    0 -0.33516497407E+02  0.38717771546E+02 -0.36959851887E+03  0.37315891599E+03  0.47000000000E+01 0. -1.
        -13    1    4    4    0    0  0.40304701104E+02 -0.35542875165E+02 -0.91243547426E+02  0.10589216143E+03  0.00000000000E+00 0.  1.
         14    1    4    4    0    0  0.31414914815E+02 -0.15871271866E+02 -0.30063349767E+03  0.30268679203E+03  0.00000000000E+00 0. -1.
         -5    1    5    5    0  502  0.37997253747E+01  0.50635019770E+02 -0.28647478237E+03  0.29097806459E+03  0.47000000000E+01 0.  1.
         13    1    6    6    0    0 -0.37765474957E+02  0.16550041804E+02 -0.44724611983E+02  0.60831126075E+02  0.00000000000E+00 0. -1.
        -14    1    6    6    0    0 -0.42373689291E+01 -0.54488686089E+02 -0.99978153063E+02  0.11394122738E+03  0.00000000000E+00 0.  1.
</event>
<event>
12    1  0.8196217E-002  0.2981346E+03  0.7818608E-02  0.1086284E+00
         21   -1    0    0  501  502  0.00000000000E+00  0.00000000000E+00  0.79099534675E+02  0.79099534675E+02  0.00000000000E+00 0. -1.
         21   -1    0    0  502  503 -0.00000000000E+00 -0.00000000000E+00 -0.12022379727E+04  0.12022379727E+04  0.00000000000E+00 0. -1.
         -6    2    1    2    0  503 -0.76455837035E+02 -0.23014837650E+03 -0.72786161477E+03  0.78623347823E+03  0.17194993985E+03 0.  0.
        -24    2    3    3    0    0 -0.10742731700E+03 -0.20899137858E+03 -0.53910707952E+03  0.59373096991E+03  0.81621055382E+02 0.  0.
          6    2    1    2  501    0  0.76455837035E+02  0.23014837650E+03 -0.39527682324E+03  0.49510402913E+03  0.17340836902E+03 0.  0.
         24    2    5    5    0    0  0.25438192097E+02  0.47509116679E+02 -0.20366678206E+03  0.22548133498E+03  0.80358300891E+02 0.  0.
          5    1    5    5  501    0  0.51017644938E+02  0.18263925982E+03 -0.19161004117E+03  0.26962269415E+03  0.47000000000E+01 0. -1.
        -13    1    6    6    0    0 -0.27661235857E+02  0.47457485213E+01 -0.70382203576E+02  0.75771503076E+02  0.00000000000E+00 0.  1.
         14    1    6    6    0    0  0.53099427954E+02  0.42763368157E+02 -0.13328457849E+03  0.14970983190E+03  0.00000000000E+00 0. -1.
         -5    1    3    3    0  503  0.30971479969E+02 -0.21156997912E+02 -0.18875453524E+03  0.19250250831E+03  0.47000000000E+01 0.  1.
         11    1    4    4    0    0 -0.65245557310E+02 -0.10203924900E+03 -0.36938574266E+03  0.38873489419E+03  0.00000000000E+00 0. -1.
        -12    1    4    4    0    0 -0.42181759694E+02 -0.10695212958E+03 -0.16972133687E+03  0.20499607572E+03  0.00000000000E+00 0.  1.
</event>
<event>
12    1  0.8196217E-002  0.2503922E+03  0.7818608E-02  0.1113272E+00
         21   -1    0    0  503  502  0.00000000000E+00  0.00000000000E+00  0.13181110433E+03  0.13181110433E+03  0.00000000000E+00 0. -1.
         21   -1    0    0  501  503 -0.00000000000E+00 -0.00000000000E+00 -0.62046918220E+03  0.62046918220E+03  0.00000000000E+00 0.  1.
          6    2    1    2  501    0 -0.68118892354E+02 -0.16832128774E+03 -0.42816056782E+03  0.49600171616E+03  0.17240647087E+03 0.  0.
         24    2    3    3    0    0 -0.33457297129E+02 -0.11164914953E+03 -0.39866257723E+03  0.42316368433E+03  0.80936579639E+02 0.  0.
         -6    2    1    2    0  502  0.68118892354E+02  0.16832128774E+03 -0.60497510055E+02  0.25627857036E+03  0.17043038903E+03 0.  0.
        -24    2    5    5    0    0  0.57324271264E+02  0.15621832371E+03 -0.10232136000E+03  0.21117502275E+03  0.80218406767E+02 0.  0.
          5    1    3    3  501    0 -0.34661595225E+02 -0.56672138209E+02 -0.29497990582E+02  0.72838031831E+02  0.47000000000E+01 0. -1.
        -11    1    4    4    0    0  0.37642636576E+01 -0.10161483757E+03 -0.25803272840E+03  0.27734569371E+03  0.00000000000E+00 0.  1.
         12    1    4    4    0    0 -0.37221560787E+02 -0.10034311964E+02 -0.14062984884E+03  0.14581799062E+03  0.00000000000E+00 0. -1.
         -5    1    5    5    0  502  0.10794621090E+02  0.12102964029E+02  0.41823849946E+02  0.45103547610E+02  0.47000000000E+01 0.  1.
         11    1    6    6    0    0 -0.12024116053E+02  0.58241846026E+02 -0.11306369411E+02  0.60535328401E+02  0.00000000000E+00 0. -1.
        -12    1    6    6    0    0  0.69348387317E+02  0.97976477684E+02 -0.91014990589E+02  0.15063969435E+03  0.00000000000E+00 0.  1.
</event>
<event>
12    1  0.8196217E-002  0.2453877E+03  0.7818608E-02  0.1116259E+00
         21   -1    0    0  501  502  0.00000000000E+00  0.00000000000E+00  0.12966698477E+04  0.12966698477E+04  0.00000000000E+00 0. -1.
         21   -1    0    0  502  503 -0.00000000000E+00 -0.00000000000E+00 -0.83927997506E+02  0.83927997506E+02  0.00000000000E+00 0. -1.
         -6    2    1    2    0  503 -0.23750803662E+02  0.17301769165E+03  0.14499873285E+03  0.28502588208E+03  0.17238299983E+03 0.  0.
        -24    2    3    3    0    0 -0.45728295111E+02  0.54840213928E+02  0.37231821586E+02  0.12351822426E+03  0.93659047344E+02 0.  0.
          6    2    1    2  501    0  0.23750803662E+02 -0.17301769165E+03  0.10677431174E+04  0.10955719631E+04  0.17234656783E+03 0.  0.
         24    2    5    5    0    0 -0.17724666299E+02 -0.18083571793E+03  0.79061804869E+03  0.81521196273E+03  0.80485555136E+02 0.  0.
          5    1    5    5  501    0  0.41475469961E+02  0.78180262827E+01  0.27712506867E+03  0.28036000041E+03  0.47000000000E+01 0. -1.
        -11    1    6    6    0    0  0.31646164560E+01  0.77894471445E+01  0.47837797865E+02  0.48571032403E+02  0.00000000000E+00 0.  1.
         12    1    6    6    0    0 -0.20889282755E+02 -0.18862516508E+03  0.74278025083E+03  0.76664093033E+03  0.00000000000E+00 0. -1.
         -5    1    3    3    0  503  0.21977491450E+02  0.11817747772E+03  0.10776691126E+03  0.16150765782E+03  0.47000000000E+01 0.  1.
         11    1    4    4    0    0  0.14994546335E+02  0.51865056940E+02  0.37659962164E+01  0.54120266801E+02  0.00000000000E+00 0. -1.
        -12    1    4    4    0    0 -0.60722841446E+02  0.29751569880E+01  0.33465825369E+02  0.69397957463E+02  0.00000000000E+00 0.  1.
</event>
<event>
12    1  0.8196217E-002  0.3008411E+03  0.7818608E-02  0.1084889E+00
         21   -1    0    0  501  502  0.00000000000E+00  0.00000000000E+00  0.17486499641E+03  0.17486499641E+03  0.00000000000E+00 0.  1.
         21   -1    0    0  502  503 -0.00000000000E+00 -0.00000000000E+00 -0.58811611926E+03  0.58811611926E+03  0.00000000000E+00 0.  1.
         -6    2    1    2    0  503 -0.10872278850E+03 -0.22115754116E+03 -0.33978887674E+03  0.45383023042E+03  0.17255171553E+03 0.  0.
        -24    2    3    3    0    0 -0.13765905524E+03 -0.16548506148E+03 -0.30686411515E+03  0.38281711576E+03  0.77769132003E+02 0.  0.
          6    2    1    2  501    0  0.10872278850E+03  0.22115754116E+03 -0.73462246111E+02  0.30915088526E+03  0.17159914191E+03 0.  0.
         24    2    5    5    0    0  0.82507028441E+00  0.12246342103E+03 -0.72070223590E+02  0.16284136859E+03  0.79531276628E+02 0.  0.
          5    1    5    5  501    0  0.10789771821E+03  0.98694120126E+02 -0.13920225205E+01  0.14630951667E+03  0.47000000000E+01 0. -1.
        -13    1    6    6    0    0  0.18099627209E+00  0.50927342030E+02  0.12131503224E+02  0.52352653193E+02  0.00000000000E+00 0.  1.
         14    1    6    6    0    0  0.64407401233E+00  0.71536079005E+02 -0.84201726814E+02  0.11048871539E+03  0.00000000000E+00 0. -1.
         -5    1    3    3    0  503  0.28936266744E+02 -0.55672479684E+02 -0.32924761591E+02  0.71013114656E+02  0.47000000000E+01 0.  1.
         13    1    4    4    0    0 -0.95360756653E+01  0.23436628888E+01  0.59566352874E+00  0.98379017006E+01  0.00000000000E+00 0. -1.
        -14    1    4    4    0    0 -0.12812297958E+03 -0.16782872436E+03 -0.30745977868E+03  0.37297921406E+03  0.00000000000E+00 0.  1.
</event>
<event>
12    1  0.8196217E-002  0.2030944E+03  0.7818608E-02  0.1147268E+00
         21   -1    0    0  501  502  0.00000000000E+00  0.00000000000E+00  0.13450154197E+03  0.13450154197E+03  0.00000000000E+00 0. -1.
         21   -1    0    0  502  503 -0.00000000000E+00 -0.00000000000E+00 -0.32873931938E+03  0.32873931938E+03  0.00000000000E+00 0. -1.
         -6    2    1    2    0  503  0.42777924849E+02  0.99652857320E+02 -0.15837125544E+03  0.25754378331E+03  0.17171692679E+03 0.  0.
        -24    2    3    3    0    0  0.41870309702E+02  0.47170266736E+02 -0.12463342420E+02  0.10241011462E+03  0.79714112766E+02 0.  0.
          6    2    1    2  501    0 -0.42777924849E+02 -0.99652857320E+02 -0.35866521969E+02  0.20569707804E+03  0.17106793296E+03 0.  0.
         24    2    5    5    0    0 -0.53809536329E+02 -0.10850620286E+03 -0.75132405118E+02  0.16369734282E+03  0.80516330572E+02 0.  0.
          5    1    5    5  501    0  0.11031611480E+02  0.88533455353E+01  0.39265883149E+02  0.41999735220E+02  0.47000000000E+01 0. -1.
        -11    1    6    6    0    0 -0.29009315631E+02 -0.21696691727E+02  0.12064282340E+02  0.38181588936E+02  0.00000000000E+00 0.  1.
         12    1    6    6    0    0 -0.24800220698E+02 -0.86809511128E+02 -0.87196687458E+02  0.12551575388E+03  0.00000000000E+00 0. -1.
         -5    1    3    3    0  503  0.90761514695E+00  0.52482590584E+02 -0.14590791302E+03  0.15513366869E+03  0.47000000000E+01 0.  1.
         13    1    4    4    0    0 -0.18050786879E+02  0.17945581634E+02  0.15843534103E+02  0.29981533984E+02  0.00000000000E+00 0. -1.
        -14    1    4    4    0    0  0.59921096581E+02  0.29224685102E+02 -0.28306876522E+02  0.72428580638E+02  0.00000000000E+00 0.  1.
</event>
<event>
12    1  0.8196217E-002  0.2492464E+03  0.7818608E-02  0.1113879E+00
         21   -1    0    0  503  502  0.00000000000E+00  0.00000000000E+00  0.12658356708E+03  0.12658356708E+03  0.00000000000E+00 0. -1.
         21   -1    0    0  501  503 -0.00000000000E+00 -0.00000000000E+00 -0.51860687895E+03  0.51860687895E+03  0.00000000000E+00 0.  1.
          6    2    1    2  501    0 -0.14864764651E+02 -0.17979486371E+03 -0.27212130169E+03  0.36860368166E+03  0.17108920788E+03 0.  0.
         24    2    3    3    0    0  0.42390580307E+02 -0.15958412450E+03 -0.17276997927E+03  0.25207289700E+03  0.80169979269E+02 0.  0.
         -6    2    1    2    0  502  0.14864764651E+02  0.17979486371E+03 -0.11990201018E+03  0.27658676438E+03  0.17197846359E+03 0.  0.
        -24    2    5    5    0    0  0.85470342188E+01  0.62131334752E+02  0.14319480158E+02  0.97919144943E+02  0.73822468682E+02 0.  0.
          5    1    3    3  501    0 -0.57255344958E+02 -0.20210739216E+02 -0.99351322425E+02  0.11653078466E+03  0.47000000000E+01 0. -1.
        -13    1    4    4    0    0  0.24703375727E+02 -0.36554343007E+02 -0.96851235764E+02  0.10642668196E+03  0.00000000000E+00 0.  1.
         14    1    4    4    0    0  0.17687204580E+02 -0.12302978149E+03 -0.75918743504E+02  0.14564621504E+03  0.00000000000E+00 0. -1.
         -5    1    5    5    0  502  0.63177304322E+01  0.11766352896E+03 -0.13422149034E+03  0.17866761943E+03  0.47000000000E+01 0.  1.
         11    1    6    6    0    0  0.30867411438E+02  0.51028579415E+01  0.18824153114E+02  0.36512805816E+02  0.00000000000E+00 0. -1.
        -12    1    6    6    0    0 -0.22320377220E+02  0.57028476810E+02 -0.45046729566E+01  0.61406339127E+02  0.00000000000E+00 0.  1.
</event>
<event>
12    1  0.8196217E-002  0.1738663E+03  0.7818608E-02  0.1174134E+00
         21   -1    0    0  503  502  0.00000000000E+00  0.00000000000E+00  0.75474106845E+03  0.75474106845E+03  0.00000000000E+00 0. -1.
         21   -1    0    0  501  503 -0.00000000000E+00 -0.00000000000E+00 -0.67368556388E+02  0.67368556388E+02  0.00000000000E+00 0. -1.
          6    2    1    2  501    0  0.36366471577E+02 -0.13304503685E+02  0.81418323326E+02  0.19198548331E+03  0.16949912199E+03 0.  0.
         24    2    3    3    0    0  0.53433997058E+02  0.47178766530E+02  0.29180759500E+02  0.11012963760E+03  0.78714625713E+02 0.  0.
         -6    2    1    2    0  502 -0.36366471577E+02  0.13304503685E+02  0.60595418874E+03  0.63012414153E+03  0.16845303445E+03 0.  0.
        -24    2    5    5    0    0 -0.83876024871E+02  0.18861214239E+02  0.33463399234E+03  0.35457963758E+03  0.79723758077E+02 0.  0.
          5    1    3    3  501    0 -0.17067525481E+02 -0.60483270215E+02  0.52237563826E+02  0.81855845707E+02  0.47000000000E+01 0. -1.
        -11    1    4    4    0    0  0.57917998411E+02 -0.73399825503E+00  0.18834043881E+02  0.60907754041E+02  0.00000000000E+00 0.  1.
         12    1    4    4    0    0 -0.44840013535E+01  0.47912764785E+02  0.10346715619E+02  0.49221883564E+02  0.00000000000E+00 0. -1.
         -5    1    5    5    0  502  0.47509553294E+02 -0.55567105534E+01  0.27132019640E+03  0.27554450395E+03  0.47000000000E+01 0.  1.
         13    1    6    6    0    0 -0.74943888291E+02  0.30383615230E+02  0.32925375459E+03  0.33903950415E+03  0.00000000000E+00 0. -1.
        -14    1    6    6    0    0 -0.89321365798E+01 -0.11522400992E+02  0.53802377550E+01  0.15540133423E+02  0.00000000000E+00 0.  1.
</event>
<event>
12    1  0.8196217E-002  0.2089019E+03  0.7818608E-02  0.1143223E+00
         21   -1    0    0  503  502  0.00000000000E+00  0.00000000000E+00  0.20627301795E+03  0.20627301795E+03  0.00000000000E+00 0. -1.
         21   -1    0    0  501  503 -0.00000000000E+00 -0.00000000000E+00 -0.24366145628E+03  0.24366145628E+03  0.00000000000E+00 0.  1.
          6    2    1    2  501    0 -0.11426437546E+03 -0.21912901145E+02 -0.10504352622E+03  0.23035026380E+03  0.16879152495E+03 0.  0.
         24    2    3    3    0    0 -0.71168452005E+02  0.50620809722E+02 -0.63065096408E+02  0.13599626865E+03  0.83008215046E+02 0.  0.
         -6    2    1    2    0  502  0.11426437546E+03  0.21912901145E+02  0.67655087887E+02  0.21958421043E+03  0.17350357868E+03 0.  0.
        -24    2    5    5    0    0  0.79617260344E+02  0.70319533955E+02  0.45776956577E+01  0.13272528978E+03  0.79443704903E+02 0.  0.
          5    1    3    3  501    0 -0.43095923459E+02 -0.72533710866E+02 -0.41978429814E+02  0.94353995148E+02  0.47000000000E+01 0. -1.
        -11    1    4    4    0    0 -0.53855480155E+01 -0.17244594521E+02  0.58889214190E+01  0.19001567386E+02  0.00000000000E+00 0.  1.
         12    1    4    4    0    0 -0.65782903989E+02  0.67865404243E+02 -0.68954017827E+02  0.11699470127E+03  0.00000000000E+00 0. -1.
         -5    1    5    5    0  502  0.34647115120E+02 -0.48406632810E+02  0.63077392229E+02  0.86858920650E+02  0.47000000000E+01 0.  1.
         11    1    6    6    0    0  0.83158891050E+02  0.25525269204E+02 -0.35568933937E+01  0.87060852392E+02  0.00000000000E+00 0. -1.
        -12    1    6    6    0    0 -0.35416307063E+01  0.44794264751E+02  0.81345890514E+01  0.45664437385E+02  0.00000000000E+00 0.  1.
</event>
<event>
12    1  0.8196217E-002  0.1980599E+03  0.7818608E-02  0.1151486E+00
         21   -1    0    0  503  502  0.00000000000E+00  0.00000000000E+00  0.15963957646E+03  0.15963957646E+03  0.00000000000E+00 0.  1.
         21   -1    0    0  501  503 -0.00000000000E+00 -0.00000000000E+00 -0.25811564823E+03  0.25811564823E+03  0.00000000000E+00 0. -1.
          6    2    1    2  501    0 -0.87231452448E+02 -0.43696907281E+02 -0.96106043857E+02  0.22014565349E+03  0.17236296320E+03 0.  0.
         24    2    3    3    0    0 -0.18827787287E+02 -0.65398726374E+02 -0.10326908062E+03  0.14787235652E+03  0.81057089913E+02 0.  0.
         -6    2    1    2    0  502  0.87231452448E+02  0.43696907281E+02 -0.23700279122E+01  0.19760957120E+03  0.17182892538E+03 0.  0.
        -24    2    5    5    0    0  0.92614651572E+01  0.18037577766E+01 -0.52940592530E+02  0.95561411497E+02  0.78995245115E+02 0.  0.
          5    1    3    3  501    0 -0.68403665160E+02  0.21701819094E+02  0.71630367668E+01  0.72273296971E+02  0.47000000000E+01 0. -1.
        -11    1    4    4    0    0  0.10916201803E+02 -0.32477851076E+02  0.12918855675E+01  0.34287654347E+02  0.00000000000E+00 0.  1.
         12    1    4    4    0    0 -0.29743989090E+02 -0.32920875298E+02 -0.10456096619E+03  0.11358470217E+03  0.00000000000E+00 0. -1.
         -5    1    5    5    0  502  0.77969987291E+02  0.41893149504E+02  0.50570564618E+02  0.10204815971E+03  0.47000000000E+01 0.  1.
         11    1    6    6    0    0 -0.18403329553E+02  0.67596052561E+00  0.13991907329E+02  0.23128184796E+02  0.00000000000E+00 0. -1.
        -12    1    6    6    0    0  0.27664794710E+02  0.11277972510E+01 -0.66932499859E+02  0.72433226701E+02  0.00000000000E+00 0.  1.
</event>
<event>
12    1  0.8196217E-002  0.2057706E+03  0.7818608E-02  0.1145141E+00
         21   -1    0    0  503  502  0.00000000000E+00  0.00000000000E+00  0.70283391223E+02  0.70283391223E+02  0.00000000000E+00 0. -1.
         21   -1    0    0  501  503 -0.00000000000E+00 -0.00000000000E+00 -0.72851613848E+03  0.72851613848E+03  0.00000000000E+00 0. -1.
          6    2    1    2  501    0  0.10326411916E+03  0.43490550332E+02 -0.49638782149E+03  0.53700705236E+03  0.17152492148E+03 0.  0.
         24    2    3    3    0    0  0.49768319619E+02 -0.33791641228E+02 -0.17538324913E+03  0.20249193585E+03  0.81393730429E+02 0.  0.
         -6    2    1    2    0  502 -0.10326411916E+03 -0.43490550332E+02 -0.16184492577E+03  0.26179247734E+03  0.17258799183E+03 0.  0.
        -24    2    5    5    0    0 -0.75664811496E+02 -0.49301414689E+02 -0.25997153267E+02  0.12296814510E+03  0.79306491180E+02 0.  0.
          5    1    3    3  501    0  0.53495799539E+02  0.77282191560E+02 -0.32100457236E+03  0.33451511651E+03  0.47000000000E+01 0. -1.
        -11    1    4    4    0    0  0.20658922222E+02 -0.49283784050E+01  0.11420711186E+01  0.21269327858E+02  0.00000000000E+00 0.  1.
         12    1    4    4    0    0  0.29109397397E+02 -0.28863262823E+02 -0.17652532025E+03  0.18122260799E+03  0.00000000000E+00 0. -1.
         -5    1    5    5    0  502 -0.27599307663E+02  0.58108643569E+01 -0.13584777250E+03  0.13882433224E+03  0.47000000000E+01 0.  1.
         11    1    6    6    0    0 -0.40618783018E+02  0.17668030732E+02 -0.53730518949E+01  0.44619665288E+02  0.00000000000E+00 0. -1.
        -12    1    6    6    0    0 -0.35046028478E+02 -0.66969445420E+02 -0.20624101372E+02  0.78348479816E+02  0.00000000000E+00 0.  1.
</event>
<event>
12    1  0.8196217E-002  0.1751617E+03  0.7818608E-02  0.1172729E+00
         21   -1    0    0  501  502  0.00000000000E+00  0.00000000000E+00  0.42259292208E+03  0.42259292208E+03  0.00000000000E+00 0.  1.
         21   -1    0    0  502  503 -0.00000000000E+00 -0.00000000000E+00 -0.12413361361E+03  0.12413361361E+03  0.00000000000E+00 0.  1.
         -6    2    1    2    0  503  0.24945129741E+02  0.21535745221E+02 -0.27506298956E+02  0.17667897570E+03  0.17138499395E+03 0.  0.
        -24    2    3    3    0    0 -0.21282202820E+02 -0.17729549662E+02  0.33215037982E+02  0.90726079191E+02  0.79754082084E+02 0.  0.
          6    2    1    2  501    0 -0.24945129741E+02 -0.21535745221E+02  0.32596560742E+03  0.37004756000E+03  0.17203363513E+03 0.  0.
         24    2    5    5    0    0 -0.10743098168E+02  0.49482979460E+02  0.23348049838E+03  0.25248505598E+03  0.81679746295E+02 0.  0.
          5    1    5    5  501    0 -0.14202031573E+02 -0.71018724681E+02  0.92485109049E+02  0.11756250402E+03  0.47000000000E+01 0. -1.
        -11    1    6    6    0    0 -0.44072545377E+02  0.14787073019E+02  0.13704150318E+03  0.14471150742E+03  0.00000000000E+00 0.  1.
         12    1    6    6    0    0  0.33329447209E+02  0.34695906441E+02  0.96438995193E+02  0.10777354856E+03  0.00000000000E+00 0. -1.
         -5    1    3    3    0  503  0.46227332561E+02  0.39265294884E+02 -0.60721336938E+02  0.85952896504E+02  0.47000000000E+01 0.  1.
         11    1    4    4    0    0 -0.45279441352E+02 -0.10636774842E+02 -0.31103283799E+01  0.46615908559E+02  0.00000000000E+00 0. -1.
        -12    1    4    4    0    0  0.23997238532E+02 -0.70927748198E+01  0.36325366362E+02  0.44110170632E+02  0.00000000000E+00 0.  1.
</event>
<event>
12    1  0.8196217E-002  0.1904318E+03  0.7818608E-02  0.1158815E+00
         21   -1    0    0  503  502  0.00000000000E+00  0.00000000000E+00  0.10545786774E+03  0.10545786774E+03  0.00000000000E+00 0. -1.
         21   -1    0    0  501  503 -0.00000000000E+00 -0.00000000000E+00 -0.37505278118E+03  0.37505278118E+03  0.00000000000E+00 0. -1.
          6    2    1    2  501    0  0.47182469873E+02 -0.67686448255E+02 -0.21137582145E+03  0.28450659159E+03  0.17162931574E+03 0.  0.
         24    2    3    3    0    0 -0.40452719634E+02 -0.29134394751E+02 -0.10133406940E+03  0.13857008326E+03  0.80298436279E+02 0.  0.
         -6    2    1    2    0  502 -0.47182469873E+02  0.67686448255E+02 -0.58219091992E+02  0.19600405733E+03  0.16798954454E+03 0.  0.
        -24    2    5    5    0    0 -0.31122837720E+02  0.89463028879E+02  0.79711745651E+01  0.12434254300E+03  0.80157743310E+02 0.  0.
          5    1    3    3  501    0  0.87635189506E+02 -0.38552053505E+02 -0.11004175205E+03  0.14593650833E+03  0.47000000000E+01 0. -1.
        -11    1    4    4    0    0 -0.44182672877E+02 -0.17067649846E+02 -0.12696048209E+02  0.49036750443E+02  0.00000000000E+00 0.  1.
         12    1    4    4    0    0  0.37299532438E+01 -0.12066744905E+02 -0.88638021191E+02  0.89533332813E+02  0.00000000000E+00 0. -1.
         -5    1    5    5    0  502 -0.16059632152E+02 -0.21776580624E+02 -0.66190266557E+02  0.71661514325E+02  0.47000000000E+01 0.  1.
         11    1    6    6    0    0 -0.17551988459E+02  0.27397636566E+02 -0.34887743638E+02  0.47705947684E+02  0.00000000000E+00 0. -1.
        -12    1    6    6    0    0 -0.13570849262E+02  0.62065392313E+02  0.42858918203E+02  0.76636595320E+02  0.00000000000E+00 0.  1.
</event>
<event>
12    1  0.8196217E-002  0.2358581E+03  0.7818608E-02  0.1124298E+00
         21   -1    0    0  501  502  0.00000000000E+00  0.00000000000E+00  0.56853400293E+02  0.56853400293E+02  0.00000000000E+00 0. -1.
         21   -1    0    0  502  503 -0.00000000000E+00 -0.00000000000E+00 -0.99415927959E+03  0.99415927959E+03  0.00000000000E+00 0. -1.
         -6    2    1    2    0  503  0.14211561008E+03  0.36341924185E+02 -0.58403028597E+03  0.62623900039E+03  0.17194862195E+03 0.  0.
        -24    2    3    3    0    0  0.12438470662E+03  0.57858504575E+02 -0.28863193689E+03  0.32949058370E+03  0.80227725623E+02 0.  0.
          6    2    1    2  501    0 -0.14211561008E+03 -0.36341924185E+02 -0.35327559333E+03  0.42477367950E+03  0.18469285821E+03 0.  0.
         24    2    5    5    0    0 -0.69861284793E+01 -0.38659505205E+02 -0.79165227799E+02  0.11912039476E+03  0.79869717808E+02 0.  0.
          5    1    5    5  501    0 -0.13512948160E+03  0.23175810197E+01 -0.27411036553E+03  0.30565328474E+03  0.47000000000E+01 0. -1.
        -13    1    6    6    0    0 -0.73370235257E+00 -0.84185119703E+01 -0.86880581663E+02  0.87290578719E+02  0.00000000000E+00 0.  1.
         14    1    6    6    0    0 -0.62524261267E+01 -0.30240993234E+02  0.77153538646E+01  0.31829816046E+02  0.00000000000E+00 0. -1.
         -5    1    3    3    0  503  0.17730903460E+02 -0.21516580390E+02 -0.29539834908E+03  0.29674841669E+03  0.47000000000E+01 0.  1.
         11    1    4    4    0    0  0.11173217137E+02  0.39258596888E+02 -0.10851156407E+03  0.11593462704E+03  0.00000000000E+00 0. -1.
        -12    1    4    4    0    0  0.11321148948E+03  0.18599907687E+02 -0.18012037282E+03  0.21355595665E+03  0.00000000000E+00 0.  1.
</event>
<event>
12    1  0.8196217E-002  0.1984384E+03  0.7818608E-02  0.1153994E+00
         21   -1    0    0  501  502  0.00000000000E+00  0.00000000000E+00  0.30721122441E+02  0.30721122441E+02  0.00000000000E+00 0. -1.
         21   -1    0    0  502  503 -0.00000000000E+00 -0.00000000000E+00 -0.12288519660E+04  0.12288519660E+04  0.00000000000E+00 0. -1.
         -6    2    1    2    0  503  0.24894090610E+02  0.64960666394E+02 -0.71964433822E+03  0.74650236742E+03  0.18584457784E+03 0.  0.
        -24    2    3    3    0    0 -0.18688897492E+02  0.85253016786E+02 -0.26497276305E+03  0.28927202328E+03  0.76487819525E+02 0.  0.
          6    2    1    2  501    0 -0.24894090610E+02 -0.64960666394E+02 -0.47848650531E+03  0.51307072099E+03  0.17161767113E+03 0.  0.
         24    2    5    5    0    0  0.14906128476E+02  0.20853617040E+02 -0.29330591417E+03  0.30507531234E+03  0.79909454421E+02 0.  0.
          5    1    5    5  501    0 -0.39800219086E+02 -0.85814283434E+02 -0.18518059114E+03  0.20799540864E+03  0.47000000000E+01 0. -1.
        -13    1    6    6    0    0 -0.34401505230E+01 -0.29648884719E+02 -0.11824768416E+03  0.12195657346E+03  0.00000000000E+00 0.  1.
         14    1    6    6    0    0  0.18346278999E+02  0.50502501760E+02 -0.17505823000E+03  0.18311873888E+03  0.00000000000E+00 0. -1.
         -5    1    3    3    0  503  0.43582988102E+02 -0.20292350392E+02 -0.45467157517E+03  0.45723034414E+03  0.47000000000E+01 0.  1.
         11    1    4    4    0    0  0.20312402832E+02  0.68329320687E+02 -0.13722839937E+03  0.15463868652E+03  0.00000000000E+00 0. -1.
        -12    1    4    4    0    0 -0.39001300324E+02  0.16923696098E+02 -0.12774436368E+03  0.13463333676E+03  0.00000000000E+00 0.  1.
</event>
<event>
12    1  0.8196217E-002  0.1939167E+03  0.7818608E-02  0.1155054E+00
         21   -1    0    0  501  502  0.00000000000E+00  0.00000000000E+00  0.10554765436E+03  0.10554765436E+03  0.00000000000E+00 0.  1.
         21   -1    0    0  502  503 -0.00000000000E+00 -0.00000000000E+00 -0.35702259096E+03  0.35702259096E+03  0.00000000000E+00 0. -1.
         -6    2    1    2    0  503  0.64988563693E+02 -0.61189510983E+02 -0.11110073253E+03  0.22317812802E+03  0.17174817143E+03 0.  0.
        -24    2    3    3    0    0  0.71432234959E+02 -0.89402231314E+02 -0.12788090473E+03  0.18939732479E+03  0.80140487210E+02 0.  0.
          6    2    1    2  501    0 -0.64988563693E+02  0.61189510983E+02 -0.14037420407E+03  0.23939211731E+03  0.17215109351E+03 0.  0.
         24    2    5    5    0    0 -0.22224801457E+01  0.16554224459E+02 -0.13993759097E+03  0.16222884445E+03  0.80353511679E+02 0.  0.
          5    1    5    5  501    0 -0.62766083548E+02  0.44635286523E+02 -0.43661309435E+00  0.77163272857E+02  0.47000000000E+01 0. -1.
        -13    1    6    6    0    0 -0.32937349359E+01  0.36712717664E+02 -0.22750609387E+02  0.43315846472E+02  0.00000000000E+00 0.  1.
         14    1    6    6    0    0  0.10712547902E+01 -0.20158493205E+02 -0.11718698159E+03  0.11891299798E+03  0.00000000000E+00 0. -1.
         -5    1    3    3    0  503 -0.64436712656E+01  0.28212720331E+02  0.16780172191E+02  0.33780803226E+02  0.47000000000E+01 0.  1.
         13    1    4    4    0    0  0.66777533707E+01  0.28174377466E+01 -0.54380544551E+02  0.54861406938E+02  0.00000000000E+00 0. -1.
        -14    1    4    4    0    0  0.64754481588E+02 -0.92219669060E+02 -0.73500360175E+02  0.13453591786E+03  0.00000000000E+00 0.  1.
</event>
<event>
12    1  0.8196217E-002  0.2137978E+03  0.7818608E-02  0.1138840E+00
         21   -1    0    0  501  502  0.00000000000E+00  0.00000000000E+00  0.21719473895E+03  0.21719473895E+03  0.00000000000E+00 0.  1.
         21   -1    0    0  502  503 -0.00000000000E+00 -0.00000000000E+00 -0.37117333391E+03  0.37117333391E+03  0.00000000000E+00 0. -1.
         -6    2    1    2    0  503  0.91876404567E+02  0.89255910319E+02 -0.27144949062E+03  0.34553486595E+03  0.17117717833E+03 0.  0.
        -24    2    3    3    0    0  0.23667366759E+01  0.54991721568E+02 -0.21133165969E+03  0.23229945244E+03  0.79197691443E+02 0.  0.
          6    2    1    2  501    0 -0.91876404567E+02 -0.89255910319E+02  0.11747089567E+03  0.24283320692E+03  0.16958969253E+03 0.  0.
         24    2    5    5    0    0 -0.50399746537E+02 -0.10432098094E+03  0.13486783907E+03  0.19516756779E+03  0.80486296886E+02 0.  0.
          5    1    5    5  501    0 -0.41476658029E+02  0.15065070625E+02 -0.17396943401E+02  0.47665639133E+02  0.47000000000E+01 0. -1.
        -11    1    6    6    0    0 -0.53584143032E+02 -0.10485064516E+03  0.85068689022E+02  0.14526389788E+03  0.00000000000E+00 0.  1.
         12    1    6    6    0    0  0.31843964945E+01  0.52966421953E+00  0.49799150044E+02  0.49903669909E+02  0.00000000000E+00 0. -1.
         -5    1    3    3    0  503  0.89509667891E+02  0.34264188751E+02 -0.60117830932E+02  0.11323541351E+03  0.47000000000E+01 0.  1.
         13    1    4    4    0    0  0.27693846256E+02  0.60468407998E+02 -0.11816358920E+03  0.13559502682E+03  0.00000000000E+00 0. -1.
        -14    1    4    4    0    0 -0.25327109580E+02 -0.54766864298E+01 -0.93168070491E+02  0.96704425612E+02  0.00000000000E+00 0.  1.
</event>
<event>
12    1  0.8196217E-002  0.1849842E+03  0.7818608E-02  0.1165368E+00
         21   -1    0    0  501  502  0.00000000000E+00  0.00000000000E+00  0.21611707911E+03  0.21611707911E+03  0.00000000000E+00 0.  1.
         21   -1    0    0  502  503 -0.00000000000E+00 -0.00000000000E+00 -0.88072377220E+03  0.88072377220E+03  0.00000000000E+00 0.  1.
         -6    2    1    2    0  503 -0.57973472243E+02 -0.38808138141E+02 -0.83324152101E+03  0.85352832678E+03  0.17132477113E+03 0.  0.
        -24    2    3    3    0    0 -0.10380166658E+03 -0.28302176905E+02 -0.67009337099E+03  0.68367542726E+03  0.82529781261E+02 0.  0.
          6    2    1    2  501    0  0.57973472243E+02  0.38808138141E+02  0.16863482792E+03  0.24331252453E+03  0.16092322498E+03 0.  0.
         24    2    5    5    0    0  0.53522982451E+01 -0.32931887344E+02  0.10113082657E+03  0.13153372776E+03  0.77204411506E+02 0.  0.
          5    1    5    5  501    0  0.52621173998E+02  0.71740025485E+02  0.67504001346E+02  0.11177879677E+03  0.47000000000E+01 0. -1.
        -11    1    6    6    0    0  0.39213955049E+01  0.10013851259E+02  0.84935206874E+02  0.85613339653E+02  0.00000000000E+00 0.  1.
         12    1    6    6    0    0  0.14309027402E+01 -0.42945738604E+02  0.16195619696E+02  0.45920388110E+02  0.00000000000E+00 0. -1.
         -5    1    3    3    0  503  0.45828194340E+02 -0.10505961236E+02 -0.16314815002E+03  0.16985289951E+03  0.47000000000E+01 0.  1.
         11    1    4    4    0    0 -0.49627688181E+02  0.28301853273E+02 -0.26862284960E+03  0.27463091170E+03  0.00000000000E+00 0. -1.
        -12    1    4    4    0    0 -0.54173978402E+02 -0.56604030178E+02 -0.40147052139E+03  0.40904451557E+03  0.00000000000E+00 0.  1.
</event>
<event>
12    1  0.8196217E-002  0.3029025E+03  0.7818608E-02  0.1084497E+00
         21   -1    0    0  501  502  0.00000000000E+00  0.00000000000E+00  0.67827274693E+03  0.67827274693E+03  0.00000000000E+00 0.  1.
         21   -1    0    0  502  503 -0.00000000000E+00 -0.00000000000E+00 -0.23810270912E+03  0.23810270912E+03  0.00000000000E+00 0.  1.
         -6    2    1    2    0  503 -0.17575468858E+03  0.17595713725E+03 -0.85791103236E+02  0.30942815663E+03  0.16289581337E+03 0.  0.
        -24    2    3    3    0    0 -0.62614199903E+02  0.35716485338E+02  0.55430348618E+01  0.10735830383E+03  0.79365450996E+02 0.  0.
          6    2    1    2  501    0  0.17575468858E+03 -0.17595713725E+03  0.52596114104E+03  0.60694729943E+03  0.17291407603E+03 0.  0.
         24    2    5    5    0    0  0.28851464447E+02 -0.99950672372E+02  0.30622588251E+03  0.33187782855E+03  0.74471860858E+02 0.  0.
          5    1    5    5  501    0  0.14690322413E+03 -0.76006464875E+02  0.21973525853E+03  0.27506947087E+03  0.47000000000E+01 0. -1.
        -13    1    6    6    0    0  0.30630930839E+02 -0.10964708084E+03  0.29810979288E+03  0.31910842181E+03  0.00000000000E+00 0.  1.
         14    1    6    6    0    0 -0.17794663922E+01  0.96964084639E+01  0.81160896317E+01  0.12769406746E+02  0.00000000000E+00 0. -1.
         -5    1    3    3    0  503 -0.11314048868E+03  0.14024065191E+03 -0.91334138098E+02  0.20206985279E+03  0.47000000000E+01 0.  1.
         11    1    4    4    0    0  0.10638789331E+02 -0.11933337074E+02 -0.96303757462E+01  0.18663668159E+02  0.00000000000E+00 0. -1.
        -12    1    4    4    0    0 -0.73252989234E+02  0.47649822412E+02  0.15173410608E+02  0.88694635673E+02  0.00000000000E+00 0.  1.
</event>
<event>
12    1  0.8196217E-002  0.2393001E+03  0.7818608E-02  0.1120640E+00
         21   -1    0    0  501  502  0.00000000000E+00  0.00000000000E+00  0.57903978525E+02  0.57903978525E+02  0.00000000000E+00 0. -1.
         21   -1    0    0  502  503 -0.00000000000E+00 -0.00000000000E+00 -0.16280294107E+04  0.16280294107E+04  0.00000000000E+00 0. -1.
         -6    2    1    2    0  503  0.25834690141E+02  0.16087718775E+03 -0.13192816376E+04  0.13408089316E+04  0.17525881208E+03 0.  0.
        -24    2    3    3    0    0  0.74875894959E+02  0.14475983981E+03 -0.11317832156E+04  0.11462772969E+04  0.80352868181E+02 0.  0.
          6    2    1    2  501    0 -0.25834690141E+02 -0.16087718775E+03 -0.25084379460E+03  0.34512445757E+03  0.17216091650E+03 0.  0.
         24    2    5    5    0    0  0.48680302653E+02 -0.34882205167E+02 -0.13897431093E+03  0.16083096565E+03  0.54462834194E+02 0.  0.
          5    1    5    5  501    0 -0.74514992795E+02 -0.12599498259E+03 -0.11186948367E+03  0.18429349192E+03  0.47000000000E+01 0. -1.
        -11    1    6    6    0    0  0.45847836223E+02 -0.42613383431E+02 -0.81463612521E+02  0.10273385371E+03  0.00000000000E+00 0.  1.
         12    1    6    6    0    0  0.28324664308E+01  0.77311782647E+01 -0.57510698411E+02  0.58097111935E+02  0.00000000000E+00 0. -1.
         -5    1    3    3    0  503 -0.49041204818E+02  0.16117347942E+02 -0.18749842199E+03  0.19453163476E+03  0.47000000000E+01 0.  1.
         11    1    4    4    0    0  0.61754192656E+02  0.54352608335E+02 -0.70773385862E+03  0.71249912350E+03  0.00000000000E+00 0. -1.
        -12    1    4    4    0    0  0.13121702303E+02  0.90407231475E+02 -0.42404935694E+03  0.43377817337E+03  0.00000000000E+00 0.  1.
</event>
<event>
12    1  0.8196217E-002  0.1944182E+03  0.7818608E-02  0.1154871E+00
         21   -1    0    0  503  502  0.00000000000E+00  0.00000000000E+00  0.44600854524E+02  0.44600854524E+02  0.00000000000E+00 0. -1.
         21   -1    0    0  501  503 -0.00000000000E+00 -0.00000000000E+00 -0.95084636529E+03  0.95084636529E+03  0.00000000000E+00 0. -1.
          6    2    1    2  501    0  0.45003350134E+02 -0.75176324715E+02 -0.62082869824E+03  0.65010506305E+03  0.17184742978E+03 0.  0.
         24    2    3    3    0    0 -0.23816689052E+02 -0.72410536942E+02 -0.48829189588E+03  0.50066630852E+03  0.80170171302E+02 0.  0.
         -6    2    1    2    0  502 -0.45003350134E+02  0.75176324715E+02 -0.28541681252E+03  0.34534215676E+03  0.17355594788E+03 0.  0.
        -24    2    5    5    0    0  0.30571164981E+02  0.72862800195E+02 -0.12934139643E+03  0.17185300655E+03  0.80997995350E+02 0.  0.
          5    1    3    3  501    0  0.68820039187E+02 -0.27657877734E+01 -0.13253680236E+03  0.14943875453E+03  0.47000000000E+01 0. -1.
        -11    1    4    4    0    0 -0.22124014025E+02 -0.62250135285E+02 -0.17267846592E+03  0.18488483965E+03  0.00000000000E+00 0.  1.
         12    1    4    4    0    0 -0.16926750276E+01 -0.10160401656E+02 -0.31561342996E+03  0.31578146887E+03  0.00000000000E+00 0. -1.
         -5    1    5    5    0  502 -0.75574515115E+02  0.23135245195E+01 -0.15607541609E+03  0.17348915021E+03  0.47000000000E+01 0.  1.
         11    1    6    6    0    0  0.29425406003E+01  0.28420303089E+02  0.37744687812E+01  0.28820457794E+02  0.00000000000E+00 0. -1.
        -12    1    6    6    0    0  0.27628624381E+02  0.44442497106E+02 -0.13311586521E+03  0.14303254876E+03  0.00000000000E+00 0.  1.
</event>
<event>
12    1  0.8196217E-002  0.2619163E+03  0.7818608E-02  0.1106234E+00
         21   -1    0    0  501  502  0.00000000000E+00  0.00000000000E+00  0.86683579868E+02  0.86683579868E+02  0.00000000000E+00 0. -1.
         21   -1    0    0  502  503 -0.00000000000E+00 -0.00000000000E+00 -0.16063751301E+04  0.16063751301E+04  0.00000000000E+00 0.  1.
         -6    2    1    2    0  503  0.31381642897E+02  0.19309545356E+03 -0.13657091824E+04  0.13905976083E+04  0.17415359781E+03 0.  0.
        -24    2    3    3    0    0  0.80447872277E+02  0.16254861711E+03 -0.92166269099E+03  0.94278070307E+03  0.80494875813E+02 0.  0.
          6    2    1    2  501    0 -0.31381642897E+02 -0.19309545356E+03 -0.15398236783E+03  0.30246110166E+03  0.17175996833E+03 0.  0.
         24    2    5    5    0    0  0.21517471671E+02 -0.16921710973E+03 -0.80333150068E+02  0.20857399444E+03  0.89175469406E+02 0.  0.
          5    1    5    5  501    0 -0.52899114567E+02 -0.23878343831E+02 -0.73649217759E+02  0.93887107222E+02  0.47000000000E+01 0. -1.
        -13    1    6    6    0    0  0.36546228468E+02 -0.89282054912E+02 -0.82899937311E+02  0.12719792353E+03  0.00000000000E+00 0.  1.
         14    1    6    6    0    0 -0.15028756797E+02 -0.79935054816E+02  0.25667872430E+01  0.81376070906E+02  0.00000000000E+00 0. -1.
         -5    1    3    3    0  503 -0.49066229381E+02  0.30546836450E+02 -0.44404649137E+03  0.44781690519E+03  0.47000000000E+01 0.  1.
         13    1    4    4    0    0  0.74246332639E+02  0.62080731138E+02 -0.40491520832E+03  0.41632062286E+03  0.00000000000E+00 0. -1.
        -14    1    4    4    0    0  0.62015396388E+01  0.10046788597E+03 -0.51674748267E+03  0.52646008021E+03  0.00000000000E+00 0.  1.
</event>
<event>
12    1  0.8196217E-002  0.1977659E+03  0.7818608E-02  0.1153073E+00
         21   -1    0    0  501  502  0.00000000000E+00  0.00000000000E+00  0.33957857615E+02  0.33957857615E+02  0.00000000000E+00 0.  1.
         21   -1    0    0  502  503 -0.00000000000E+00 -0.00000000000E+00 -0.13922503618E+04  0.13922503618E+04  0.00000000000E+00 0.  1.
         -6    2    1    2    0  503  0.71527345759E+02 -0.65885986732E+02 -0.98886464333E+03  0.10071756700E+04  0.16459776107E+03 0.  0.
        -24    2    3    3    0    0  0.39757934083E+02 -0.73493176554E+02 -0.37618048252E+03  0.39360323273E+03  0.80186090220E+02 0.  0.
          6    2    1    2  501    0 -0.71527345759E+02  0.65885986732E+02 -0.36942786085E+03  0.41903254942E+03  0.17220397401E+03 0.  0.
         24    2    5    5    0    0 -0.27359899988E+01  0.81334853183E+02 -0.14746156722E+03  0.18609040293E+03  0.79132043281E+02 0.  0.
          5    1    5    5  501    0 -0.68791355761E+02 -0.15448866451E+02 -0.22196629364E+03  0.23294214649E+03  0.47000000000E+01 0. -1.
        -13    1    6    6    0    0 -0.39073703210E+02  0.59047494885E+02 -0.88686207035E+02  0.11348393830E+03  0.00000000000E+00 0.  1.
         14    1    6    6    0    0  0.36337713211E+02  0.22287358298E+02 -0.58775360181E+02  0.72606464627E+02  0.00000000000E+00 0. -1.
         -5    1    3    3    0  503  0.31769411677E+02  0.76071898222E+01 -0.61268416081E+03  0.61357243726E+03  0.47000000000E+01 0.  1.
         13    1    4    4    0    0  0.36647569935E+02 -0.77024023864E+01 -0.60712072437E+02  0.71332510991E+02  0.00000000000E+00 0. -1.
        -14    1    4    4    0    0  0.31103641482E+01 -0.65790774167E+02 -0.31546841009E+03  0.32227072174E+03  0.00000000000E+00 0.  1.
</event>
<event>
12    1  0.8196217E-002  0.1915475E+03  0.7818608E-02  0.1157172E+00
         21   -1    0    0  503  502  0.00000000000E+00  0.00000000000E+00  0.14731326973E+03  0.14731326973E+03  0.00000000000E+00 0.  1.
         21   -1    0    0  501  503 -0.00000000000E+00 -0.00000000000E+00 -0.26324260743E+03  0.26324260743E+03  0.00000000000E+00 0. -1.
          6    2    1    2  501    0 -0.18033937717E+02 -0.81817467539E+02 -0.94309387623E+01  0.19177956291E+03  0.17225311968E+03 0.  0.
         24    2    3    3    0    0 -0.16346511398E+02  0.10560204518E+02  0.32787016909E+02  0.90089211929E+02  0.81623227538E+02 0.  0.
         -6    2    1    2    0  502  0.18033937717E+02  0.81817467539E+02 -0.10649839894E+03  0.21877631424E+03  0.17176101360E+03 0.  0.
        -24    2    5    5    0    0  0.59291303030E+02  0.89702563195E+02 -0.37727819424E+02  0.13805563825E+03  0.77935630077E+02 0.  0.
          5    1    3    3  501    0 -0.16874263195E+01 -0.92377672057E+02 -0.42217955671E+02  0.10169035098E+03  0.47000000000E+01 0. -1.
        -11    1    4    4    0    0  0.29676736008E+02 -0.76338379530E+01 -0.14724525288E+00  0.30643201908E+02  0.00000000000E+00 0.  1.
         12    1    4    4    0    0 -0.46023247406E+02  0.18194042471E+02  0.32934262162E+02  0.59446010021E+02  0.00000000000E+00 0. -1.
         -5    1    5    5    0  502 -0.41257365313E+02 -0.78850956556E+01 -0.68770579512E+02  0.80720675991E+02  0.47000000000E+01 0.  1.
         11    1    6    6    0    0  0.25909675602E+02  0.19260781859E+02 -0.49624393464E+02  0.59201937758E+02  0.00000000000E+00 0. -1.
        -12    1    6    6    0    0  0.33381627428E+02  0.70441781336E+02  0.11896574039E+02  0.78853700493E+02  0.00000000000E+00 0.  1.
</event>
<event>
12    1  0.8196217E-002  0.2899863E+03  0.7818608E-02  0.1090400E+00
         21   -1    0    0  503  502  0.00000000000E+00  0.00000000000E+00  0.64562575472E+03  0.64562575472E+03  0.00000000000E+00 0.  1.
         21   -1    0    0  501  503 -0.00000000000E+00 -0.00000000000E+00 -0.16809240582E+03  0.16809240582E+03  0.00000000000E+00 0. -1.
          6    2    1    2  501    0 -0.19698790610E+03 -0.12413444190E+03  0.45224917856E+02  0.29315825605E+03  0.17228718780E+03 0.  0.
         24    2    3    3    0    0 -0.77482151603E+02 -0.16850511132E+02  0.71331104693E+02  0.13038513127E+03  0.74998216093E+02 0.  0.
         -6    2    1    2    0  502  0.19698790610E+03  0.12413444190E+03  0.43230843105E+03  0.52055990449E+03  0.17285381047E+03 0.  0.
        -24    2    5    5    0    0  0.15697472583E+03  0.15873054905E+03  0.36005943982E+03  0.43089412530E+03  0.78679700440E+02 0.  0.
          5    1    3    3  501    0 -0.11950575450E+03 -0.10728393077E+03 -0.26106186837E+02  0.16277312478E+03  0.47000000000E+01 0. -1.
        -13    1    4    4    0    0 -0.77991355752E+02 -0.32761006603E+02  0.36582974826E+02  0.92164251057E+02  0.00000000000E+00 0.  1.
         14    1    4    4    0    0  0.50920414952E+00  0.15910495471E+02  0.34748129867E+02  0.38220880213E+02  0.00000000000E+00 0. -1.
         -5    1    5    5    0  502  0.40013180274E+02 -0.34596107149E+02  0.72248991227E+02  0.89665779195E+02  0.47000000000E+01 0.  1.
         13    1    6    6    0    0  0.46816592606E+02  0.98860367054E+02  0.19541919663E+03  0.22395050330E+03  0.00000000000E+00 0. -1.
        -14    1    6    6    0    0  0.11015813322E+03  0.59870181996E+02  0.16464024319E+03  0.20694362199E+03  0.00000000000E+00 0.  1.
</event>
<event>
12    1  0.8196217E-002  0.1924837E+03  0.7818608E-02  0.1156288E+00
         21   -1    0    0  501  502  0.00000000000E+00  0.00000000000E+00  0.19362380501E+03  0.19362380501E+03  0.00000000000E+00 0.  1.
         21   -1    0    0  502  503 -0.00000000000E+00 -0.00000000000E+00 -0.19133898056E+03  0.19133898056E+03  0.00000000000E+00 0. -1.
         -6    2    1    2    0  503  0.12770412426E+02 -0.86352548239E+02  0.74018095023E+01  0.19241110368E+03  0.17131082866E+03 0.  0.
        -24    2    3    3    0    0  0.54845356434E+02 -0.62883356722E+02 -0.42477574007E+02  0.12290465245E+03  0.79617081241E+02 0.  0.
          6    2    1    2  501    0 -0.12770412426E+02  0.86352548239E+02 -0.51169850544E+01  0.19255168188E+03  0.17155209307E+03 0.  0.
         24    2    5    5    0    0 -0.55719364600E+02  0.63681729844E+01 -0.17613596549E+02  0.10078911829E+03  0.81871889949E+02 0.  0.
          5    1    5    5  501    0  0.42948952174E+02  0.79984375255E+02  0.12496611494E+02  0.91762563590E+02  0.47000000000E+01 0. -1.
        -13    1    6    6    0    0  0.33063461699E+01 -0.29086841564E+02  0.15541454573E+01  0.29315382400E+02  0.00000000000E+00 0.  1.
         14    1    6    6    0    0 -0.59025710770E+02  0.35455014549E+02 -0.19167742006E+02  0.71473735891E+02  0.00000000000E+00 0. -1.
         -5    1    3    3    0  503 -0.42074944007E+02 -0.23469191517E+02  0.49879383509E+02  0.69506451232E+02  0.47000000000E+01 0.  1.
         11    1    4    4    0    0  0.49138339755E+02 -0.19263239673E+01 -0.36794975196E+02  0.61417891184E+02  0.00000000000E+00 0. -1.
        -12    1    4    4    0    0  0.57070166787E+01 -0.60957032755E+02 -0.56825988111E+01  0.61486761266E+02  0.00000000000E+00 0.  1.
</event>
<event>
12    1  0.8196217E-002  0.1965152E+03  0.7818608E-02  0.1152867E+00
         21   -1    0    0  501  502  0.00000000000E+00  0.00000000000E+00  0.13757382319E+04  0.13757382319E+04  0.00000000000E+00 0.  1.
         21   -1    0    0  502  503 -0.00000000000E+00 -0.00000000000E+00 -0.13627904663E+03  0.13627904663E+03  0.00000000000E+00 0. -1.
         -6    2    1    2    0  503  0.93742811521E+02  0.89141368380E+01 -0.54017748832E+02  0.20380412873E+03  0.17248486644E+03 0.  0.
        -24    2    3    3    0    0 -0.13002630901E+01 -0.48084075110E+01  0.16916962987E+02  0.84324768185E+02  0.82460120215E+02 0.  0.
          6    2    1    2  501    0 -0.93742811521E+02 -0.89141368380E+01  0.12934769341E+04  0.13082131498E+04  0.17167378873E+03 0.  0.
         24    2    5    5    0    0 -0.35002528105E+02  0.57065055898E+02  0.81301268093E+03  0.81967281029E+03  0.79951854173E+02 0.  0.
          5    1    5    5  501    0 -0.58740283416E+02 -0.65979192736E+02  0.48046425316E+03  0.48854033952E+03  0.47000000000E+01 0. -1.
        -13    1    6    6    0    0 -0.55923775158E+02  0.44113538937E+02  0.71804869911E+03  0.72157287036E+03  0.00000000000E+00 0.  1.
         14    1    6    6    0    0  0.20921247053E+02  0.12951516962E+02  0.94963981825E+02  0.98099939928E+02  0.00000000000E+00 0. -1.
         -5    1    3    3    0  503  0.95043074611E+02  0.13722544349E+02 -0.70934711819E+02  0.11947936054E+03  0.47000000000E+01 0.  1.
         13    1    4    4    0    0 -0.13182095581E+02  0.31428641158E+02 -0.12353763933E+02  0.36251104980E+02  0.00000000000E+00 0. -1.
        -14    1    4    4    0    0  0.11881832491E+02 -0.36237048669E+02  0.29270726920E+02  0.48073663205E+02  0.00000000000E+00 0.  1.
</event>
<event>
12    1  0.8196217E-002  0.2673619E+03  0.7818608E-02  0.1102918E+00
         21   -1    0    0  503  502  0.00000000000E+00  0.00000000000E+00  0.62875696110E+03  0.62875696110E+03  0.00000000000E+00 0.  1.
         21   -1    0    0  501  503 -0.00000000000E+00 -0.00000000000E+00 -0.12513046666E+03  0.12513046666E+03  0.00000000000E+00 0.  1.
          6    2    1    2  501    0  0.20188804228E+03  0.32534005062E+02  0.13645927343E+03  0.30017249329E+03  0.17223573764E+03 0.  0.
         24    2    3    3    0    0  0.22482799240E+03  0.16593037262E+02  0.12037423223E+03  0.26759682268E+03  0.79341972952E+02 0.  0.
         -6    2    1    2    0  502 -0.20188804228E+03 -0.32534005062E+02  0.36716722101E+03  0.45371493447E+03  0.17096265812E+03 0.  0.
        -24    2    5    5    0    0 -0.55781200480E+02  0.45978788094E+02  0.12942520444E+03  0.16379283398E+03  0.69653554366E+02 0.  0.
          5    1    3    3  501    0 -0.22939950112E+02  0.15940967799E+02  0.16085041201E+02  0.32575670614E+02  0.47000000000E+01 0. -1.
        -13    1    4    4    0    0  0.17808425124E+03 -0.19248150883E+02  0.10074469077E+03  0.20550908634E+03  0.00000000000E+00 0.  1.
         14    1    4    4    0    0  0.46743741156E+02  0.35841188146E+02  0.19629541458E+02  0.62087736332E+02  0.00000000000E+00 0. -1.
         -5    1    5    5    0  502 -0.14610684180E+03 -0.78512793156E+02  0.23774201657E+03  0.28992210049E+03  0.47000000000E+01 0.  1.
         11    1    6    6    0    0 -0.50859324409E+02  0.20560635578E+01  0.42637863972E+02  0.66399440666E+02  0.00000000000E+00 0. -1.
        -12    1    6    6    0    0 -0.49218760708E+01  0.43922724536E+02  0.86787340470E+02  0.97393393311E+02  0.00000000000E+00 0.  1.
</event>
<event>
12    1  0.8196217E-002  0.2306870E+03  0.7818608E-02  0.1126236E+00
         21   -1    0    0  501  502  0.00000000000E+00  0.00000000000E+00  0.15799471912E+04  0.15799471912E+04  0.00000000000E+00 0.  1.
         21   -1    0    0  502  503 -0.00000000000E+00 -0.00000000000E+00 -0.34336444690E+02  0.34336444690E+02  0.00000000000E+00 0.  1.
         -6    2    1    2    0  503  0.14605124231E+03 -0.49788485119E+02  0.65522496606E+03  0.69449925198E+03  0.17087889343E+03 0.  0.
        -24    2    3    3    0    0  0.10407301830E+03 -0.51405339655E+01  0.58963016013E+03  0.60460832141E+03  0.83844369851E+02 0.  0.
          6    2    1    2  501    0 -0.14605124231E+03  0.49788485119E+02  0.89038578044E+03  0.91978438390E+03  0.17148357422E+03 0.  0.
         24    2    5    5    0    0 -0.14622676377E+03  0.72619267842E+02  0.56077088143E+03  0.58934627003E+03  0.78798604277E+02 0.  0.
          5    1    5    5  501    0  0.17552145802E+00 -0.22830782723E+02  0.32961489901E+03  0.33043811386E+03  0.47000000000E+01 0. -1.
        -11    1    6    6    0    0 -0.15003329289E+03  0.53668326528E+02  0.46213803114E+03  0.48883723065E+03  0.00000000000E+00 0.  1.
         12    1    6    6    0    0  0.38065291138E+01  0.18950941315E+02  0.98632850296E+02  0.10050903938E+03  0.00000000000E+00 0. -1.
         -5    1    3    3    0  503  0.41978224015E+02 -0.44647951153E+02  0.65594805927E+02  0.89890930567E+02  0.47000000000E+01 0.  1.
         11    1    4    4    0    0  0.11155179725E+02  0.11227838284E+02  0.13496471912E+02  0.20800412046E+02  0.00000000000E+00 0. -1.
        -12    1    4    4    0    0  0.92917838574E+02 -0.16368372249E+02  0.57613368822E+03  0.58380790937E+03  0.00000000000E+00 0.  1.
</event>
<event>
12    1  0.8196217E-002  0.1947359E+03  0.7818608E-02  0.1155640E+00
         21   -1    0    0  503  502  0.00000000000E+00  0.00000000000E+00  0.25968214839E+03  0.25968214839E+03  0.00000000000E+00 0. -1.
         21   -1    0    0  501  503 -0.00000000000E+00 -0.00000000000E+00 -0.14416603076E+03  0.14416603076E+03  0.00000000000E+00 0. -1.
          6    2    1    2  501    0 -0.27657109046E+02  0.69953703188E+02  0.28902862814E+02  0.19071926100E+03  0.17285839513E+03 0.  0.
         24    2    3    3    0    0 -0.82547126767E+02  0.48159602743E+02  0.31174886306E+02  0.13143056941E+03  0.84668444928E+02 0.  0.
         -6    2    1    2    0  502  0.27657109046E+02 -0.69953703188E+02  0.86613254816E+02  0.21312891814E+03  0.17962083278E+03 0.  0.
        -24    2    5    5    0    0 -0.37737899627E+02 -0.61028934587E+02  0.38308501630E+02  0.13120457601E+03  0.10294862575E+03 0.  0.
          5    1    3    3  501    0  0.54890017721E+02  0.21794100446E+02 -0.22720234922E+01  0.59288691589E+02  0.47000000000E+01 0. -1.
        -13    1    4    4    0    0 -0.30743058111E+01  0.18143302553E+02  0.41939352350E+02  0.45798908931E+02  0.00000000000E+00 0.  1.
         14    1    4    4    0    0 -0.79472820956E+02  0.30016300190E+02 -0.10764466044E+02  0.85631660482E+02  0.00000000000E+00 0. -1.
         -5    1    5    5    0  502  0.65395008673E+02 -0.89247686007E+01  0.48304753186E+02  0.81924342136E+02  0.47000000000E+01 0.  1.
         13    1    6    6    0    0  0.27006789337E+02 -0.47260123495E+02 -0.57650424917E+00  0.54435450767E+02  0.00000000000E+00 0. -1.
        -14    1    6    6    0    0 -0.64744688964E+02 -0.13768811092E+02  0.38885005879E+02  0.76769125240E+02  0.00000000000E+00 0.  1.
</event>
<event>
12    1  0.8196217E-002  0.2109111E+03  0.7818608E-02  0.1140862E+00
         21   -1    0    0  501  502  0.00000000000E+00  0.00000000000E+00  0.31782849380E+02  0.31782849380E+02  0.00000000000E+00 0. -1.
         21   -1    0    0  502  503 -0.00000000000E+00 -0.00000000000E+00 -0.14075954277E+04  0.14075954277E+04  0.00000000000E+00 0. -1.
         -6    2    1    2    0  503  0.44781228206E+02  0.11346476557E+03 -0.74377611987E+03  0.77307985485E+03  0.17195910576E+03 0.  0.
        -24    2    3    3    0    0  0.58498082859E+02  0.10468100791E+03 -0.34240999306E+03  0.37135586471E+03  0.79249200573E+02 0.  0.
          6    2    1    2  501    0 -0.44781228206E+02 -0.11346476557E+03 -0.63203645841E+03  0.66629842220E+03  0.17205781364E+03 0.  0.
         24    2    5    5    0    0  0.21422337610E+02 -0.35587010834E+02 -0.43475815604E+03  0.44406279185E+03  0.80322829710E+02 0.  0.
          5    1    5    5  501    0 -0.66203565816E+02 -0.77877754733E+02 -0.19727830237E+03  0.22223563034E+03  0.47000000000E+01 0. -1.
        -13    1    6    6    0    0  0.28645494485E+02  0.15543209305E+02 -0.95752664472E+02  0.10114706354E+03  0.00000000000E+00 0.  1.
         14    1    6    6    0    0 -0.72231568747E+01 -0.51130220139E+02 -0.33900549157E+03  0.34291572831E+03  0.00000000000E+00 0. -1.
         -5    1    3    3    0  503 -0.13716854653E+02  0.87837576594E+01 -0.40136612681E+03  0.40172399014E+03  0.47000000000E+01 0.  1.
         11    1    4    4    0    0  0.25673834078E+02  0.53803616966E+02 -0.27216716480E+03  0.27861970596E+03  0.00000000000E+00 0. -1.
        -12    1    4    4    0    0  0.32824248781E+02  0.50877390942E+02 -0.70242828257E+02  0.92736158744E+02  0.00000000000E+00 0.  1.
</event>
<event>
12    1  0.8196217E-002  0.1878726E+03  0.7818608E-02  0.1160605E+00
         21   -1    0    0  503  502  0.00000000000E+00  0.00000000000E+00  0.24388119010E+03  0.24388119010E+03  0.00000000000E+00 0. -1.
         21   -1    0    0  501  503 -0.00000000000E+00 -0.00000000000E+00 -0.16947425448E+03  0.16947425448E+03  0.00000000000E+00 0. -1.
          6    2    1    2  501    0  0.72425525385E+02 -0.17302870769E+02  0.11737778203E+03  0.22152576747E+03  0.17248558164E+03 0.  0.
         24    2    3    3    0    0  0.10718668359E+03 -0.25074235635E+02  0.48201684679E+02  0.14357607423E+03  0.78568341284E+02 0.  0.
         -6    2    1    2    0  502 -0.72425525385E+02  0.17302870769E+02 -0.42970846411E+02  0.19182967711E+03  0.17148552509E+03 0.  0.
        -24    2    5    5    0    0 -0.18521072624E+02 -0.79448383792E+01  0.37885835284E+02  0.91315848114E+02  0.80604571915E+02 0.  0.
          5    1    3    3  501    0 -0.34761158206E+02  0.77713648658E+01  0.69176097352E+02  0.77949693242E+02  0.47000000000E+01 0. -1.
        -11    1    4    4    0    0  0.13327591936E+02 -0.23412477787E+02  0.41481628484E+02  0.49462049337E+02  0.00000000000E+00 0.  1.
         12    1    4    4    0    0  0.93859091655E+02 -0.16617578479E+01  0.67200561955E+01  0.94114024889E+02  0.00000000000E+00 0. -1.
         -5    1    5    5    0  502 -0.53904452760E+02  0.25247709148E+02 -0.80856681694E+02  0.10051382899E+03  0.47000000000E+01 0.  1.
         13    1    6    6    0    0 -0.70035302617E+01  0.53746810175E+01 -0.24736661599E+02  0.26264787439E+02  0.00000000000E+00 0. -1.
        -14    1    6    6    0    0 -0.11517542363E+02 -0.13319519397E+02  0.62622496883E+02  0.65051060674E+02  0.00000000000E+00 0.  1.
</event>
<event>
12    1  0.8196217E-002  0.1856867E+03  0.7818608E-02  0.1162651E+00
         21   -1    0    0  503  502  0.00000000000E+00  0.00000000000E+00  0.34775234175E+03  0.34775234175E+03  0.00000000000E+00 0.  1.
         21   -1    0    0  501  503 -0.00000000000E+00 -0.00000000000E+00 -0.21285172818E+03  0.21285172818E+03  0.00000000000E+00 0.  1.
          6    2    1    2  501    0 -0.70296643763E+02  0.12297396771E+02 -0.13800039850E+03  0.23052147666E+03  0.17030325047E+03 0.  0.
         24    2    3    3    0    0 -0.74223467689E+02  0.58067121782E+02 -0.53584576388E+02  0.13430085155E+03  0.79274826469E+02 0.  0.
         -6    2    1    2    0  502  0.70296643763E+02 -0.12297396771E+02  0.27290101206E+03  0.33008259327E+03  0.17142552874E+03 0.  0.
        -24    2    5    5    0    0  0.34799597069E+01 -0.24484696166E+02  0.24046867831E+03  0.25467075198E+03  0.80127374833E+02 0.  0.
          5    1    3    3  501    0  0.39268239265E+01 -0.45769725011E+02 -0.84415822111E+02  0.96220625109E+02  0.47000000000E+01 0. -1.
        -11    1    4    4    0    0 -0.21014577520E+02  0.28691498429E+02  0.18438182223E+02  0.40059719347E+02  0.00000000000E+00 0.  1.
         12    1    4    4    0    0 -0.53208890169E+02  0.29375623353E+02 -0.72022758611E+02  0.94241132200E+02  0.00000000000E+00 0. -1.
         -5    1    5    5    0  502  0.66816684056E+02  0.12187299395E+02  0.32432333753E+02  0.75411841294E+02  0.47000000000E+01 0.  1.
         11    1    6    6    0    0 -0.21122460060E+02  0.54220081116E+01  0.16414650562E+02  0.27294637643E+02  0.00000000000E+00 0. -1.
        -12    1    6    6    0    0  0.24602419767E+02 -0.29906704277E+02  0.22405402775E+03  0.22737611433E+03  0.00000000000E+00 0.  1.
</event>
<event>
12    1  0.8196217E-002  0.2157832E+03  0.7818608E-02  0.1137393E+00
         21   -1    0    0  503  502  0.00000000000E+00  0.00000000000E+00  0.14081071691E+03  0.14081071691E+03  0.00000000000E+00 0. -1.
         21   -1    0    0  501  503 -0.00000000000E+00 -0.00000000000E+00 -0.35867775164E+03  0.35867775164E+03  0.00000000000E+00 0.  1.
          6    2    1    2  501    0  0.79736739819E+02 -0.99833053881E+02 -0.18228251805E+03  0.28247004647E+03  0.17389026552E+03 0.  0.
         24    2    3    3    0    0  0.34816087097E+02  0.19603486739E+01 -0.13720416886E+03  0.16232884034E+03  0.79433403337E+02 0.  0.
         -6    2    1    2    0  502 -0.79736739819E+02  0.99833053881E+02 -0.35584516689E+02  0.21701842208E+03  0.17177354678E+03 0.  0.
        -24    2    5    5    0    0 -0.23621682856E+02  0.52870861673E+01 -0.67063896760E+02  0.10255934207E+03  0.73721877454E+02 0.  0.
          5    1    3    3  501    0  0.44920652722E+02 -0.10179340255E+03 -0.45078349186E+02  0.12014120613E+03  0.47000000000E+01 0. -1.
        -13    1    4    4    0    0  0.56455548575E+02 -0.14340159091E+02 -0.10644325065E+03  0.12133851300E+03  0.00000000000E+00 0.  1.
         14    1    4    4    0    0 -0.21639461478E+02  0.16300507765E+02 -0.30760918210E+02  0.40990327342E+02  0.00000000000E+00 0. -1.
         -5    1    5    5    0  502 -0.56115056963E+02  0.94545967714E+02  0.31479380070E+02  0.11445908002E+03  0.47000000000E+01 0.  1.
         13    1    6    6    0    0 -0.37320021122E+01 -0.10529849518E+02  0.13823859291E+02  0.17773706883E+02  0.00000000000E+00 0. -1.
        -14    1    6    6    0    0 -0.19889680743E+02  0.15816935685E+02 -0.80887756051E+02  0.84785635184E+02  0.00000000000E+00 0.  1.
</event>
<event>
12    1  0.8196217E-002  0.2195900E+03  0.7818608E-02  0.1134624E+00
         21   -1    0    0  503  502  0.00000000000E+00  0.00000000000E+00  0.41279270659E+03  0.41279270659E+03  0.00000000000E+00 0.  1.
         21   -1    0    0  501  503 -0.00000000000E+00 -0.00000000000E+00 -0.19406785082E+03  0.19406785082E+03  0.00000000000E+00 0. -1.
          6    2    1    2  501    0  0.67653884756E+02  0.11857240957E+03 -0.83252086286E+02  0.23484184124E+03  0.17199801188E+03 0.  0.
         24    2    3    3    0    0 -0.15242654939E+01  0.98795264230E+02 -0.52963764090E+01  0.12865363732E+03  0.82224565505E+02 0.  0.
         -6    2    1    2    0  502 -0.67653884756E+02 -0.11857240957E+03  0.30197694205E+03  0.37201871617E+03  0.16903072860E+03 0.  0.
        -24    2    5    5    0    0 -0.56342602678E+02 -0.20235406182E+02  0.77220136750E+02  0.12638520284E+03  0.80164265343E+02 0.  0.
          5    1    3    3  501    0  0.69178150250E+02  0.19777145345E+02 -0.77955709877E+02  0.10618820392E+03  0.47000000000E+01 0. -1.
        -13    1    4    4    0    0 -0.23871702373E+02  0.58758116894E+01 -0.20340263333E+02  0.31907830539E+02  0.00000000000E+00 0.  1.
         14    1    4    4    0    0  0.22347436880E+02  0.92919452541E+02  0.15043886924E+02  0.96745806779E+02  0.00000000000E+00 0. -1.
         -5    1    5    5    0  502 -0.11311282078E+02 -0.98337003393E+02  0.22475680530E+03  0.24563351332E+03  0.47000000000E+01 0.  1.
         13    1    6    6    0    0  0.15170924481E+02  0.11248702983E+02  0.28868978667E+02  0.34497944833E+02  0.00000000000E+00 0. -1.
        -14    1    6    6    0    0 -0.71513527159E+02 -0.31484109164E+02  0.48351158083E+02  0.91887258010E+02  0.00000000000E+00 0.  1.
</event>
<event>
12    1  0.8196217E-002  0.2562110E+03  0.7818608E-02  0.1109746E+00
         21   -1    0    0  501  502  0.00000000000E+00  0.00000000000E+00  0.21954174445E+03  0.21954174445E+03  0.00000000000E+00 0.  1.
         21   -1    0    0  502  503 -0.00000000000E+00 -0.00000000000E+00 -0.63669465816E+03  0.63669465816E+03  0.00000000000E+00 0. -1.
         -6    2    1    2    0  503  0.19127925699E+03  0.30207001955E+01 -0.52104747270E+03  0.57976193568E+03  0.16744119706E+03 0.  0.
        -24    2    3    3    0    0  0.18038721073E+03  0.31727614566E+01 -0.30388693144E+03  0.36227756733E+03  0.79675319172E+02 0.  0.
          6    2    1    2  501    0 -0.19127925699E+03 -0.30207001955E+01  0.10389455899E+03  0.27647446693E+03  0.17043231117E+03 0.  0.
         24    2    5    5    0    0 -0.16761839827E+03  0.22467072569E+02  0.13421181901E+03  0.23009894482E+03  0.79573960918E+02 0.  0.
          5    1    5    5  501    0 -0.23660858722E+02 -0.25487772765E+02 -0.30317260021E+02  0.46375522112E+02  0.47000000000E+01 0. -1.
        -11    1    6    6    0    0 -0.16354742621E+02  0.15428625968E+02  0.54537040029E+02  0.58989904565E+02  0.00000000000E+00 0.  1.
         12    1    6    6    0    0 -0.15126365565E+03  0.70384466010E+01  0.79674778985E+02  0.17110904026E+03  0.00000000000E+00 0. -1.
         -5    1    3    3    0  503  0.10892046266E+02 -0.15206126117E+00 -0.21716054126E+03  0.21748436834E+03  0.47000000000E+01 0.  1.
         11    1    4    4    0    0  0.11934110747E+03 -0.13949711188E+02 -0.12917548764E+03  0.17641768897E+03  0.00000000000E+00 0. -1.
        -12    1    4    4    0    0  0.61046103262E+02  0.17122472644E+02 -0.17471144379E+03  0.18585987836E+03  0.00000000000E+00 0.  1.
</event>
<event>
12    1  0.8196217E-002  0.2051201E+03  0.7818608E-02  0.1145543E+00
         21   -1    0    0  503  502  0.00000000000E+00  0.00000000000E+00  0.13728466134E+04  0.13728466134E+04  0.00000000000E+00 0.  1.
         21   -1    0    0  501  503 -0.00000000000E+00 -0.00000000000E+00 -0.70008335771E+02  0.70008335771E+02  0.00000000000E+00 0.  1.
          6    2    1    2  501    0 -0.39043954081E+02 -0.10314906904E+03  0.11039200634E+03  0.23293914545E+03  0.17294533709E+03 0.  0.
         24    2    3    3    0    0 -0.19363799369E+02 -0.13835965545E+03  0.10157043118E+03  0.19138190693E+03  0.82414384836E+02 0.  0.
         -6    2    1    2    0  502  0.39043954081E+02  0.10314906904E+03  0.11924462713E+04  0.12099158038E+04  0.17263829644E+03 0.  0.
        -24    2    5    5    0    0  0.74246797810E+02  0.11233455023E+03  0.77307304916E+03  0.78894121696E+03  0.81576138098E+02 0.  0.
          5    1    3    3  501    0 -0.19680154712E+02  0.35210586408E+02  0.88215751601E+01  0.41557238515E+02  0.47000000000E+01 0. -1.
        -13    1    4    4    0    0 -0.38894642879E+02 -0.88107554999E+02  0.28240962868E+02  0.10036576347E+03  0.00000000000E+00 0.  1.
         14    1    4    4    0    0  0.19530843510E+02 -0.50252100453E+02  0.73329468313E+02  0.91016143464E+02  0.00000000000E+00 0. -1.
         -5    1    5    5    0  502 -0.35202843729E+02 -0.91854811815E+01  0.41937322216E+03  0.42097458681E+03  0.47000000000E+01 0.  1.
         11    1    6    6    0    0  0.23464740575E+02  0.87621324508E+02  0.32844255783E+03  0.34073832240E+03  0.00000000000E+00 0. -1.
        -12    1    6    6    0    0  0.50782057235E+02  0.24713225718E+02  0.44463049134E+03  0.44820289456E+03  0.00000000000E+00 0.  1.
</event>
<event>
12    1  0.8196217E-002  0.1877737E+03  0.7818608E-02  0.1160981E+00
         21   -1    0    0  501  502  0.00000000000E+00  0.00000000000E+00  0.27355389769E+03  0.27355389769E+03  0.00000000000E+00 0.  1.
         21   -1    0    0  502  503 -0.00000000000E+00 -0.00000000000E+00 -0.16558343336E+03  0.16558343336E+03  0.00000000000E+00 0.  1.
         -6    2    1    2    0  503 -0.71331583763E+02 -0.21070784829E+02 -0.51665266829E+02  0.19267737410E+03  0.17006792137E+03 0.  0.
        -24    2    3    3    0    0 -0.10264784242E+03 -0.36046159274E+02 -0.60005638387E+01  0.13512457230E+03  0.79917070263E+02 0.  0.
          6    2    1    2  501    0  0.71331583763E+02  0.21070784829E+02  0.15963573116E+03  0.24645995695E+03  0.17241453217E+03 0.  0.
         24    2    5    5    0    0 -0.26450939457E+02  0.13545239807E+01  0.41639990874E+02  0.91879112363E+02  0.77500938802E+02 0.  0.
          5    1    5    5  501    0  0.97782523220E+02  0.19716260849E+02  0.11799574028E+03  0.15458084459E+03  0.47000000000E+01 0. -1.
        -11    1    6    6    0    0  0.10524766231E+01  0.36703639763E+02  0.23260548346E+02  0.43466285650E+02  0.00000000000E+00 0.  1.
         12    1    6    6    0    0 -0.27503416080E+02 -0.35349115782E+02  0.18379442528E+02  0.48412826713E+02  0.00000000000E+00 0. -1.
         -5    1    3    3    0  503  0.31316258659E+02  0.14975374445E+02 -0.45664702990E+02  0.57552801803E+02  0.47000000000E+01 0.  1.
         11    1    4    4    0    0 -0.52899205991E+02 -0.15785417868E+01 -0.39418054449E+02  0.65989399188E+02  0.00000000000E+00 0. -1.
        -12    1    4    4    0    0 -0.49748636432E+02 -0.34467617487E+02  0.33417490610E+02  0.69135173109E+02  0.00000000000E+00 0.  1.
</event>
<event>
12    1  0.8196217E-002  0.1895282E+03  0.7818608E-02  0.1159148E+00
         21   -1    0    0  501  502  0.00000000000E+00  0.00000000000E+00  0.41300713781E+03  0.41300713781E+03  0.00000000000E+00 0.  1.
         21   -1    0    0  502  503 -0.00000000000E+00 -0.00000000000E+00 -0.89691964734E+02  0.89691964734E+02  0.00000000000E+00 0.  1.
         -6    2    1    2    0  503  0.16637087428E+02  0.80752767262E+02  0.11339086675E+03  0.21987558684E+03  0.16938117643E+03 0.  0.
        -24    2    3    3    0    0  0.57550975338E+02  0.27479815747E+02  0.11411090270E+03  0.15253643004E+03  0.78605402730E+02 0.  0.
          6    2    1    2  501    0 -0.16637087428E+02 -0.80752767262E+02  0.20992430633E+03  0.28282351570E+03  0.17065498688E+03 0.  0.
         24    2    5    5    0    0 -0.32853448610E+02  0.17705044000E+02  0.11449902395E+03  0.14467509737E+03  0.80175056262E+02 0.  0.
          5    1    5    5  501    0  0.16216361181E+02 -0.98457811262E+02  0.95425282381E+02  0.13814841833E+03  0.47000000000E+01 0. -1.
        -11    1    6    6    0    0  0.29187646294E+01 -0.29034415147E+02  0.31673327242E+02  0.43066415087E+02  0.00000000000E+00 0.  1.
         12    1    6    6    0    0 -0.35772213239E+02  0.46739459147E+02  0.82825696706E+02  0.10160868229E+03  0.00000000000E+00 0. -1.
         -5    1    3    3    0  503 -0.40913887910E+02  0.53272951515E+02 -0.72003595484E+00  0.67339156802E+02  0.47000000000E+01 0.  1.
         13    1    4    4    0    0 -0.19704521741E+02  0.18617231600E+01  0.24012114940E+02  0.31117773925E+02  0.00000000000E+00 0. -1.
        -14    1    4    4    0    0  0.77255497080E+02  0.25618092587E+02  0.90098787762E+02  0.12141865612E+03  0.00000000000E+00 0.  1.
</event>
<event>
12    1  0.8196217E-002  0.2239374E+03  0.7818608E-02  0.1133220E+00
         21   -1    0    0  501  502  0.00000000000E+00  0.00000000000E+00  0.11532577062E+04  0.11532577062E+04  0.00000000000E+00 0. -1.
         21   -1    0    0  502  503 -0.00000000000E+00 -0.00000000000E+00 -0.52938741477E+02  0.52938741477E+02  0.00000000000E+00 0. -1.
         -6    2    1    2    0  503 -0.10567257975E+03 -0.66144814095E+02  0.25448523186E+03  0.33122064321E+03  0.17147171986E+03 0.  0.
        -24    2    3    3    0    0  0.50088124854E+01 -0.79988521910E+01  0.14105109653E+03  0.16233986712E+03  0.79810718497E+02 0.  0.
          6    2    1    2  501    0  0.10567257975E+03  0.66144814095E+02  0.84583373283E+03  0.87497580443E+03  0.18602721362E+03 0.  0.
         24    2    5    5    0    0  0.93629349971E+02  0.88577456233E+02  0.38990597164E+03  0.41831348254E+03  0.79668576130E+02 0.  0.
          5    1    5    5  501    0  0.12043229779E+02 -0.22432642138E+02  0.45592776119E+03  0.45666232189E+03  0.47000000000E+01 0. -1.
        -11    1    6    6    0    0 -0.71313780029E+01  0.35757634100E+02  0.72863186755E+02  0.81477045434E+02  0.00000000000E+00 0.  1.
         12    1    6    6    0    0  0.10076072797E+03  0.52819822133E+02  0.31704278489E+03  0.33683643710E+03  0.00000000000E+00 0. -1.
         -5    1    3    3    0  503 -0.11068139224E+03 -0.58145961904E+02  0.11343413533E+03  0.16888077608E+03  0.47000000000E+01 0.  1.
         11    1    4    4    0    0 -0.16833054617E+02 -0.22560450410E+02  0.11921048703E+02  0.30568563143E+02  0.00000000000E+00 0. -1.
        -12    1    4    4    0    0  0.21841867103E+02  0.14561598219E+02  0.12913004782E+03  0.13177130398E+03  0.00000000000E+00 0.  1.
</event>
<event>
12    1  0.8196217E-002  0.2319082E+03  0.7818608E-02  0.1125457E+00
         21   -1    0    0  501  502  0.00000000000E+00  0.00000000000E+00  0.15130771727E+03  0.15130771727E+03  0.00000000000E+00 0.  1.
         21   -1    0    0  502  503 -0.00000000000E+00 -0.00000000000E+00 -0.37053445063E+03  0.37053445063E+03  0.00000000000E+00 0.  1.
         -6    2    1    2    0  503  0.15421665160E+03  0.93468244614E+01 -0.16475872711E+03  0.28447642611E+03  0.17294872099E+03 0.  0.
        -24    2    3    3    0    0  0.16369739774E+03 -0.24378639289E+01 -0.18490738086E+03  0.25884789365E+03  0.77515878024E+02 0.  0.
          6    2    1    2  501    0 -0.15421665160E+03 -0.93468244614E+01 -0.54468006251E+02  0.23736574179E+03  0.17177192119E+03 0.  0.
         24    2    5    5    0    0 -0.17118737788E+03 -0.37355701701E+02 -0.65178668051E+02  0.20259059217E+03  0.78064860675E+02 0.  0.
          5    1    5    5  501    0  0.16970726276E+02  0.28008877240E+02  0.10710661800E+02  0.34775149615E+02  0.47000000000E+01 0. -1.
        -11    1    6    6    0    0 -0.84697695622E+02  0.15954015734E+02 -0.50621558092E+02  0.99953851378E+02  0.00000000000E+00 0.  1.
         12    1    6    6    0    0 -0.86489682259E+02 -0.53309717435E+02 -0.14557109958E+02  0.10263674079E+03  0.00000000000E+00 0. -1.
         -5    1    3    3    0  503 -0.94807461368E+01  0.11784688390E+02  0.20148653751E+02  0.25628532454E+02  0.47000000000E+01 0.  1.
         13    1    4    4    0    0  0.64628835586E+01  0.14958587527E+02 -0.10898022851E+01  0.16331438201E+02  0.00000000000E+00 0. -1.
        -14    1    4    4    0    0  0.15723451418E+03 -0.17396451456E+02 -0.18381757857E+03  0.24251645545E+03  0.00000000000E+00 0.  1.
</event>
<event>
12    1  0.8196217E-002  0.1846375E+03  0.7818608E-02  0.1164854E+00
         21   -1    0    0  503  502  0.00000000000E+00  0.00000000000E+00  0.53400693975E+03  0.53400693975E+03  0.00000000000E+00 0.  1.
         21   -1    0    0  501  503 -0.00000000000E+00 -0.00000000000E+00 -0.71827048436E+02  0.71827048436E+02  0.00000000000E+00 0.  1.
          6    2    1    2  501    0 -0.42254843381E+02 -0.15527389731E+02  0.34127494945E+03  0.38513283945E+03  0.17271983464E+03 0.  0.
         24    2    3    3    0    0  0.23406027676E+02  0.76014351593E+01  0.28244336269E+03  0.29386653609E+03  0.77315353948E+02 0.  0.
         -6    2    1    2    0  502  0.42254843381E+02  0.15527389731E+02  0.12090494186E+03  0.22070114873E+03  0.17906540834E+03 0.  0.
        -24    2    5    5    0    0  0.91366673107E+02  0.23795456430E+02  0.11769773749E+03  0.17057422078E+03  0.79553219193E+02 0.  0.
          5    1    3    3  501    0 -0.65660871057E+02 -0.23128824891E+02  0.58831586760E+02  0.91266303363E+02  0.47000000000E+01 0. -1.
        -11    1    4    4    0    0 -0.47539845465E+01  0.20867639876E+02  0.19087464707E+02  0.28677344229E+02  0.00000000000E+00 0.  1.
         12    1    4    4    0    0  0.28160012223E+02 -0.13266204717E+02  0.26335589798E+03  0.26518919186E+03  0.00000000000E+00 0. -1.
         -5    1    5    5    0  502 -0.49111829727E+02 -0.82680666981E+01  0.32072043726E+01  0.50126927952E+02  0.47000000000E+01 0.  1.
         11    1    6    6    0    0  0.27901454863E+02  0.39028976884E+02  0.84926359216E+02  0.97540959139E+02  0.00000000000E+00 0. -1.
        -12    1    6    6    0    0  0.63465218244E+02 -0.15233520455E+02  0.32771378271E+02  0.73033261642E+02  0.00000000000E+00 0.  1.
</event>
<event>
12    1  0.8196217E-002  0.2090552E+03  0.7818608E-02  0.1142957E+00
         21   -1    0    0  503  502  0.00000000000E+00  0.00000000000E+00  0.10481192888E+03  0.10481192888E+03  0.00000000000E+00 0. -1.
         21   -1    0    0  501  503 -0.00000000000E+00 -0.00000000000E+00 -0.88394124493E+03  0.88394124493E+03  0.00000000000E+00 0.  1.
          6    2    1    2  501    0  0.11319057245E+03 -0.12747197772E+02 -0.74992510966E+03  0.77766801250E+03  0.17147965135E+03 0.  0.
         24    2    3    3    0    0  0.10428605449E+03  0.11837112356E+02 -0.73275939838E+03  0.74603843160E+03  0.92850994135E+02 0.  0.
         -6    2    1    2    0  502 -0.11319057245E+03  0.12747197772E+02 -0.29204206392E+02  0.21108516131E+03  0.17529821138E+03 0.  0.
        -24    2    5    5    0    0 -0.34129924414E+02 -0.26538158096E+02  0.39948241218E+02  0.98844009037E+02  0.79404978248E+02 0.  0.
          5    1    3    3  501    0  0.89045179584E+01 -0.24584310128E+02 -0.17165711278E+02  0.31629580905E+02  0.47000000000E+01 0. -1.
        -13    1    4    4    0    0  0.72254362681E+00  0.33991052872E+02 -0.16047007295E+03  0.16403218604E+03  0.00000000000E+00 0.  1.
         14    1    4    4    0    0  0.10356351087E+03 -0.22153940516E+02 -0.57228932544E+03  0.58200624556E+03  0.00000000000E+00 0. -1.
         -5    1    5    5    0  502 -0.79060648036E+02  0.39285355868E+02 -0.69152447611E+02  0.11224115228E+03  0.47000000000E+01 0.  1.
         13    1    6    6    0    0 -0.33336290796E+01  0.93505271476E+01  0.49595581006E+02  0.50579314904E+02  0.00000000000E+00 0. -1.
        -14    1    6    6    0    0 -0.30796295335E+02 -0.35888685244E+02 -0.96473397877E+01  0.48264694134E+02  0.00000000000E+00 0.  1.
</event>
<event>
12    1  0.8196217E-002  0.1921161E+03  0.7818608E-02  0.1156948E+00
         21   -1    0    0  501  502  0.00000000000E+00  0.00000000000E+00  0.41445360275E+03  0.41445360275E+03  0.00000000000E+00 0.  1.
         21   -1    0    0  502  503 -0.00000000000E+00 -0.00000000000E+00 -0.16032014596E+03  0.16032014596E+03  0.00000000000E+00 0.  1.
         -6    2    1    2    0  503 -0.42819019045E+02 -0.67204130140E+02 -0.65288141649E+02  0.20290670351E+03  0.17481054141E+03 0.  0.
        -24    2    3    3    0    0 -0.66401657225E+02  0.13290083591E+02 -0.15815058134E+02  0.10541242029E+03  0.79220299690E+02 0.  0.
          6    2    1    2  501    0  0.42819019045E+02  0.67204130140E+02  0.31942159843E+03  0.37186704521E+03  0.17293084822E+03 0.  0.
         24    2    5    5    0    0  0.92558085925E+02  0.72032291109E+02  0.25668321662E+03  0.29152104055E+03  0.73093044503E+02 0.  0.
          5    1    5    5  501    0 -0.49739066880E+02 -0.48281609695E+01  0.62738381813E+02  0.80346004661E+02  0.47000000000E+01 0. -1.
        -11    1    6    6    0    0  0.10187702215E+03  0.48717957074E+02  0.20435031306E+03  0.23347680277E+03  0.00000000000E+00 0.  1.
         12    1    6    6    0    0 -0.93189362293E+01  0.23314334036E+02  0.52332903558E+02  0.58044237774E+02  0.00000000000E+00 0. -1.
         -5    1    3    3    0  503  0.23582638180E+02 -0.80494213731E+02 -0.49473083515E+02  0.97494283218E+02  0.47000000000E+01 0.  1.
         11    1    4    4    0    0 -0.47815255245E+02 -0.25024932672E+02  0.11014213953E+02  0.55080475655E+02  0.00000000000E+00 0. -1.
        -12    1    4    4    0    0 -0.18586401980E+02  0.38315016263E+02 -0.26829272087E+02  0.50331944632E+02  0.00000000000E+00 0.  1.
</event>
<event>
12    1  0.8196217E-002  0.1792493E+03  0.7818608E-02  0.1168679E+00
         21   -1    0    0  501  502  0.00000000000E+00  0.00000000000E+00  0.75834522748E+02  0.75834522748E+02  0.00000000000E+00 0. -1.
         21   -1    0    0  502  503 -0.00000000000E+00 -0.00000000000E+00 -0.77103478498E+03  0.77103478498E+03  0.00000000000E+00 0. -1.
         -6    2    1    2    0  503  0.45246217457E+02 -0.20138169665E+02 -0.63206524920E+03  0.65682631689E+03  0.17164371599E+03 0.  0.
        -24    2    3    3    0    0 -0.13337233823E+02 -0.53101293247E+02 -0.26155048185E+03  0.28023386993E+03  0.84408164004E+02 0.  0.
          6    2    1    2  501    0 -0.45246217457E+02  0.20138169665E+02 -0.63135013033E+02  0.19004299084E+03  0.17227171104E+03 0.  0.
         24    2    5    5    0    0 -0.22499555739E+02  0.56270788216E+02 -0.93778170848E+02  0.13727870497E+03  0.79865298445E+02 0.  0.
          5    1    5    5  501    0 -0.22746661718E+02 -0.36132618551E+02  0.30643157815E+02  0.52764285871E+02  0.47000000000E+01 0. -1.
        -13    1    6    6    0    0  0.20476925852E+02  0.50630277205E+02 -0.37526781767E+02  0.66264536609E+02  0.00000000000E+00 0.  1.
         14    1    6    6    0    0 -0.42976481591E+02  0.56405110111E+01 -0.56251389081E+02  0.71014168361E+02  0.00000000000E+00 0. -1.
         -5    1    3    3    0  503  0.58583451280E+02  0.32963123582E+02 -0.37051476735E+03  0.37659244696E+03  0.47000000000E+01 0.  1.
         11    1    4    4    0    0  0.23067006454E+02 -0.17612240492E+02 -0.19145507051E+03  0.19364225217E+03  0.00000000000E+00 0. -1.
        -12    1    4    4    0    0 -0.36404240277E+02 -0.35489052755E+02 -0.70095411342E+02  0.86591617763E+02  0.00000000000E+00 0.  1.
</event>
<event>
12    1  0.8196217E-002  0.1743631E+03  0.7818608E-02  0.1173481E+00
         21   -1    0    0  503  502  0.00000000000E+00  0.00000000000E+00  0.94972808243E+02  0.94972808243E+02  0.00000000000E+00 0. -1.
         21   -1    0    0  501  503 -0.00000000000E+00 -0.00000000000E+00 -0.16130067886E+04  0.16130067886E+04  0.00000000000E+00 0. -1.
          6    2    1    2  501    0  0.16104040902E+02  0.21036584119E+02 -0.15240008288E+04  0.15339429662E+04  0.17233867694E+03 0.  0.
         24    2    3    3    0    0 -0.29130777782E+02 -0.34548937489E+02 -0.58673652413E+03  0.59393104834E+03  0.80325028101E+02 0.  0.
         -6    2    1    2    0  502 -0.16104040902E+02 -0.21036584119E+02  0.59668484253E+01  0.17403663059E+03  0.17190482106E+03 0.  0.
        -24    2    5    5    0    0 -0.35889291475E+02 -0.66295854252E+01  0.66207158136E+02  0.10884458610E+03  0.78305577637E+02 0.  0.
          5    1    3    3  501    0  0.45234818684E+02  0.55585521608E+02 -0.93726430464E+03  0.94001191790E+03  0.47000000000E+01 0. -1.
        -13    1    4    4    0    0  0.50265268862E+00  0.13347126683E+02 -0.18008896065E+02  0.22421391302E+02  0.00000000000E+00 0.  1.
         14    1    4    4    0    0 -0.29633430471E+02 -0.47896064172E+02 -0.56872762807E+03  0.57150965704E+03  0.00000000000E+00 0. -1.
         -5    1    5    5    0  502  0.19785250573E+02 -0.14406998694E+02 -0.60240309710E+02  0.65192044496E+02  0.47000000000E+01 0.  1.
         11    1    6    6    0    0  0.99357268469E+01 -0.31910877857E+02  0.32335661163E+02  0.46503954417E+02  0.00000000000E+00 0. -1.
        -12    1    6    6    0    0 -0.45825018322E+02  0.25281292432E+02  0.33871496973E+02  0.62340631681E+02  0.00000000000E+00 0.  1.
</event>
<event>
12    1  0.8196217E-002  0.1857095E+03  0.7818608E-02  0.1163264E+00
         21   -1    0    0  503  502  0.00000000000E+00  0.00000000000E+00  0.73975869470E+02  0.73975869470E+02  0.00000000000E+00 0. -1.
         21   -1    0    0  501  503 -0.00000000000E+00 -0.00000000000E+00 -0.10967016077E+04  0.10967016077E+04  0.00000000000E+00 0. -1.
          6    2    1    2  501    0 -0.62725647409E+02  0.17344044318E+02 -0.96059244511E+03  0.97837921093E+03  0.17393306777E+03 0.  0.
         24    2    3    3    0    0 -0.22463442575E+02 -0.36661070631E+02 -0.78521091131E+03  0.79044738825E+03  0.80014111227E+02 0.  0.
         -6    2    1    2    0  502  0.62725647409E+02 -0.17344044318E+02 -0.62133293126E+02  0.19229826625E+03  0.16994926999E+03 0.  0.
        -24    2    5    5    0    0  0.87675235729E+02 -0.33335606106E+02  0.15877663372E-01  0.12328506870E+03  0.80006239243E+02 0.  0.
          5    1    3    3  501    0 -0.40262204834E+02  0.54005114948E+02 -0.17538153380E+03  0.18793182268E+03  0.47000000000E+01 0. -1.
        -13    1    4    4    0    0 -0.27187739992E+01 -0.58423417397E+02 -0.60913534667E+03  0.61193672712E+03  0.00000000000E+00 0.  1.
         14    1    4    4    0    0 -0.19744668576E+02  0.21762346766E+02 -0.17607556464E+03  0.17851066113E+03  0.00000000000E+00 0. -1.
         -5    1    5    5    0  502 -0.24949588320E+02  0.15991561788E+02 -0.62149170789E+02  0.69013197546E+02  0.47000000000E+01 0.  1.
         13    1    6    6    0    0 -0.41284951512E+01 -0.20894479367E+02  0.19201824312E+02  0.28676363039E+02  0.00000000000E+00 0. -1.
        -14    1    6    6    0    0  0.91803730880E+02 -0.12441126739E+02 -0.19185946649E+02  0.94608705661E+02  0.00000000000E+00 0.  1.
</event>
<event>
12    1  0.8196217E-002  0.2000832E+03  0.7818608E-02  0.1150936E+00
         21   -1    0    0  501  502  0.00000000000E+00  0.00000000000E+00  0.16316697193E+02  0.16316697193E+02  0.00000000000E+00 0. -1.
         21   -1    0    0  502  503 -0.00000000000E+00 -0.00000000000E+00 -0.24145342304E+04  0.24145342304E+04  0.00000000000E+00 0. -1.
         -6    2    1    2    0  503 -0.21658132660E+02 -0.99302059868E+02 -0.13590067005E+04  0.13736566190E+04  0.17234651475E+03 0.  0.
        -24    2    3    3    0    0 -0.79113842919E+02 -0.72099400468E+02 -0.80404169311E+03  0.81504280541E+03  0.79714532566E+02 0.  0.
          6    2    1    2  501    0  0.21658132660E+02  0.99302059868E+02 -0.10392108327E+04  0.10571943086E+04  0.16544085794E+03 0.  0.
         24    2    5    5    0    0 -0.26530041700E+02  0.27719731262E+02 -0.75239797858E+03  0.75764492499E+03  0.80317417667E+02 0.  0.
          5    1    5    5  501    0  0.48188174360E+02  0.71582328607E+02 -0.28681285415E+03  0.29954938361E+03  0.47000000000E+01 0. -1.
        -11    1    6    6    0    0 -0.30379182057E+02 -0.14969328267E+02 -0.15238986594E+03  0.15610780485E+03  0.00000000000E+00 0.  1.
         12    1    6    6    0    0  0.38491403571E+01  0.42689059528E+02 -0.60000811263E+03  0.60153712014E+03  0.00000000000E+00 0. -1.
         -5    1    3    3    0  503  0.57455710260E+02 -0.27202659400E+02 -0.55496500738E+03  0.55861381359E+03  0.47000000000E+01 0.  1.
         11    1    4    4    0    0 -0.24484631113E+02 -0.48899804340E+02 -0.60159242316E+03  0.60407295224E+03  0.00000000000E+00 0. -1.
        -12    1    4    4    0    0 -0.54629211807E+02 -0.23199596128E+02 -0.20244926995E+03  0.21096985317E+03  0.00000000000E+00 0.  1.
</event>
<event>
12    1  0.8196217E-002  0.1726710E+03  0.7818608E-02  0.1175544E+00
         21   -1    0    0  503  502  0.00000000000E+00  0.00000000000E+00  0.56340732420E+02  0.56340732420E+02  0.00000000000E+00 0. -1.
         21   -1    0    0  501  503 -0.00000000000E+00 -0.00000000000E+00 -0.69379694022E+03  0.69379694022E+03  0.00000000000E+00 0. -1.
          6    2    1    2  501    0  0.18007833779E+02  0.33392234226E+01 -0.50562001139E+03  0.53429098245E+03  0.17169690016E+03 0.  0.
         24    2    3    3    0    0  0.26363519880E+02 -0.19526884928E+02 -0.12295608620E+03  0.15082462663E+03  0.80953903248E+02 0.  0.
         -6    2    1    2    0  502 -0.18007833779E+02 -0.33392234226E+01 -0.13183619641E+03  0.21584669019E+03  0.16992227191E+03 0.  0.
        -24    2    5    5    0    0 -0.66913429039E+02 -0.36730049042E+02 -0.93540315988E+02  0.14516876619E+03  0.80608166295E+02 0.  0.
          5    1    3    3  501    0 -0.83556861017E+01  0.22866108351E+02 -0.38266392519E+03  0.38346635582E+03  0.47000000000E+01 0. -1.
        -11    1    4    4    0    0  0.45822600542E+01 -0.49637235154E+02 -0.63811933785E+02  0.80974163251E+02  0.00000000000E+00 0.  1.
         12    1    4    4    0    0  0.21781259826E+02  0.30110350225E+02 -0.59144152411E+02  0.69850463382E+02  0.00000000000E+00 0. -1.
         -5    1    5    5    0  502  0.48905595261E+02  0.33390825620E+02 -0.38295880425E+02  0.70677923999E+02  0.47000000000E+01 0.  1.
         13    1    6    6    0    0 -0.34634738043E+02  0.20178808520E+01  0.44350565965E+01  0.34975800912E+02  0.00000000000E+00 0. -1.
        -14    1    6    6    0    0 -0.32278690996E+02 -0.38747929894E+02 -0.97975372584E+02  0.11019296528E+03  0.00000000000E+00 0.  1.
</event>
<event>
12    1  0.8196217E-002  0.2156088E+03  0.7818608E-02  0.1137224E+00
         21   -1    0    0  501  502  0.00000000000E+00  0.00000000000E+00  0.42128178744E+03  0.42128178744E+03  0.00000000000E+00 0.  1.
         21   -1    0    0  502  503 -0.00000000000E+00 -0.00000000000E+00 -0.20375913897E+03  0.20375913897E+03  0.00000000000E+00 0.  1.
         -6    2    1    2    0  503 -0.79064996218E+02  0.10177910446E+03 -0.10293129926E+03  0.23880536841E+03  0.17269305685E+03 0.  0.
        -24    2    3    3    0    0 -0.11284037997E+03  0.42656567142E+02 -0.53132107766E+02  0.15431690506E+03  0.80238097185E+02 0.  0.
          6    2    1    2  501    0  0.79064996218E+02 -0.10177910446E+03  0.32045394773E+03  0.38623555800E+03  0.17284939662E+03 0.  0.
         24    2    5    5    0    0  0.11393639755E+03 -0.11242359187E+03  0.26945403473E+03  0.32336743516E+03  0.79626971526E+02 0.  0.
          5    1    5    5  501    0 -0.34871401329E+02  0.10644487412E+02  0.50999913005E+02  0.62868122841E+02  0.47000000000E+01 0. -1.
        -11    1    6    6    0    0  0.34580601117E+02 -0.48259269884E+02  0.17316843263E+03  0.18306305242E+03  0.00000000000E+00 0.  1.
         12    1    6    6    0    0  0.79355796430E+02 -0.64164321989E+02  0.96285602100E+02  0.14030438274E+03  0.00000000000E+00 0. -1.
         -5    1    3    3    0  503  0.33775383753E+02  0.59122537319E+02 -0.49799191489E+02  0.84488463352E+02  0.47000000000E+01 0.  1.
         11    1    4    4    0    0 -0.12255329279E+03  0.49666125703E+02 -0.52644903346E+02  0.14232891296E+03  0.00000000000E+00 0. -1.
        -12    1    4    4    0    0  0.97129128148E+01 -0.70095585617E+01 -0.48720442004E+00  0.11987992106E+02  0.00000000000E+00 0.  1.
</event>
<event>
12    1  0.8196217E-002  0.3561823E+03  0.7818608E-02  0.1060117E+00
         21   -1    0    0  501  502  0.00000000000E+00  0.00000000000E+00  0.17006465143E+04  0.17006465143E+04  0.00000000000E+00 0. -1.
         21   -1    0    0  502  503 -0.00000000000E+00 -0.00000000000E+00 -0.74585467839E+02  0.74585467839E+02  0.00000000000E+00 0.  1.
         -6    2    1    2    0  503  0.28988398584E+03  0.11473565856E+03  0.82308732104E+03  0.89684924673E+03  0.17224644179E+03 0.  0.
        -24    2    3    3    0    0  0.14025820279E+03  0.81769818651E+02  0.28773531964E+03  0.33998438255E+03  0.80243999879E+02 0.  0.
          6    2    1    2  501    0 -0.28988398584E+03 -0.11473565856E+03  0.80297372546E+03  0.87838273545E+03  0.17202450280E+03 0.  0.
         24    2    5    5    0    0 -0.51579757098E+02 -0.13004386066E+02  0.22984606200E+03  0.24938705513E+03  0.80840000301E+02 0.  0.
          5    1    5    5  501    0 -0.23830422874E+03 -0.10173127250E+03  0.57312766346E+03  0.62899568032E+03  0.47000000000E+01 0. -1.
        -13    1    6    6    0    0  0.29334811323E+01  0.46117034249E+01 -0.51493578644E+01  0.75092613783E+01  0.00000000000E+00 0.  1.
         14    1    6    6    0    0 -0.54513238231E+02 -0.17616089491E+02  0.23499541987E+03  0.24187779375E+03  0.00000000000E+00 0. -1.
         -5    1    3    3    0  503  0.14962578305E+03  0.32965839911E+02  0.53535200140E+03  0.55686486418E+03  0.47000000000E+01 0.  1.
         13    1    4    4    0    0  0.31374528567E+02  0.59093051287E+02  0.79484805412E+02  0.10389506266E+03  0.00000000000E+00 0. -1.
        -14    1    4    4    0    0  0.10888367423E+03  0.22676767364E+02  0.20825051423E+03  0.23608931989E+03  0.00000000000E+00 0.  1.
</event>
<event>
12    1  0.8196217E-002  0.1788790E+03  0.7818608E-02  0.1169330E+00
         21   -1    0    0  501  502  0.00000000000E+00  0.00000000000E+00  0.35804728303E+02  0.35804728303E+02  0.00000000000E+00 0.  1.
         21   -1    0    0  502  503 -0.00000000000E+00 -0.00000000000E+00 -0.12640336871E+04  0.12640336871E+04  0.00000000000E+00 0.  1.
         -6    2    1    2    0  503  0.43586827803E+02 -0.15656322582E+02 -0.96795046707E+03  0.98401790674E+03  0.17093332645E+03 0.  0.
        -24    2    3    3    0    0  0.34273388801E+02 -0.60565692545E+02 -0.86218680817E+03  0.86864185550E+03  0.79559491242E+02 0.  0.
          6    2    1    2  501    0 -0.43586827803E+02  0.15656322582E+02 -0.26027849168E+03  0.31582050862E+03  0.17277953709E+03 0.  0.
         24    2    5    5    0    0 -0.35113966214E+02 -0.50004392389E+02 -0.72232187474E+02  0.11640480863E+03  0.67817112031E+02 0.  0.
          5    1    5    5  501    0 -0.84728615887E+01  0.65660714970E+02 -0.18804630421E+03  0.19941569998E+03  0.47000000000E+01 0. -1.
        -13    1    6    6    0    0  0.81277903164E+00 -0.35736160613E+02 -0.14739581672E+01  0.35775778647E+02  0.00000000000E+00 0.  1.
         14    1    6    6    0    0 -0.35926745246E+02 -0.14268231776E+02 -0.70758229306E+02  0.80629029986E+02  0.00000000000E+00 0. -1.
         -5    1    3    3    0  503  0.93134390021E+01  0.44909369963E+02 -0.10576365890E+03  0.11537605124E+03  0.47000000000E+01 0.  1.
         11    1    4    4    0    0  0.17451820346E+02 -0.46074860495E+02 -0.19642210150E+03  0.20250703879E+03  0.00000000000E+00 0. -1.
        -12    1    4    4    0    0  0.16821568455E+02 -0.14490832050E+02 -0.66576470667E+03  0.66613481671E+03  0.00000000000E+00 0.  1.
</event>
<event>
12    1  0.8196217E-002  0.1737559E+03  0.7818608E-02  0.1173987E+00
         21   -1    0    0  501  502  0.00000000000E+00  0.00000000000E+00  0.39932657666E+03  0.39932657666E+03  0.00000000000E+00 0. -1.
         21   -1    0    0  502  503 -0.00000000000E+00 -0.00000000000E+00 -0.82853426110E+02  0.82853426110E+02  0.00000000000E+00 0. -1.
         -6    2    1    2    0  503 -0.29793761926E+02  0.37173496213E+01  0.86923980017E+02  0.19428563571E+03  0.17114217190E+03 0.  0.
        -24    2    3    3    0    0 -0.65683793915E+02 -0.33927285383E+02  0.94210970766E+02  0.14155610722E+03  0.75478493640E+02 0.  0.
          6    2    1    2  501    0  0.29793761926E+02 -0.37173496213E+01  0.22954917053E+03  0.28789436706E+03  0.17113987833E+03 0.  0.
         24    2    5    5    0    0  0.19687226181E+01 -0.32346866715E+02  0.23227220859E+03  0.24760309011E+03  0.79414832970E+02 0.  0.
          5    1    5    5  501    0  0.27825039308E+02  0.28629517094E+02 -0.27230380582E+01  0.40291276944E+02  0.47000000000E+01 0. -1.
        -11    1    6    6    0    0  0.72448845660E+01 -0.52409458819E+01 -0.39477602210E+01  0.97744911312E+01  0.00000000000E+00 0.  1.
         12    1    6    6    0    0 -0.52761619479E+01 -0.27105920833E+02  0.23621996881E+03  0.23782859898E+03  0.00000000000E+00 0. -1.
         -5    1    3    3    0  503  0.35890031989E+02  0.37644635004E+02 -0.72869907486E+01  0.52729528492E+02  0.47000000000E+01 0.  1.
         11    1    4    4    0    0 -0.75043679252E+01  0.73475906764E+01 -0.10503428064E+02  0.14853438249E+02  0.00000000000E+00 0. -1.
        -12    1    4    4    0    0 -0.58179425990E+02 -0.41274876059E+02  0.10471439883E+03  0.12670266897E+03  0.00000000000E+00 0.  1.
</event>
<event>
12    1  0.8196217E-002  0.1950298E+03  0.7818608E-02  0.1154017E+00
         21   -1    0    0  503  502  0.00000000000E+00  0.00000000000E+00  0.11050526724E+04  0.11050526724E+04  0.00000000000E+00 0. -1.
         21   -1    0    0  501  503 -0.00000000000E+00 -0.00000000000E+00 -0.43794894990E+02  0.43794894990E+02  0.00000000000E+00 0. -1.
          6    2    1    2  501    0  0.72168549720E+02 -0.58962514576E+02  0.26460952444E+03  0.32867376380E+03  0.17124066366E+03 0.  0.
         24    2    3    3    0    0  0.73865635605E+02 -0.79846269513E+02  0.27457773528E+03  0.30499958909E+03  0.76159423293E+02 0.  0.
         -6    2    1    2    0  502 -0.72168549720E+02  0.58962514576E+02  0.79664825301E+03  0.82017380363E+03  0.17132352859E+03 0.  0.
        -24    2    5    5    0    0 -0.65040951858E+02  0.63191154744E+02  0.80045324649E+03  0.80991456271E+03  0.83742173402E+02 0.  0.
          5    1    3    3  501    0 -0.16970858852E+01  0.20883754937E+02 -0.99682108386E+01  0.23674174708E+02  0.47000000000E+01 0. -1.
        -11    1    4    4    0    0  0.31754546319E+01 -0.32286259048E+02  0.15386332407E+03  0.15724633074E+03  0.00000000000E+00 0.  1.
         12    1    4    4    0    0  0.70690180974E+02 -0.47560010465E+02  0.12071441121E+03  0.14775325836E+03  0.00000000000E+00 0. -1.
         -5    1    5    5    0  502 -0.71275978627E+01 -0.42286401687E+01 -0.38049934833E+01  0.10259240926E+02  0.47000000000E+01 0.  1.
         13    1    6    6    0    0 -0.50102618099E+02  0.51014716606E+01  0.19139068319E+03  0.19790576284E+03  0.00000000000E+00 0. -1.
        -14    1    6    6    0    0 -0.14938333759E+02  0.58089683084E+02  0.60906256331E+03  0.61200879987E+03  0.00000000000E+00 0.  1.
</event>
<event>
12    1  0.8196217E-002  0.2674188E+03  0.7818608E-02  0.1103155E+00
         21   -1    0    0  501  502  0.00000000000E+00  0.00000000000E+00  0.45663235646E+03  0.45663235646E+03  0.00000000000E+00 0.  1.
         21   -1    0    0  502  503 -0.00000000000E+00 -0.00000000000E+00 -0.17171733394E+03  0.17171733394E+03  0.00000000000E+00 0. -1.
         -6    2    1    2    0  503  0.19011060316E+03  0.64064032953E+02  0.45217426980E+02  0.27121468803E+03  0.17682349830E+03 0.  0.
        -24    2    3    3    0    0  0.10073127584E+03 -0.28765313507E+02  0.55259176316E+02  0.14187452240E+03  0.78106147943E+02 0.  0.
          6    2    1    2  501    0 -0.19011060316E+03 -0.64064032953E+02  0.23969759554E+03  0.35713500236E+03  0.17275482873E+03 0.  0.
         24    2    5    5    0    0 -0.12640674677E+03  0.27819948934E+02  0.14966987294E+03  0.21351074158E+03  0.80206924379E+02 0.  0.
          5    1    5    5  501    0 -0.63703856383E+02 -0.91883981888E+02  0.90027722606E+02  0.14362426078E+03  0.47000000000E+01 0. -1.
        -13    1    6    6    0    0 -0.19765428297E+02  0.24906706903E+02  0.80020461507E+02  0.86106274245E+02  0.00000000000E+00 0.  1.
         14    1    6    6    0    0 -0.10664131848E+03  0.29132420310E+01  0.69649411428E+02  0.12740446734E+03  0.00000000000E+00 0. -1.
         -5    1    3    3    0  503  0.89379327317E+02  0.92829346461E+02 -0.10041749336E+02  0.12934016563E+03  0.47000000000E+01 0.  1.
         11    1    4    4    0    0  0.10985447780E+03 -0.18809992043E+02  0.61167756458E+02  0.12713503263E+03  0.00000000000E+00 0. -1.
        -12    1    4    4    0    0 -0.91232019564E+01 -0.99553214646E+01 -0.59085801416E+01  0.14739489770E+02  0.00000000000E+00 0.  1.
</event>
<event>
12    1  0.8196217E-002  0.2348255E+03  0.7818608E-02  0.1123640E+00
         21   -1    0    0  503  502  0.00000000000E+00  0.00000000000E+00  0.35351594029E+03  0.35351594029E+03  0.00000000000E+00 0. -1.
         21   -1    0    0  501  503 -0.00000000000E+00 -0.00000000000E+00 -0.95356807311E+03  0.95356807311E+03  0.00000000000E+00 0. -1.
          6    2    1    2  501    0  0.23358754659E+01  0.15791639191E+03 -0.89844734045E+03  0.92862836845E+03  0.17378141435E+03 0.  0.
         24    2    3    3    0    0 -0.28531543827E+02  0.46146211280E+02 -0.21054308508E+03  0.23100402440E+03  0.78044518097E+02 0.  0.
         -6    2    1    2    0  502 -0.23358754659E+01 -0.15791639191E+03  0.29839520763E+03  0.37845564496E+03  0.17101442077E+03 0.  0.
        -24    2    5    5    0    0 -0.52523994656E+02 -0.14275565935E+02  0.65610047987E+02  0.10031439532E+03  0.52874736072E+02 0.  0.
          5    1    3    3  501    0  0.30867419293E+02  0.11177018063E+03 -0.68790425537E+03  0.69762434405E+03  0.47000000000E+01 0. -1.
        -13    1    4    4    0    0 -0.48879859707E+02  0.30001529254E+02 -0.18818880449E+03  0.19673423336E+03  0.00000000000E+00 0.  1.
         14    1    4    4    0    0  0.20348315879E+02  0.16144682026E+02 -0.22354280592E+02  0.34269791036E+02  0.00000000000E+00 0. -1.
         -5    1    5    5    0  502  0.50188119190E+02 -0.14364082598E+03  0.23278515965E+03  0.27814124963E+03  0.47000000000E+01 0.  1.
         11    1    6    6    0    0 -0.90457953761E+01 -0.28141970318E+02  0.32502006131E+02  0.43933783241E+02  0.00000000000E+00 0. -1.
        -12    1    6    6    0    0 -0.43478199280E+02  0.13866404383E+02  0.33108041857E+02  0.56380612082E+02  0.00000000000E+00 0.  1.
</event>
<event>
12    1  0.8196217E-002  0.2101713E+03  0.7818608E-02  0.1143759E+00
         21   -1    0    0  503  502  0.00000000000E+00  0.00000000000E+00  0.12765942237E+03  0.12765942237E+03  0.00000000000E+00 0. -1.
         21   -1    0    0  501  503 -0.00000000000E+00 -0.00000000000E+00 -0.36093050940E+03  0.36093050940E+03  0.00000000000E+00 0.  1.
          6    2    1    2  501    0  0.12116896904E+03  0.68645027679E+00 -0.18804986746E+03  0.27360867013E+03  0.15753273135E+03 0.  0.
         24    2    3    3    0    0  0.14370219742E+03 -0.20920973373E+02 -0.17145091142E+03  0.23794016190E+03  0.78307706815E+02 0.  0.
         -6    2    1    2    0  502 -0.12116896904E+03 -0.68645027679E+00 -0.45221219564E+02  0.21498126163E+03  0.17172534432E+03 0.  0.
        -24    2    5    5    0    0 -0.64909682223E+01 -0.35897925909E+02 -0.54375617521E+01  0.88507069336E+02  0.80455829445E+02 0.  0.
          5    1    3    3  501    0 -0.22533228381E+02  0.21607423650E+02 -0.16598956039E+02  0.35668508234E+02  0.47000000000E+01 0. -1.
        -11    1    4    4    0    0  0.97891897357E+02  0.15714040240E+02 -0.13950581785E+03  0.17114797060E+03  0.00000000000E+00 0.  1.
         12    1    4    4    0    0  0.45810300065E+02 -0.36635013613E+02 -0.31945093575E+02  0.66792191295E+02  0.00000000000E+00 0. -1.
         -5    1    5    5    0  502 -0.11467800082E+03  0.35211475632E+02 -0.39783657812E+02  0.12647419230E+03  0.47000000000E+01 0.  1.
         11    1    6    6    0    0  0.25757447410E+02  0.12081512154E+02 -0.10839982665E+02  0.30445266580E+02  0.00000000000E+00 0. -1.
        -12    1    6    6    0    0 -0.32248415632E+02 -0.47979438062E+02  0.54024209126E+01  0.58061802756E+02  0.00000000000E+00 0.  1.
</event>
<event>
12    1  0.8196217E-002  0.1813182E+03  0.7818608E-02  0.1167063E+00
         21   -1    0    0  503  502  0.00000000000E+00  0.00000000000E+00  0.25978856609E+03  0.25978856609E+03  0.00000000000E+00 0. -1.
         21   -1    0    0  501  503 -0.00000000000E+00 -0.00000000000E+00 -0.24071659333E+03  0.24071659333E+03  0.00000000000E+00 0. -1.
          6    2    1    2  501    0 -0.49417897894E+02 -0.63577947759E+01 -0.16392385533E+03  0.24443261731E+03  0.17433795878E+03 0.  0.
         24    2    3    3    0    0 -0.23508234492E+02 -0.64213391323E+02 -0.14329411239E+03  0.17760255668E+03  0.79583093570E+02 0.  0.
         -6    2    1    2    0  502  0.49417897894E+02  0.63577947759E+01  0.18299582810E+03  0.25607254210E+03  0.17205558268E+03 0.  0.
        -24    2    5    5    0    0  0.32145453880E+02 -0.45900199388E+02  0.17489198493E+03  0.20024246464E+03  0.79810273402E+02 0.  0.
          5    1    3    3  501    0 -0.25909663402E+02  0.57855596547E+02 -0.20629742946E+02  0.66830060627E+02  0.47000000000E+01 0. -1.
        -13    1    4    4    0    0  0.64098326699E+01 -0.10142547319E+02  0.78333838771E+01  0.14328961021E+02  0.00000000000E+00 0.  1.
         14    1    4    4    0    0 -0.29918067162E+02 -0.54070844004E+02 -0.15112749626E+03  0.16327359566E+03  0.00000000000E+00 0. -1.
         -5    1    5    5    0  502  0.17272444015E+02  0.52257994163E+02  0.81038431626E+01  0.55830077469E+02  0.47000000000E+01 0.  1.
         11    1    6    6    0    0  0.89351845809E+00 -0.10793054770E+02  0.14307447086E+03  0.14348377127E+03  0.00000000000E+00 0. -1.
        -12    1    6    6    0    0  0.31251935422E+02 -0.35107144617E+02  0.31817514077E+02  0.56758693368E+02  0.00000000000E+00 0.  1.
</event>
<event>
12    1  0.8196217E-002  0.2000704E+03  0.7818608E-02  0.1149803E+00
         21   -1    0    0  501  502  0.00000000000E+00  0.00000000000E+00  0.22997916869E+02  0.22997916869E+02  0.00000000000E+00 0.  1.
         21   -1    0    0  502  503 -0.00000000000E+00 -0.00000000000E+00 -0.18349410634E+04  0.18349410634E+04  0.00000000000E+00 0. -1.
         -6    2    1    2    0  503  0.27753939573E+01  0.97289555760E+02 -0.69089170200E+03  0.71927707857E+03  0.17480049028E+03 0.  0.
        -24    2    3    3    0    0 -0.58292525959E+01 -0.22537990599E+01 -0.46798686141E+03  0.47495848045E+03  0.80838084499E+02 0.  0.
          6    2    1    2  501    0 -0.27753939573E+01 -0.97289555760E+02 -0.11210514445E+04  0.11386619017E+04  0.17413105584E+03 0.  0.
         24    2    5    5    0    0  0.43694742771E+01 -0.15924957708E+02 -0.88420431201E+03  0.88808277020E+03  0.81246813830E+02 0.  0.
          5    1    5    5  501    0 -0.71448682344E+01 -0.81364598052E+02 -0.23684713253E+03  0.25057913151E+03  0.47000000000E+01 0. -1.
        -13    1    6    6    0    0  0.28049798212E+02 -0.15214053168E+02 -0.14373384473E+03  0.14723340896E+03  0.00000000000E+00 0.  1.
         14    1    6    6    0    0 -0.23680323935E+02 -0.71090454016E+00 -0.74047046728E+03  0.74084936124E+03  0.00000000000E+00 0. -1.
         -5    1    3    3    0  503  0.86046465531E+01  0.99543354820E+02 -0.22290484059E+03  0.24431859812E+03  0.47000000000E+01 0.  1.
         11    1    4    4    0    0 -0.36533843104E+02  0.10700300172E+02 -0.35841066513E+03  0.36042672348E+03  0.00000000000E+00 0. -1.
        -12    1    4    4    0    0  0.30704590509E+02 -0.12954099232E+02 -0.10957619627E+03  0.11453175697E+03  0.00000000000E+00 0.  1.
</event>
<event>
12    1  0.8196217E-002  0.2365637E+03  0.7818608E-02  0.1124546E+00
         21   -1    0    0  501  502  0.00000000000E+00  0.00000000000E+00  0.97411731881E+02  0.97411731881E+02  0.00000000000E+00 0.  1.
         21   -1    0    0  502  503 -0.00000000000E+00 -0.00000000000E+00 -0.62181105464E+03  0.62181105464E+03  0.00000000000E+00 0.  1.
         -6    2    1    2    0  503 -0.13765209443E+03 -0.30093903578E+02 -0.12580176781E+03  0.25571182598E+03  0.17236215079E+03 0.  0.
        -24    2    3    3    0    0 -0.10610125506E+03 -0.52611203935E+02 -0.34434055722E+02  0.15635070132E+03  0.96095902637E+02 0.  0.
          6    2    1    2  501    0  0.13765209443E+03  0.30093903578E+02 -0.39859755495E+03  0.46351096055E+03  0.19002278181E+03 0.  0.
         24    2    5    5    0    0  0.38117591019E+02  0.72464012277E+02 -0.12658083612E+03  0.17073540009E+03  0.80149141922E+02 0.  0.
          5    1    5    5  501    0  0.99534503411E+02 -0.42370108700E+02 -0.27201671882E+03  0.29277556046E+03  0.47000000000E+01 0. -1.
        -11    1    6    6    0    0  0.14049493293E+02 -0.16512647954E+02 -0.17054369768E+02  0.27584548799E+02  0.00000000000E+00 0.  1.
         12    1    6    6    0    0  0.24068097726E+02  0.88976660231E+02 -0.10952646636E+03  0.14315085129E+03  0.00000000000E+00 0. -1.
         -5    1    3    3    0  503 -0.31550839365E+02  0.22517300357E+02 -0.91367712093E+02  0.99361124657E+02  0.47000000000E+01 0.  1.
         11    1    4    4    0    0 -0.14124213244E+02 -0.13512153849E+02 -0.51388335232E+02  0.54980293737E+02  0.00000000000E+00 0. -1.
        -12    1    4    4    0    0 -0.91977041820E+02 -0.39099050086E+02  0.16954279510E+02  0.10137040758E+03  0.00000000000E+00 0.  1.
</event>
<event>
12    1  0.8196217E-002  0.2136365E+03  0.7818608E-02  0.1139988E+00
         21   -1    0    0  503  502  0.00000000000E+00  0.00000000000E+00  0.14670883708E+04  0.14670883708E+04  0.00000000000E+00 0.  1.
         21   -1    0    0  501  503 -0.00000000000E+00 -0.00000000000E+00 -0.56430713498E+02  0.56430713498E+02  0.00000000000E+00 0.  1.
          6    2    1    2  501    0 -0.12310061651E+03 -0.30771539249E+02  0.19156209508E+03  0.28694352258E+03  0.17187175296E+03 0.  0.
         24    2    3    3    0    0 -0.14159138677E+03 -0.61023877474E+02  0.17873318713E+03  0.24894637226E+03  0.79099365680E+02 0.  0.
         -6    2    1    2    0  502  0.12310061651E+03  0.30771539249E+02  0.12190955622E+04  0.12365755617E+04  0.16378180790E+03 0.  0.
        -24    2    5    5    0    0  0.10591402429E+03  0.30379398408E+02  0.12077033912E+04  0.12154236283E+04  0.81033491711E+02 0.  0.
          5    1    3    3  501    0  0.18490770266E+02  0.30252338225E+02  0.12828907956E+02  0.37997150320E+02  0.47000000000E+01 0. -1.
        -11    1    4    4    0    0 -0.56821873154E+02 -0.71364320739E+00  0.22230110885E+02  0.61019770446E+02  0.00000000000E+00 0.  1.
         12    1    4    4    0    0 -0.84769513620E+02 -0.60310234266E+02  0.15650307624E+03  0.18792660181E+03  0.00000000000E+00 0. -1.
         -5    1    5    5    0  502  0.17186592213E+02  0.39214084118E+00  0.11392171049E+02  0.21151933423E+02  0.47000000000E+01 0.  1.
         13    1    6    6    0    0  0.53652284967E+02  0.43404203073E+02  0.39863066227E+03  0.40456012832E+03  0.00000000000E+00 0. -1.
        -14    1    6    6    0    0  0.52261739327E+02 -0.13024804665E+02  0.80907272891E+03  0.81086349998E+03  0.00000000000E+00 0.  1.
</event>
<event>
12    1  0.8196217E-002  0.2564614E+03  0.7818608E-02  0.1109329E+00
         21   -1    0    0  501  502  0.00000000000E+00  0.00000000000E+00  0.30521313381E+03  0.30521313381E+03  0.00000000000E+00 0. -1.
         21   -1    0    0  502  503 -0.00000000000E+00 -0.00000000000E+00 -0.31840912307E+03  0.31840912307E+03  0.00000000000E+00 0.  1.
         -6    2    1    2    0  503  0.16422569523E+02 -0.18909218120E+03 -0.18406106755E+03  0.31567536859E+03  0.17247291952E+03 0.  0.
        -24    2    3    3    0    0  0.30145174553E+02 -0.31793378662E+02 -0.34581145480E+02  0.98195345902E+02  0.80789354859E+02 0.  0.
          6    2    1    2  501    0 -0.16422569523E+02  0.18909218120E+03  0.17086507829E+03  0.30794688829E+03  0.17207805568E+03 0.  0.
         24    2    5    5    0    0  0.16718599141E+02  0.18683949247E+03  0.18034897772E+03  0.27308364095E+03  0.82827614259E+02 0.  0.
          5    1    5    5  501    0 -0.33141168664E+02  0.22526887222E+01 -0.94838994245E+01  0.34863247342E+02  0.47000000000E+01 0. -1.
        -11    1    6    6    0    0  0.29325369483E+02  0.29203964713E+02  0.66117247406E+02  0.78002174679E+02  0.00000000000E+00 0.  1.
         12    1    6    6    0    0 -0.12606770341E+02  0.15763552776E+03  0.11423173031E+03  0.19508146627E+03  0.00000000000E+00 0. -1.
         -5    1    3    3    0  503 -0.13722605030E+02 -0.15729880253E+03 -0.14947992207E+03  0.21748002269E+03  0.47000000000E+01 0.  1.
         13    1    4    4    0    0  0.37475140987E+02  0.45568102037E+00  0.13502791149E+02  0.39836154508E+02  0.00000000000E+00 0. -1.
        -14    1    4    4    0    0 -0.73299664344E+01 -0.32249059683E+02 -0.48083936629E+02  0.58359191394E+02  0.00000000000E+00 0.  1.
</event>
<event>
12    1  0.8196217E-002  0.1877483E+03  0.7818608E-02  0.1160512E+00
         21   -1    0    0  501  502  0.00000000000E+00  0.00000000000E+00  0.34084114124E+03  0.34084114124E+03  0.00000000000E+00 0.  1.
         21   -1    0    0  502  503 -0.00000000000E+00 -0.00000000000E+00 -0.12709657443E+03  0.12709657443E+03  0.00000000000E+00 0.  1.
         -6    2    1    2    0  503 -0.76161560237E+02  0.90280179105E+01  0.58641025227E+01  0.18782399489E+03  0.17135161801E+03 0.  0.
        -24    2    3    3    0    0  0.24099254755E+01  0.51482059312E+02  0.21827659731E+02  0.96979351919E+02  0.79198092133E+02 0.  0.
          6    2    1    2  501    0  0.76161560237E+02 -0.90280179105E+01  0.20788046428E+03  0.28011372077E+03  0.17136896092E+03 0.  0.
         24    2    5    5    0    0  0.57785565451E+02 -0.64570024675E+02  0.88450902020E+02  0.14704192796E+03  0.79305150203E+02 0.  0.
          5    1    5    5  501    0  0.18375994785E+02  0.55542006764E+02  0.11942956226E+03  0.13307179281E+03  0.47000000000E+01 0. -1.
        -11    1    6    6    0    0  0.15708036299E+02  0.38075321764E+00  0.63971927313E+02  0.65873324355E+02  0.00000000000E+00 0.  1.
         12    1    6    6    0    0  0.42077529153E+02 -0.64950777892E+02  0.24478974707E+02  0.81168603605E+02  0.00000000000E+00 0. -1.
         -5    1    3    3    0  503 -0.78571485712E+02 -0.42454041402E+02 -0.15963557208E+02  0.90844642974E+02  0.47000000000E+01 0.  1.
         11    1    4    4    0    0 -0.15055475917E+02  0.56661353326E+02 -0.10796801076E+02  0.59613314195E+02  0.00000000000E+00 0. -1.
        -12    1    4    4    0    0  0.17465401392E+02 -0.51792940136E+01  0.32624460807E+02  0.37366037724E+02  0.00000000000E+00 0.  1.
</event>
<event>
12    1  0.8196217E-002  0.2703261E+03  0.7818608E-02  0.1101213E+00
         21   -1    0    0  501  502  0.00000000000E+00  0.00000000000E+00  0.36898853746E+02  0.36898853746E+02  0.00000000000E+00 0. -1.
         21   -1    0    0  502  503 -0.00000000000E+00 -0.00000000000E+00 -0.29840020939E+04  0.29840020939E+04  0.00000000000E+00 0. -1.
         -6    2    1    2    0  503  0.18150318045E+03  0.99257453593E+02 -0.23536943923E+04  0.23691672607E+04  0.17401370695E+03 0.  0.
        -24    2    3    3    0    0  0.37386516283E+02  0.57841748682E+02 -0.59335744751E+03  0.60244908207E+03  0.78284203252E+02 0.  0.
          6    2    1    2  501    0 -0.18150318045E+03 -0.99257453593E+02 -0.59340884788E+03  0.65173368698E+03  0.17270579430E+03 0.  0.
         24    2    5    5    0    0 -0.17274136132E+03 -0.52923478264E+02 -0.33296470535E+03  0.38701336640E+03  0.79204660876E+02 0.  0.
          5    1    5    5  501    0 -0.87618191338E+01 -0.46333975329E+02 -0.26044414253E+03  0.26472032057E+03  0.47000000000E+01 0. -1.
        -11    1    6    6    0    0 -0.89405877626E+02 -0.41521603244E+02 -0.10498138082E+03  0.14400883587E+03  0.00000000000E+00 0.  1.
         12    1    6    6    0    0 -0.83335483695E+02 -0.11401875020E+02 -0.22798332453E+03  0.24300453053E+03  0.00000000000E+00 0. -1.
         -5    1    3    3    0  503  0.14411666417E+03  0.41415704911E+02 -0.17603369448E+04  0.17667181786E+04  0.47000000000E+01 0.  1.
         13    1    4    4    0    0  0.25769493999E+02  0.44007874639E+02 -0.57286755868E+03  0.57513302778E+03  0.00000000000E+00 0. -1.
        -14    1    4    4    0    0  0.11617022284E+02  0.13833874042E+02 -0.20489888827E+02  0.27316054289E+02  0.00000000000E+00 0.  1.
</event>
<event>
12    1  0.8196217E-002  0.1948416E+03  0.7818608E-02  0.1154585E+00
         21   -1    0    0  503  502  0.00000000000E+00  0.00000000000E+00  0.14327104310E+03  0.14327104310E+03  0.00000000000E+00 0. -1.
         21   -1    0    0  501  503 -0.00000000000E+00 -0.00000000000E+00 -0.12624530795E+04  0.12624530795E+04  0.00000000000E+00 0. -1.
          6    2    1    2  501    0  0.29536699260E+02 -0.83083823292E+02 -0.11845893150E+04  0.12001970871E+04  0.17159797292E+03 0.  0.
         24    2    3    3    0    0  0.30629281046E+02 -0.12363031103E+03 -0.99224689507E+03  0.10035682288E+04  0.79829082481E+02 0.  0.
         -6    2    1    2    0  502 -0.29536699260E+02  0.83083823292E+02  0.65407278601E+02  0.20552703552E+03  0.17374668900E+03 0.  0.
        -24    2    5    5    0    0  0.12042095903E+02  0.19308347223E+02 -0.25865983747E+02  0.86577441261E+02  0.79427828082E+02 0.  0.
          5    1    3    3  501    0 -0.10925817859E+01  0.40546487736E+02 -0.19234241994E+03  0.19662885828E+03  0.47000000000E+01 0. -1.
        -13    1    4    4    0    0  0.54807153135E+02 -0.55816775769E+02 -0.53462485804E+03  0.54031756896E+03  0.00000000000E+00 0.  1.
         14    1    4    4    0    0 -0.24177872090E+02 -0.67813535259E+02 -0.45762203703E+03  0.46325065984E+03  0.00000000000E+00 0. -1.
         -5    1    5    5    0  502 -0.41578795163E+02  0.63775476068E+02  0.91273262348E+02  0.11894959426E+03  0.47000000000E+01 0.  1.
         13    1    6    6    0    0  0.12639661565E+02  0.20091477361E+02  0.25710090895E+02  0.34991960231E+02  0.00000000000E+00 0. -1.
        -14    1    6    6    0    0 -0.59756566177E+00 -0.78313013735E+00 -0.51576074642E+02  0.51585481029E+02  0.00000000000E+00 0.  1.
</event>
<event>
12    1  0.8196217E-002  0.3070488E+03  0.7818608E-02  0.1082700E+00
         21   -1    0    0  503  502  0.00000000000E+00  0.00000000000E+00  0.11465849535E+04  0.11465849535E+04  0.00000000000E+00 0. -1.
         21   -1    0    0  501  503 -0.00000000000E+00 -0.00000000000E+00 -0.10224395005E+03  0.10224395005E+03  0.00000000000E+00 0. -1.
          6    2    1    2  501    0 -0.10946028428E+03 -0.23067306318E+03  0.22720438654E+03  0.37590781340E+03  0.15650314694E+03 0.  0.
         24    2    3    3    0    0 -0.49780435642E+02 -0.15102051345E+03  0.73259410232E+02  0.19253017370E+03  0.80097686248E+02 0.  0.
         -6    2    1    2    0  502  0.10946028428E+03  0.23067306318E+03  0.81713661695E+03  0.87292109020E+03  0.17055017749E+03 0.  0.
        -24    2    5    5    0    0  0.88255261501E+02  0.57893929285E+02  0.36989082106E+03  0.39296986972E+03  0.80407715865E+02 0.  0.
          5    1    3    3  501    0 -0.59679848634E+02 -0.79652549731E+02  0.15394497631E+03  0.18337763970E+03  0.47000000000E+01 0. -1.
        -13    1    4    4    0    0  0.10904897371E+02  0.39656190624E+01  0.46564867794E+01  0.12503031246E+02  0.00000000000E+00 0.  1.
         14    1    4    4    0    0 -0.60685333014E+02 -0.15498613251E+03  0.68602923453E+02  0.18002714245E+03  0.00000000000E+00 0. -1.
         -5    1    5    5    0  502  0.21205022775E+02  0.17277913390E+03  0.44724579589E+03  0.47995122048E+03  0.47000000000E+01 0.  1.
         11    1    6    6    0    0  0.58083478257E+02  0.62698704269E+02  0.33866702293E+03  0.34928522783E+03  0.00000000000E+00 0. -1.
        -12    1    6    6    0    0  0.30171783244E+02 -0.48047749843E+01  0.31223798132E+02  0.43684641884E+02  0.00000000000E+00 0.  1.
</event>
<event>
12    1  0.8196217E-002  0.1834387E+03  0.7818608E-02  0.1164917E+00
         21   -1    0    0  503  502  0.00000000000E+00  0.00000000000E+00  0.10187743025E+04  0.10187743025E+04  0.00000000000E+00 0. -1.
         21   -1    0    0  501  503 -0.00000000000E+00 -0.00000000000E+00 -0.34291930699E+02  0.34291930699E+02  0.00000000000E+00 0. -1.
          6    2    1    2  501    0 -0.62144031771E+02  0.14749776240E+02  0.38189648929E+03  0.42366815068E+03  0.17196027678E+03 0.  0.
         24    2    3    3    0    0 -0.54330748723E+02  0.20109364887E+02  0.39489305683E+03  0.40691185782E+03  0.79249712224E+02 0.  0.
         -6    2    1    2    0  502  0.62144031771E+02 -0.14749776240E+02  0.60258588249E+03  0.62939808249E+03  0.17015511713E+03 0.  0.
        -24    2    5    5    0    0  0.76954387520E+02 -0.54002877723E+01  0.21644261002E+03  0.24282923164E+03  0.78533377883E+02 0.  0.
          5    1    3    3  501    0 -0.78132830482E+01 -0.53595886473E+01 -0.12996567547E+02  0.16756292861E+02  0.47000000000E+01 0. -1.
        -11    1    4    4    0    0 -0.34640157563E+02 -0.10737491036E+02  0.60609116347E+02  0.70630724292E+02  0.00000000000E+00 0.  1.
         12    1    4    4    0    0 -0.19690591160E+02  0.30846855923E+02  0.33428394049E+03  0.33628113353E+03  0.00000000000E+00 0. -1.
         -5    1    5    5    0  502 -0.14810355749E+02 -0.93494884676E+01  0.38614327248E+03  0.38656885085E+03  0.47000000000E+01 0.  1.
         13    1    6    6    0    0  0.82653677436E+02 -0.15159917503E+02  0.12456688663E+03  0.15026098208E+03  0.00000000000E+00 0. -1.
        -14    1    6    6    0    0 -0.56992899155E+01  0.97596297310E+01  0.91875723387E+02  0.92568249556E+02  0.00000000000E+00 0.  1.
</event>
<event>
12    1  0.8196217E-002  0.2247239E+03  0.7818608E-02  0.1130845E+00
         21   -1    0    0  501  502  0.00000000000E+00  0.00000000000E+00  0.60244433102E+03  0.60244433102E+03  0.00000000000E+00 0. -1.
         21   -1    0    0  502  503 -0.00000000000E+00 -0.00000000000E+00 -0.18542756252E+03  0.18542756252E+03  0.00000000000E+00 0. -1.
         -6    2    1    2    0  503 -0.10685788226E+03  0.95304492780E+02 -0.84858463250E+02  0.23798139672E+03  0.17009595249E+03 0.  0.
        -24    2    3    3    0    0 -0.80212341482E+02  0.13008893302E+03 -0.10080606531E+03  0.19111607759E+03  0.54830120289E+02 0.  0.
          6    2    1    2  501    0  0.10685788226E+03 -0.95304492780E+02  0.50187523176E+03  0.54989049682E+03  0.17320293558E+03 0.  0.
         24    2    5    5    0    0  0.10701659469E+03 -0.29796637363E+02  0.43656797460E+03  0.45727067093E+03  0.78514195574E+02 0.  0.
          5    1    5    5  501    0 -0.15871242196E+00 -0.65507855416E+02  0.65307257156E+02  0.92619825891E+02  0.47000000000E+01 0. -1.
        -11    1    6    6    0    0 -0.97392724063E+01  0.51777554516E+01  0.16264057887E+02  0.19651517943E+02  0.00000000000E+00 0.  1.
         12    1    6    6    0    0  0.11675586709E+03 -0.34974392815E+02  0.42030391671E+03  0.43761915299E+03  0.00000000000E+00 0. -1.
         -5    1    3    3    0  503 -0.26645540782E+02 -0.34784440235E+02  0.15947602058E+02  0.46865319133E+02  0.47000000000E+01 0.  1.
         13    1    4    4    0    0 -0.41322590928E+02  0.10178220644E+03 -0.89523830456E+02  0.14170988070E+03  0.00000000000E+00 0. -1.
        -14    1    4    4    0    0 -0.38889750554E+02  0.28306726571E+02 -0.11282234851E+02  0.49406196884E+02  0.00000000000E+00 0.  1.
</event>
<event>
12    1  0.8196217E-002  0.1754600E+03  0.7818608E-02  0.1173364E+00
         21   -1    0    0  503  502  0.00000000000E+00  0.00000000000E+00  0.48732795003E+02  0.48732795003E+02  0.00000000000E+00 0. -1.
         21   -1    0    0  501  503 -0.00000000000E+00 -0.00000000000E+00 -0.34017269546E+04  0.34017269546E+04  0.00000000000E+00 0. -1.
          6    2    1    2  501    0 -0.33567611784E+02  0.12033671495E+02 -0.32338394765E+04  0.32383652893E+04  0.16739293193E+03 0.  0.
         24    2    3    3    0    0 -0.13569637916E+02  0.34808688093E+00 -0.72727656602E+03  0.73169096147E+03  0.79096165361E+02 0.  0.
         -6    2    1    2    0  502  0.33567611784E+02 -0.12033671495E+02 -0.11915468309E+03  0.21209446025E+03  0.17179821814E+03 0.  0.
        -24    2    5    5    0    0  0.76368075647E+02  0.26503303787E+02 -0.54093684951E+02  0.12507721110E+03  0.78636339533E+02 0.  0.
          5    1    3    3  501    0 -0.19997973868E+02  0.11685584614E+02 -0.25065629105E+04  0.25066743279E+04  0.47000000000E+01 0. -1.
        -11    1    4    4    0    0 -0.21624380473E+02 -0.33546100432E+02 -0.51791959180E+03  0.51945515519E+03  0.00000000000E+00 0.  1.
         12    1    4    4    0    0  0.80547425573E+01  0.33894187313E+02 -0.20935697422E+03  0.21223580628E+03  0.00000000000E+00 0. -1.
         -5    1    5    5    0  502 -0.42800463863E+02 -0.38536975282E+02 -0.65060998139E+02  0.87017249150E+02  0.47000000000E+01 0.  1.
         13    1    6    6    0    0  0.59674254520E+02  0.96628315127E+01  0.57328274817E+01  0.60722749249E+02  0.00000000000E+00 0. -1.
        -14    1    6    6    0    0  0.16693821127E+02  0.16840472274E+02 -0.59826512433E+02  0.64354461851E+02  0.00000000000E+00 0.  1.
</event>
<event>
12    1  0.8196217E-002  0.2569195E+03  0.7818608E-02  0.1109690E+00
         21   -1    0    0  503  502  0.00000000000E+00  0.00000000000E+00  0.40314051645E+02  0.40314051645E+02  0.00000000000E+00 0. -1.
         21   -1    0    0  501  503 -0.00000000000E+00 -0.00000000000E+00 -0.19914404351E+04  0.19914404351E+04  0.00000000000E+00 0.  1.
          6    2    1    2  501    0 -0.16234810032E+03 -0.87921959748E+02 -0.14137391153E+04  0.14361097063E+04  0.17223712087E+03 0.  0.
         24    2    3    3    0    0 -0.14140282788E+03 -0.14284630052E+01 -0.97511786051E+03  0.98852672568E+03  0.79582945757E+02 0.  0.
         -6    2    1    2    0  502  0.16234810032E+03  0.87921959748E+02 -0.53738726818E+03  0.59564478044E+03  0.17866295581E+03 0.  0.
        -24    2    5    5    0    0  0.69219284423E+01  0.55524388528E+02 -0.21441023759E+03  0.23572374769E+03  0.80393186444E+02 0.  0.
          5    1    3    3  501    0 -0.20945272439E+02 -0.86493496743E+02 -0.43862125478E+03  0.44758298064E+03  0.47000000000E+01 0. -1.
        -11    1    4    4    0    0 -0.10324381254E+03 -0.37415104047E+02 -0.65902327165E+03  0.66810990669E+03  0.00000000000E+00 0.  1.
         12    1    4    4    0    0 -0.38159015349E+02  0.35986641042E+02 -0.31609458886E+03  0.32041681899E+03  0.00000000000E+00 0. -1.
         -5    1    5    5    0  502  0.15542617188E+03  0.32397571220E+02 -0.32297703059E+03  0.35992103275E+03  0.47000000000E+01 0.  1.
         13    1    6    6    0    0  0.21868797767E+02  0.62457195256E+02 -0.98604712851E+02  0.11875198925E+03  0.00000000000E+00 0. -1.
        -14    1    6    6    0    0 -0.14946869325E+02 -0.69328067285E+01 -0.11580552474E+03  0.11697175844E+03  0.00000000000E+00 0.  1.
</event>
<event>
12    1  0.8196217E-002  0.1848005E+03  0.7818608E-02  0.1166068E+00
         21   -1    0    0  503  502  0.00000000000E+00  0.00000000000E+00  0.13830273623E+04  0.13830273623E+04  0.00000000000E+00 0.  1.
         21   -1    0    0  501  503 -0.00000000000E+00 -0.00000000000E+00 -0.49803940163E+02  0.49803940163E+02  0.00000000000E+00 0.  1.
          6    2    1    2  501    0 -0.56913492624E+02  0.36026296121E+02  0.15281866365E+03  0.23980153046E+03  0.17208774039E+03 0.  0.
         24    2    3    3    0    0 -0.62708251369E+02  0.77748374569E+02  0.66234067981E+02  0.14339980191E+03  0.78736375895E+02 0.  0.
         -6    2    1    2    0  502  0.56913492624E+02 -0.36026296121E+02  0.11804047585E+04  0.11930297720E+04  0.15946035052E+03 0.  0.
        -24    2    5    5    0    0  0.95532597443E+02 -0.93342434402E+01  0.89953776045E+03  0.90822762749E+03  0.80595506062E+02 0.  0.
          5    1    3    3  501    0  0.57947587447E+01 -0.41722078448E+02  0.86584595671E+02  0.96401728545E+02  0.47000000000E+01 0. -1.
        -11    1    4    4    0    0 -0.19125635315E+02  0.19998820481E+02 -0.17498090717E+02  0.32740279864E+02  0.00000000000E+00 0.  1.
         12    1    4    4    0    0 -0.43582616053E+02  0.57749554088E+02  0.83732158698E+02  0.11065952205E+03  0.00000000000E+00 0. -1.
         -5    1    5    5    0  502 -0.38619104819E+02 -0.26692052680E+02  0.28086699807E+03  0.28480214455E+03  0.47000000000E+01 0.  1.
         11    1    6    6    0    0 -0.24115038598E+01  0.20880817781E+02  0.22018413304E+03  0.22118516303E+03  0.00000000000E+00 0. -1.
        -12    1    6    6    0    0  0.97944101303E+02 -0.30215061221E+02  0.67935362741E+03  0.68704246447E+03  0.00000000000E+00 0.  1.
</event>
<event>
12    1  0.8196217E-002  0.2576470E+03  0.7818608E-02  0.1108688E+00
         21   -1    0    0  503  502  0.00000000000E+00  0.00000000000E+00  0.10347715442E+04  0.10347715442E+04  0.00000000000E+00 0.  1.
         21   -1    0    0  501  503 -0.00000000000E+00 -0.00000000000E+00 -0.10125066273E+03  0.10125066273E+03  0.00000000000E+00 0. -1.
          6    2    1    2  501    0 -0.16908201494E+03  0.87004415595E+02  0.12154229554E+03  0.28414710310E+03  0.17265152905E+03 0.  0.
         24    2    3    3    0    0 -0.93383738193E+01  0.44550932315E+02  0.32659561959E+02  0.96417085651E+02  0.78470482492E+02 0.  0.
         -6    2    1    2    0  502  0.16908201494E+03 -0.87004415595E+02  0.81197858598E+03  0.85187510388E+03  0.17384899314E+03 0.  0.
        -24    2    5    5    0    0  0.17949450492E+03 -0.11221910583E+03  0.66993400280E+03  0.70715829711E+03  0.80311170173E+02 0.  0.
          5    1    3    3  501    0 -0.15974364112E+03  0.42453483281E+02  0.88882733582E+02  0.18773001744E+03  0.47000000000E+01 0. -1.
        -13    1    4    4    0    0  0.16505868930E+02  0.28981384805E+02  0.51125895498E+02  0.61042784707E+02  0.00000000000E+00 0.  1.
         14    1    4    4    0    0 -0.25844242749E+02  0.15569547509E+02 -0.18466333539E+02  0.35374300944E+02  0.00000000000E+00 0. -1.
         -5    1    5    5    0  502 -0.10412489982E+02  0.25214690235E+02  0.14204458317E+03  0.14471680677E+03  0.47000000000E+01 0.  1.
         13    1    6    6    0    0  0.10055784485E+03 -0.66108075627E+02  0.25089473081E+03  0.27826304780E+03  0.00000000000E+00 0. -1.
        -14    1    6    6    0    0  0.78936660073E+02 -0.46111030204E+02  0.41903927199E+03  0.42889524931E+03  0.00000000000E+00 0.  1.
</event>
<event>
12    1  0.8196217E-002  0.2018504E+03  0.7818608E-02  0.1149261E+00
         21   -1    0    0  501  502  0.00000000000E+00  0.00000000000E+00  0.14796035928E+04  0.14796035928E+04  0.00000000000E+00 0.  1.
         21   -1    0    0  502  503 -0.00000000000E+00 -0.00000000000E+00 -0.36221769487E+03  0.36221769487E+03  0.00000000000E+00 0.  1.
         -6    2    1    2    0  503 -0.78683450641E+02 -0.62327378480E+02 -0.32689805244E+03  0.38419517703E+03  0.17512227114E+03 0.  0.
        -24    2    3    3    0    0 -0.59636149705E+02 -0.97085310898E+02 -0.31272543520E+03  0.34184111443E+03  0.77949482054E+02 0.  0.
          6    2    1    2  501    0  0.78683450641E+02  0.62327378480E+02  0.14442839503E+04  0.14576261106E+04  0.16923936196E+03 0.  0.
         24    2    5    5    0    0  0.10783901148E+03  0.27534927252E+02  0.79042199121E+03  0.80217350899E+03  0.79548662559E+02 0.  0.
          5    1    5    5  501    0 -0.29155560839E+02  0.34792451228E+02  0.65386195911E+03  0.65545260161E+03  0.47000000000E+01 0. -1.
        -11    1    6    6    0    0  0.65575109741E+02  0.49472107174E+02  0.36689865855E+03  0.37598166185E+03  0.00000000000E+00 0.  1.
         12    1    6    6    0    0  0.42263901739E+02 -0.21937179922E+02  0.42352333267E+03  0.42619184714E+03  0.00000000000E+00 0. -1.
         -5    1    3    3    0  503 -0.19047300936E+02  0.34757932418E+02 -0.14172617240E+02  0.42354062595E+02  0.47000000000E+01 0.  1.
         13    1    4    4    0    0 -0.20756283842E+02 -0.69637589987E+02 -0.98558809710E+02  0.12245021939E+03  0.00000000000E+00 0. -1.
        -14    1    4    4    0    0 -0.38879865863E+02 -0.27447720910E+02 -0.21416662549E+03  0.21939089504E+03  0.00000000000E+00 0.  1.
</event>
<event>
12    1  0.8196217E-002  0.1920881E+03  0.7818608E-02  0.1157014E+00
         21   -1    0    0  503  502  0.00000000000E+00  0.00000000000E+00  0.53057298415E+03  0.53057298415E+03  0.00000000000E+00 0.  1.
         21   -1    0    0  501  503 -0.00000000000E+00 -0.00000000000E+00 -0.77271023695E+02  0.77271023695E+02  0.00000000000E+00 0. -1.
          6    2    1    2  501    0 -0.84036620527E+02  0.72347376180E+01  0.12738044953E+03  0.23048561279E+03  0.17257851479E+03 0.  0.
         24    2    3    3    0    0 -0.38575197121E+02 -0.61399383158E+02  0.57262780146E+02  0.12224531941E+03  0.80043500939E+02 0.  0.
         -6    2    1    2    0  502  0.84036620527E+02 -0.72347376180E+01  0.32592151093E+03  0.37735839505E+03  0.17047003259E+03 0.  0.
        -24    2    5    5    0    0  0.98954257653E+02 -0.13804763602E+02  0.13836968391E+03  0.18904089996E+03  0.81288226863E+02 0.  0.
          5    1    3    3  501    0 -0.45461423406E+02  0.68634120776E+02  0.70117669379E+02  0.10824029338E+03  0.47000000000E+01 0. -1.
        -11    1    4    4    0    0 -0.60679989379E+02 -0.33819302699E+02  0.51402205295E+02  0.86417550621E+02  0.00000000000E+00 0.  1.
         12    1    4    4    0    0  0.22104792257E+02 -0.27580080459E+02  0.58605748502E+01  0.35827768790E+02  0.00000000000E+00 0. -1.
         -5    1    5    5    0  502 -0.14917637125E+02  0.65700259841E+01  0.18755182702E+03  0.18831749509E+03  0.47000000000E+01 0.  1.
         11    1    6    6    0    0  0.15340291586E+02  0.29406324984E+02  0.24090169680E+02  0.40992594090E+02  0.00000000000E+00 0. -1.
        -12    1    6    6    0    0  0.83613966067E+02 -0.43211088587E+02  0.11427951423E+03  0.14804830587E+03  0.00000000000E+00 0.  1.
</event>
<event>
12    1  0.8196217E-002  0.1898960E+03  0.7818608E-02  0.1158607E+00
         21   -1    0    0  503  502  0.00000000000E+00  0.00000000000E+00  0.36917756788E+03  0.36917756788E+03  0.00000000000E+00 0. -1.
         21   -1    0    0  501  503 -0.00000000000E+00 -0.00000000000E+00 -0.20263006588E+03  0.20263006588E+03  0.00000000000E+00 0. -1.
          6    2    1    2  501    0 -0.58439418991E+02  0.57512493725E+02 -0.12262617937E+03  0.22585692755E+03  0.17103017051E+03 0.  0.
         24    2    3    3    0    0 -0.87564909532E+02  0.17394328264E+02 -0.35081413296E+02  0.12513981149E+03  0.80368469087E+02 0.  0.
         -6    2    1    2    0  502  0.58439418991E+02 -0.57512493725E+02  0.28917368138E+03  0.34595070622E+03  0.17128228310E+03 0.  0.
        -24    2    5    5    0    0  0.10091638035E+03 -0.25875182874E+02  0.24002306007E+03  0.27354155446E+03  0.79751311823E+02 0.  0.
          5    1    3    3  501    0  0.29125490542E+02  0.40118165460E+02 -0.87544766078E+02  0.10071711606E+03  0.47000000000E+01 0. -1.
        -13    1    4    4    0    0  0.11133495506E+02 -0.15501404512E+01 -0.20782328366E+02  0.23627586206E+02  0.00000000000E+00 0.  1.
         14    1    4    4    0    0 -0.98698405038E+02  0.18944468715E+02 -0.14299084930E+02  0.10151222528E+03  0.00000000000E+00 0. -1.
         -5    1    5    5    0  502 -0.42476961356E+02 -0.31637310851E+02  0.49150621310E+02  0.72409151763E+02  0.47000000000E+01 0.  1.
         13    1    6    6    0    0  0.44078692932E+02 -0.52345950309E+02  0.12080091481E+03  0.13883764152E+03  0.00000000000E+00 0. -1.
        -14    1    6    6    0    0  0.56837687414E+02  0.26470767435E+02  0.11922214526E+03  0.13470391294E+03  0.00000000000E+00 0.  1.
</event>
<event>
12    1  0.8196217E-002  0.1991056E+03  0.7818608E-02  0.1152122E+00
         21   -1    0    0  501  502  0.00000000000E+00  0.00000000000E+00  0.82911098962E+02  0.82911098962E+02  0.00000000000E+00 0. -1.
         21   -1    0    0  502  503 -0.00000000000E+00 -0.00000000000E+00 -0.52021684229E+03  0.52021684229E+03  0.00000000000E+00 0.  1.
         -6    2    1    2    0  503  0.18129927180E+01 -0.99677384795E+02 -0.32471266501E+03  0.38089546415E+03  0.17234898262E+03 0.  0.
        -24    2    3    3    0    0  0.67406996797E+02 -0.47779387206E+02 -0.20239912551E+03  0.23264342379E+03  0.79567478076E+02 0.  0.
          6    2    1    2  501    0 -0.18129927180E+01  0.99677384795E+02 -0.11259307832E+03  0.22223247710E+03  0.16361908389E+03 0.  0.
         24    2    5    5    0    0  0.11308638434E+01  0.11837655892E+03 -0.12957700822E+03  0.19636996989E+03  0.88071990201E+02 0.  0.
          5    1    5    5  501    0 -0.29438565614E+01 -0.18699174126E+02  0.16983929907E+02  0.25862507217E+02  0.47000000000E+01 0. -1.
        -13    1    6    6    0    0  0.27245247237E+02  0.11833311343E+03 -0.10733366036E+03  0.16206647981E+03  0.00000000000E+00 0.  1.
         14    1    6    6    0    0 -0.26114383394E+02  0.43445494390E-01 -0.22243347864E+02  0.34303490081E+02  0.00000000000E+00 0. -1.
         -5    1    3    3    0  503 -0.65594004079E+02 -0.51897997589E+02 -0.12231353950E+03  0.14825204036E+03  0.47000000000E+01 0.  1.
         13    1    4    4    0    0  0.52684717299E+01  0.37951610884E+01  0.61884388202E+01  0.89697724100E+01  0.00000000000E+00 0. -1.
        -14    1    4    4    0    0  0.62138525067E+02 -0.51574548294E+02 -0.20858756433E+03  0.22367365138E+03  0.00000000000E+00 0.  1.
</event>
<event>
12    1  0.8196217E-002  0.3146341E+03  0.7818608E-02  0.1078157E+00
         21   -1    0    0  503  502  0.00000000000E+00  0.00000000000E+00  0.69089527923E+02  0.69089527923E+02  0.00000000000E+00 0. -1.
         21   -1    0    0  501  503 -0.00000000000E+00 -0.00000000000E+00 -0.17833491148E+04  0.17833491148E+04  0.00000000000E+00 0.  1.
          6    2    1    2  501    0  0.19610179963E+03  0.17616154484E+03 -0.12679071101E+04  0.13063387137E+04  0.17159134418E+03 0.  0.
         24    2    3    3    0    0  0.19977730044E+03  0.16844855418E+03 -0.95750156353E+03  0.99578003508E+03  0.80515519793E+02 0.  0.
         -6    2    1    2    0  502 -0.19610179963E+03 -0.17616154484E+03 -0.44635247678E+03  0.54609992901E+03  0.17177250432E+03 0.  0.
        -24    2    5    5    0    0 -0.15073285765E+03 -0.12318027749E+03 -0.20060770469E+03  0.29060445234E+03  0.79458929055E+02 0.  0.
          5    1    3    3  501    0 -0.36755008085E+01  0.77129906663E+01 -0.31040554656E+03  0.31055867862E+03  0.47000000000E+01 0. -1.
        -13    1    4    4    0    0  0.17496321795E+03  0.16514552215E+03 -0.91808233792E+03  0.94908395325E+03  0.00000000000E+00 0.  1.
         14    1    4    4    0    0  0.24814082491E+02  0.33030320288E+01 -0.39419225612E+02  0.46696081830E+02  0.00000000000E+00 0. -1.
         -5    1    5    5    0  502 -0.45368941986E+02 -0.52981267359E+02 -0.24574477209E+03  0.25549547667E+03  0.47000000000E+01 0.  1.
         11    1    6    6    0    0 -0.70432419681E+02 -0.27227945897E+02 -0.11995104633E+03  0.14174039754E+03  0.00000000000E+00 0. -1.
        -12    1    6    6    0    0 -0.80300437965E+02 -0.95952331588E+02 -0.80656658359E+02  0.14886405480E+03  0.00000000000E+00 0.  1.
</event>
<event>
12    1  0.8196217E-002  0.1907272E+03  0.7818608E-02  0.1157817E+00
         21   -1    0    0  503  502  0.00000000000E+00  0.00000000000E+00  0.74890490501E+02  0.74890490501E+02  0.00000000000E+00 0. -1.
         21   -1    0    0  501  503 -0.00000000000E+00 -0.00000000000E+00 -0.11135771219E+04  0.11135771219E+04  0.00000000000E+00 0. -1.
          6    2    1    2  501    0 -0.37739230015E+02 -0.72892501204E+02 -0.96560252088E+03  0.98425865489E+03  0.17216069583E+03 0.  0.
         24    2    3    3    0    0  0.52882635477E+01 -0.85352703916E+02 -0.87406012048E+03  0.88223550593E+03  0.83936546914E+02 0.  0.
         -6    2    1    2    0  502  0.37739230015E+02  0.72892501204E+02 -0.73084110474E+02  0.20420895746E+03  0.17211172212E+03 0.  0.
        -24    2    5    5    0    0 -0.42222694697E+02  0.62119847862E+02 -0.36107338632E+02  0.11533077612E+03  0.79723375308E+02 0.  0.
          5    1    3    3  501    0 -0.43027493562E+02  0.12460202712E+02 -0.91542400400E+02  0.10202314897E+03  0.47000000000E+01 0. -1.
        -13    1    4    4    0    0  0.25970811468E+02 -0.71896890293E+00 -0.10126472646E+03  0.10454446322E+03  0.00000000000E+00 0.  1.
         14    1    4    4    0    0 -0.20682547920E+02 -0.84633735013E+02 -0.77279539402E+03  0.77769104271E+03  0.00000000000E+00 0. -1.
         -5    1    5    5    0  502  0.79961924712E+02  0.10772653342E+02 -0.36976771842E+02  0.88878181347E+02  0.47000000000E+01 0.  1.
         11    1    6    6    0    0 -0.35046999087E+02  0.69081970587E+02  0.41493377307E+00  0.77464720843E+02  0.00000000000E+00 0. -1.
        -12    1    6    6    0    0 -0.71756956101E+01 -0.69621227252E+01 -0.36522272405E+02  0.37866055273E+02  0.00000000000E+00 0.  1.
</event>
<event>
12    1  0.8196217E-002  0.1821151E+03  0.7818608E-02  0.1166466E+00
         21   -1    0    0  501  502  0.00000000000E+00  0.00000000000E+00  0.64173465956E+02  0.64173465956E+02  0.00000000000E+00 0.  1.
         21   -1    0    0  502  503 -0.00000000000E+00 -0.00000000000E+00 -0.14005739054E+04  0.14005739054E+04  0.00000000000E+00 0.  1.
         -6    2    1    2    0  503  0.33442218666E+02 -0.35323688703E+02 -0.12545811405E+04  0.12677301562E+04  0.17549862075E+03 0.  0.
        -24    2    3    3    0    0 -0.40980591110E+02  0.19206154752E+02 -0.62846898078E+03  0.63483934020E+03  0.77456070317E+02 0.  0.
          6    2    1    2  501    0 -0.33442218666E+02  0.35323688703E+02 -0.81819298889E+02  0.19701721509E+03  0.17249707360E+03 0.  0.
         24    2    5    5    0    0 -0.70134486640E+02  0.58168031563E+02 -0.92378308925E+02  0.15227607941E+03  0.79698721991E+02 0.  0.
          5    1    5    5  501    0  0.36692267974E+02 -0.22844342860E+02  0.10559010036E+02  0.44741135689E+02  0.47000000000E+01 0. -1.
        -11    1    6    6    0    0 -0.28601140965E+02  0.69086253685E+02 -0.75129484607E+02  0.10599705265E+03  0.00000000000E+00 0.  1.
         12    1    6    6    0    0 -0.41533345676E+02 -0.10918222121E+02 -0.17248824318E+02  0.46279026758E+02  0.00000000000E+00 0. -1.
         -5    1    3    3    0  503  0.74422809776E+02 -0.54529843454E+02 -0.62611215975E+03  0.63289081604E+03  0.47000000000E+01 0.  1.
         11    1    4    4    0    0 -0.85749929638E+01 -0.28176662844E+02 -0.14398630458E+03  0.14696772006E+03  0.00000000000E+00 0. -1.
        -12    1    4    4    0    0 -0.32405598147E+02  0.47382817595E+02 -0.48448267620E+03  0.48787162014E+03  0.00000000000E+00 0.  1.
</event>
<event>
12    1  0.8196217E-002  0.2364814E+03  0.7818608E-02  0.1122198E+00
         21   -1    0    0  503  502  0.00000000000E+00  0.00000000000E+00  0.12263054651E+04  0.12263054651E+04  0.00000000000E+00 0.  1.
         21   -1    0    0  501  503 -0.00000000000E+00 -0.00000000000E+00 -0.15356563821E+03  0.15356563821E+03  0.00000000000E+00 0.  1.
          6    2    1    2  501    0 -0.15785052431E+03 -0.32880816670E+02 -0.42317068307E+02  0.24001350805E+03  0.17267835315E+03 0.  0.
         24    2    3    3    0    0 -0.76276298832E+02 -0.91302014878E+01  0.43419664418E+02  0.11921895800E+03  0.80165194105E+02 0.  0.
         -6    2    1    2    0  502  0.15785052431E+03  0.32880816670E+02  0.11150568952E+04  0.11398575953E+04  0.17298994716E+03 0.  0.
        -24    2    5    5    0    0  0.40850506834E+02  0.11008152735E+02  0.76174203466E+03  0.76700253201E+03  0.79069674364E+02 0.  0.
          5    1    3    3  501    0 -0.81574225480E+02 -0.23750615182E+02 -0.85736732725E+02  0.12079455005E+03  0.47000000000E+01 0. -1.
        -13    1    4    4    0    0 -0.43045930329E+02 -0.11628110391E+01 -0.19768506064E+02  0.47382465949E+02  0.00000000000E+00 0.  1.
         14    1    4    4    0    0 -0.33230368503E+02 -0.79673904487E+01  0.63188170483E+02  0.71836492052E+02  0.00000000000E+00 0. -1.
         -5    1    5    5    0  502  0.11700001748E+03  0.21872663935E+02  0.35331486057E+03  0.37285506329E+03  0.47000000000E+01 0.  1.
         11    1    6    6    0    0  0.11710603354E+02  0.24768806566E+02  0.81192675998E+02  0.85690621688E+02  0.00000000000E+00 0. -1.
        -12    1    6    6    0    0  0.29139903480E+02 -0.13760653831E+02  0.68054935866E+03  0.68131191032E+03  0.00000000000E+00 0.  1.
</event>
<event>
12    1  0.8196217E-002  0.2135792E+03  0.7818608E-02  0.1138936E+00
         21   -1    0    0  503  502  0.00000000000E+00  0.00000000000E+00  0.27442374056E+02  0.27442374056E+02  0.00000000000E+00 0.  1.
         21   -1    0    0  501  503 -0.00000000000E+00 -0.00000000000E+00 -0.16671709585E+04  0.16671709585E+04  0.00000000000E+00 0.  1.
          6    2    1    2  501    0 -0.91971259135E+02 -0.85605490349E+02 -0.75008692223E+03  0.77990157599E+03  0.17271092854E+03 0.  0.
         24    2    3    3    0    0  0.13232112419E+02 -0.66634595356E+02 -0.45249390964E+03  0.46365588766E+03  0.74905178730E+02 0.  0.
         -6    2    1    2    0  502  0.91971259135E+02  0.85605490349E+02 -0.88964166222E+03  0.91471175658E+03  0.17160506396E+03 0.  0.
        -24    2    5    5    0    0  0.34148710757E+02  0.11571494940E+03 -0.67884573628E+03  0.69401504382E+03  0.79178680429E+02 0.  0.
          5    1    3    3  501    0 -0.10520337155E+03 -0.18970894994E+02 -0.29759301259E+03  0.31624568833E+03  0.47000000000E+01 0. -1.
        -13    1    4    4    0    0 -0.49185475245E+01 -0.34207057664E+02 -0.38549502999E+03  0.38704099660E+03  0.00000000000E+00 0.  1.
         14    1    4    4    0    0  0.18150659943E+02 -0.32427537692E+02 -0.66998879655E+02  0.76614891060E+02  0.00000000000E+00 0. -1.
         -5    1    5    5    0  502  0.57822548378E+02 -0.30109459049E+02 -0.21079592595E+03  0.22069671276E+03  0.47000000000E+01 0.  1.
         11    1    6    6    0    0 -0.20013650193E+02  0.49499397863E+01 -0.11660059065E+03  0.11840923037E+03  0.00000000000E+00 0. -1.
        -12    1    6    6    0    0  0.54162360950E+02  0.11076500961E+03 -0.56224514563E+03  0.57560581345E+03  0.00000000000E+00 0.  1.
</event>
<event>
12    1  0.8196217E-002  0.1943706E+03  0.7818608E-02  0.1154637E+00
         21   -1    0    0  503  502  0.00000000000E+00  0.00000000000E+00  0.12762632876E+03  0.12762632876E+03  0.00000000000E+00 0.  1.
         21   -1    0    0  501  503 -0.00000000000E+00 -0.00000000000E+00 -0.71284399783E+03  0.71284399783E+03  0.00000000000E+00 0. -1.
          6    2    1    2  501    0 -0.30940686096E+02  0.85103300559E+02 -0.61419982027E+03  0.64422151818E+03  0.17198850960E+03 0.  0.
         24    2    3    3    0    0 -0.84456874049E+02  0.74107000213E+02 -0.47430766781E+03  0.49396571857E+03  0.80059704745E+02 0.  0.
         -6    2    1    2    0  502  0.30940686096E+02 -0.85103300559E+02  0.28982151209E+02  0.19624880841E+03  0.17167915393E+03 0.  0.
        -24    2    5    5    0    0 -0.28028304610E+02 -0.10075696968E+03  0.25909613817E+02  0.13497965053E+03  0.81305874146E+02 0.  0.
          5    1    3    3  501    0  0.53516187953E+02  0.10996300346E+02 -0.13989215246E+03  0.15025579960E+03  0.47000000000E+01 0. -1.
        -11    1    4    4    0    0 -0.56708480886E+02  0.50646291352E+02 -0.15548912046E+03  0.17308311649E+03  0.00000000000E+00 0.  1.
         12    1    4    4    0    0 -0.27748393163E+02  0.23460708861E+02 -0.31881854735E+03  0.32088260208E+03  0.00000000000E+00 0. -1.
         -5    1    5    5    0  502  0.58968990706E+02  0.15653669121E+02  0.30725373922E+01  0.61269157884E+02  0.47000000000E+01 0.  1.
         11    1    6    6    0    0  0.12591100708E+02 -0.69954790013E+02 -0.11159067664E+02  0.71949518788E+02  0.00000000000E+00 0. -1.
        -12    1    6    6    0    0 -0.40619405318E+02 -0.30802179667E+02  0.37068681481E+02  0.63030131742E+02  0.00000000000E+00 0.  1.
</event>
<event>
12    1  0.8196217E-002  0.2757463E+03  0.7818608E-02  0.1098195E+00
         21   -1    0    0  501  502  0.00000000000E+00  0.00000000000E+00  0.54600880746E+02  0.54600880746E+02  0.00000000000E+00 0. -1.
         21   -1    0    0  502  503 -0.00000000000E+00 -0.00000000000E+00 -0.19463690842E+04  0.19463690842E+04  0.00000000000E+00 0.  1.
         -6    2    1    2    0  503 -0.13489720992E+03  0.16601863535E+03 -0.14837410330E+04  0.15091465989E+04  0.17400160728E+03 0.  0.
        -24    2    3    3    0    0 -0.73674010237E+02  0.15671472808E+03 -0.13236447875E+04  0.13374266505E+04  0.81775032916E+02 0.  0.
          6    2    1    2  501    0  0.13489720992E+03 -0.16601863535E+03 -0.40802717045E+03  0.49182336607E+03  0.17217609318E+03 0.  0.
         24    2    5    5    0    0  0.18656913951E+02 -0.12694029875E+03 -0.22181316944E+03  0.26880617622E+03  0.81201960277E+02 0.  0.
          5    1    5    5  501    0  0.11624029597E+03 -0.39078336601E+02 -0.18621400101E+03  0.22301718985E+03  0.47000000000E+01 0. -1.
        -11    1    6    6    0    0  0.21555834596E+02 -0.84694546919E+02 -0.20570588730E+03  0.22350107909E+03  0.00000000000E+00 0.  1.
         12    1    6    6    0    0 -0.28989206447E+01 -0.42245751828E+02 -0.16107282142E+02  0.45305097136E+02  0.00000000000E+00 0. -1.
         -5    1    3    3    0  503 -0.61223199683E+02  0.93039072711E+01 -0.16009624550E+03  0.17171994845E+03  0.47000000000E+01 0.  1.
         13    1    4    4    0    0 -0.48281336619E+02  0.46327366570E+02 -0.29129493770E+03  0.29888133614E+03  0.00000000000E+00 0. -1.
        -14    1    4    4    0    0 -0.25392673618E+02  0.11038736151E+03 -0.10323498498E+04  0.10385453143E+04  0.00000000000E+00 0.  1.
</event>
<event>
12    1  0.8196217E-002  0.1777296E+03  0.7818608E-02  0.1170186E+00
         21   -1    0    0  503  502  0.00000000000E+00  0.00000000000E+00  0.14415427966E+03  0.14415427966E+03  0.00000000000E+00 0.  1.
         21   -1    0    0  501  503 -0.00000000000E+00 -0.00000000000E+00 -0.32718709563E+03  0.32718709563E+03  0.00000000000E+00 0.  1.
          6    2    1    2  501    0 -0.38164432140E+02  0.23056145038E+02  0.44329476016E+02  0.18317451545E+03  0.17204560722E+03 0.  0.
         24    2    3    3    0    0  0.31289608053E+02 -0.29392713363E+02  0.12086643744E+02  0.90242084730E+02  0.78451104062E+02 0.  0.
         -6    2    1    2    0  502  0.38164432140E+02 -0.23056145038E+02 -0.22736229199E+03  0.28816685984E+03  0.17134298231E+03 0.  0.
        -24    2    5    5    0    0 -0.32570424456E+02  0.84132378822E+01 -0.63532227083E+02  0.10690428189E+03  0.79123741612E+02 0.  0.
          5    1    3    3  501    0 -0.69454040193E+02  0.52448858401E+02  0.32242832271E+02  0.92932430720E+02  0.47000000000E+01 0. -1.
        -13    1    4    4    0    0  0.43384541001E+02 -0.42869760894E+02  0.27078658849E+02  0.66732964583E+02  0.00000000000E+00 0.  1.
         14    1    4    4    0    0 -0.12094932949E+02  0.13477047531E+02 -0.14992015104E+02  0.23509120147E+02  0.00000000000E+00 0. -1.
         -5    1    5    5    0  502  0.70734856596E+02 -0.31469382920E+02 -0.16383006491E+03  0.18126257795E+03  0.47000000000E+01 0.  1.
         11    1    6    6    0    0  0.16995141647E+02  0.14328822531E+02 -0.50707140037E+02  0.55365729883E+02  0.00000000000E+00 0. -1.
        -12    1    6    6    0    0 -0.49565566103E+02 -0.59155846489E+01 -0.12825087046E+02  0.51538552003E+02  0.00000000000E+00 0.  1.
</event>
<event>
12    1  0.8196217E-002  0.1860471E+03  0.7818608E-02  0.1162611E+00
         21   -1    0    0  503  502  0.00000000000E+00  0.00000000000E+00  0.33309827775E+03  0.33309827775E+03  0.00000000000E+00 0. -1.
         21   -1    0    0  501  503 -0.00000000000E+00 -0.00000000000E+00 -0.13618106025E+03  0.13618106025E+03  0.00000000000E+00 0. -1.
          6    2    1    2  501    0 -0.54264630843E+02 -0.33955726636E+02  0.21537439772E+03  0.28460441469E+03  0.17468800799E+03 0.  0.
         24    2    3    3    0    0 -0.25802704948E+02 -0.21306110821E+02  0.23952955207E+02  0.90608660460E+02  0.80724564701E+02 0.  0.
         -6    2    1    2    0  502  0.54264630843E+02  0.33955726636E+02 -0.18457180219E+02  0.18467492331E+03  0.17223971164E+03 0.  0.
        -24    2    5    5    0    0 -0.21665913109E+02  0.62039157088E+02 -0.83834475212E+01  0.10295774848E+03  0.78814636820E+02 0.  0.
          5    1    3    3  501    0 -0.28461925896E+02 -0.12649615815E+02  0.19142144251E+03  0.19399575423E+03  0.47000000000E+01 0. -1.
        -11    1    4    4    0    0 -0.49687902709E+02 -0.12308913672E+01 -0.24093777386E+01  0.49761509928E+02  0.00000000000E+00 0.  1.
         12    1    4    4    0    0  0.23885197762E+02 -0.20075219454E+02  0.26362332945E+02  0.40847150532E+02  0.00000000000E+00 0. -1.
         -5    1    5    5    0  502  0.75930543952E+02 -0.28083430452E+02 -0.10073732698E+02  0.81717174825E+02  0.47000000000E+01 0.  1.
         13    1    6    6    0    0 -0.80551441271E+01  0.85110194213E+01 -0.38364056099E+02  0.40113882870E+02  0.00000000000E+00 0. -1.
        -14    1    6    6    0    0 -0.13610768982E+02  0.53528137667E+02  0.29980608578E+02  0.62843865612E+02  0.00000000000E+00 0.  1.
</event>
<event>
12    1  0.8196217E-002  0.2631561E+03  0.7818608E-02  0.1105551E+00
         21   -1    0    0  503  502  0.00000000000E+00  0.00000000000E+00  0.17307874591E+04  0.17307874591E+04  0.00000000000E+00 0.  1.
         21   -1    0    0  501  503 -0.00000000000E+00 -0.00000000000E+00 -0.24761082016E+03  0.24761082016E+03  0.00000000000E+00 0.  1.
          6    2    1    2  501    0  0.19858201966E+03  0.12222869655E+01 -0.16437138668E+03  0.31027262964E+03  0.17266974093E+03 0.  0.
         24    2    3    3    0    0  0.97787422531E+02  0.58127456368E+02 -0.12831860540E+03  0.18894809729E+03  0.79338123156E+02 0.  0.
         -6    2    1    2    0  502 -0.19858201966E+03 -0.12222869655E+01  0.16475480256E+04  0.16681256496E+04  0.16968315671E+03 0.  0.
        -24    2    5    5    0    0 -0.12471545351E+03 -0.29081290759E+02  0.66266864745E+03  0.68007611988E+03  0.83511236908E+02 0.  0.
          5    1    3    3  501    0  0.10079459712E+03 -0.56905169403E+02 -0.36052781273E+02  0.12132453236E+03  0.47000000000E+01 0. -1.
        -13    1    4    4    0    0  0.92319407712E+02  0.32174330528E+02 -0.57722091246E+02  0.11353369721E+03  0.00000000000E+00 0.  1.
         14    1    4    4    0    0  0.54680148197E+01  0.25953125841E+02 -0.70596514159E+02  0.75414400073E+02  0.00000000000E+00 0. -1.
         -5    1    5    5    0  502 -0.73866566141E+02  0.27859003793E+02  0.98487937815E+03  0.98804952972E+03  0.47000000000E+01 0.  1.
         13    1    6    6    0    0 -0.12987965105E+03 -0.43303253939E+02  0.61539042766E+03  0.63043578104E+03  0.00000000000E+00 0. -1.
        -14    1    6    6    0    0  0.51641975385E+01  0.14221963180E+02  0.47278219790E+02  0.49640338833E+02  0.00000000000E+00 0.  1.
</event>
<event>
12    1  0.8196217E-002  0.2368385E+03  0.7818608E-02  0.1122987E+00
         21   -1    0    0  501  502  0.00000000000E+00  0.00000000000E+00  0.32281814893E+02  0.32281814893E+02  0.00000000000E+00 0.  1.
         21   -1    0    0  502  503 -0.00000000000E+00 -0.00000000000E+00 -0.18142218582E+04  0.18142218582E+04  0.00000000000E+00 0. -1.
         -6    2    1    2    0  503 -0.31273183262E+02  0.15169040736E+03 -0.64049362994E+03  0.68074539149E+03  0.17086312172E+03 0.  0.
        -24    2    3    3    0    0 -0.50187986328E+01  0.32298430396E+02 -0.41357354351E+03  0.42294982811E+03  0.82311021482E+02 0.  0.
          6    2    1    2  501    0  0.31273183262E+02 -0.15169040736E+03 -0.11414464134E+04  0.11657582816E+04  0.17917718845E+03 0.  0.
         24    2    5    5    0    0 -0.41567570870E+02 -0.56709556093E+02 -0.71408795639E+03  0.72192894693E+03  0.79473003264E+02 0.  0.
          5    1    5    5  501    0  0.72840754132E+02 -0.94980851265E+02 -0.42735845697E+03  0.44382933467E+03  0.47000000000E+01 0. -1.
        -11    1    6    6    0    0 -0.47690204591E+02 -0.22703312137E+02 -0.20586694858E+03  0.21253469484E+03  0.00000000000E+00 0.  1.
         12    1    6    6    0    0  0.61226337212E+01 -0.34006243956E+02 -0.50822100782E+03  0.50939425209E+03  0.00000000000E+00 0. -1.
         -5    1    3    3    0  503 -0.26254384629E+02  0.11939197696E+03 -0.22692008643E+03  0.25779556338E+03  0.47000000000E+01 0.  1.
         13    1    4    4    0    0  0.15915247161E+02  0.47113055265E+01 -0.13540144476E+02  0.21420247533E+02  0.00000000000E+00 0. -1.
        -14    1    4    4    0    0 -0.20934045794E+02  0.27587124869E+02 -0.40003339903E+03  0.40152958057E+03  0.00000000000E+00 0.  1.
</event>
<event>
12    1  0.8196217E-002  0.1848203E+03  0.7818608E-02  0.1164806E+00
         21   -1    0    0  503  502  0.00000000000E+00  0.00000000000E+00  0.46366559719E+03  0.46366559719E+03  0.00000000000E+00 0.  1.
         21   -1    0    0  501  503 -0.00000000000E+00 -0.00000000000E+00 -0.33839380457E+03  0.33839380457E+03  0.00000000000E+00 0.  1.
          6    2    1    2  501    0  0.43515373461E+02 -0.48004665229E+02 -0.29405209512E+03  0.34381158917E+03  0.16595703838E+03 0.  0.
         24    2    3    3    0    0  0.60765009362E+02 -0.41274033714E+02 -0.30380585216E+03  0.32236218088E+03  0.78888830880E+02 0.  0.
         -6    2    1    2    0  502 -0.43515373461E+02  0.48004665229E+02  0.41932388774E+03  0.45824781259E+03  0.17309101451E+03 0.  0.
        -24    2    5    5    0    0 -0.63713028332E+02 -0.15690540628E+02  0.16361559717E+03  0.19391120071E+03  0.80783334179E+02 0.  0.
          5    1    3    3  501    0 -0.17249635901E+02 -0.67306315150E+01  0.97537570356E+01  0.21449408282E+02  0.47000000000E+01 0. -1.
        -13    1    4    4    0    0  0.48547980256E+02 -0.64933722992E+02 -0.23423926228E+03  0.24787361045E+03  0.00000000000E+00 0.  1.
         14    1    4    4    0    0  0.12217029106E+02  0.23659689277E+02 -0.69566589881E+02  0.74488570429E+02  0.00000000000E+00 0. -1.
         -5    1    5    5    0  502  0.20197654871E+02  0.63695205858E+02  0.25570829057E+03  0.26433661188E+03  0.47000000000E+01 0.  1.
         13    1    6    6    0    0 -0.45629127463E+02  0.30032847672E+02  0.79001882821E+02  0.96048356059E+02  0.00000000000E+00 0. -1.
        -14    1    6    6    0    0 -0.18083900869E+02 -0.45723388301E+02  0.84613714348E+02  0.97862844656E+02  0.00000000000E+00 0.  1.
</event>
<event>
12    1  0.8196217E-002  0.1791365E+03  0.7818608E-02  0.1170602E+00
         21   -1    0    0  503  502  0.00000000000E+00  0.00000000000E+00  0.15275670076E+02  0.15275670076E+02  0.00000000000E+00 0.  1.
         21   -1    0    0  501  503 -0.00000000000E+00 -0.00000000000E+00 -0.31542041697E+04  0.31542041697E+04  0.00000000000E+00 0.  1.
          6    2    1    2  501    0  0.39811811597E+02 -0.30504099426E+02 -0.25464087482E+04  0.25527019795E+04  0.17197209817E+03 0.  0.
         24    2    3    3    0    0 -0.42241741722E+02 -0.92238989648E+01 -0.16282168944E+04  0.16305935244E+04  0.76652080539E+02 0.  0.
         -6    2    1    2    0  502 -0.39811811597E+02  0.30504099426E+02 -0.59251975139E+03  0.61677786030E+03  0.16376749597E+03 0.  0.
        -24    2    5    5    0    0 -0.20813833064E+02 -0.41855539962E+02 -0.38576282532E+03  0.39685206126E+03  0.80582251509E+02 0.  0.
          5    1    3    3  501    0  0.82053553319E+02 -0.21280200461E+02 -0.91819185383E+03  0.92210845511E+03  0.47000000000E+01 0. -1.
        -11    1    4    4    0    0 -0.26511487268E+01 -0.56756818445E+01 -0.12948602145E+04  0.12948753673E+04  0.00000000000E+00 0.  1.
         12    1    4    4    0    0 -0.39590592995E+02 -0.35482171203E+01 -0.33335667995E+03  0.33571815704E+03  0.00000000000E+00 0. -1.
         -5    1    5    5    0  502 -0.18997978533E+02  0.72359639388E+02 -0.20675692607E+03  0.21992579903E+03  0.47000000000E+01 0.  1.
         11    1    6    6    0    0 -0.18791820900E+02 -0.81872387239E+01 -0.33664503830E+03  0.33726850612E+03  0.00000000000E+00 0. -1.
        -12    1    6    6    0    0 -0.20220121640E+01 -0.33668301238E+02 -0.49117787020E+02  0.59583555140E+02  0.00000000000E+00 0.  1.
</event>
<event>
12    1  0.8196217E-002  0.1913618E+03  0.7818608E-02  0.1158112E+00
         21   -1    0    0  503  502  0.00000000000E+00  0.00000000000E+00  0.38546242930E+03  0.38546242930E+03  0.00000000000E+00 0. -1.
         21   -1    0    0  501  503 -0.00000000000E+00 -0.00000000000E+00 -0.96891154777E+02  0.96891154777E+02  0.00000000000E+00 0.  1.
          6    2    1    2  501    0 -0.10193729691E+01 -0.74470308522E+02  0.97946035637E+02  0.21497153520E+03  0.17627384683E+03 0.  0.
         24    2    3    3    0    0  0.33674408752E+02 -0.53731690953E+02  0.12972113138E+03  0.16334309867E+03  0.76369729207E+02 0.  0.
         -6    2    1    2    0  502  0.10193729691E+01  0.74470308522E+02  0.19062523889E+03  0.26738204888E+03  0.17207066104E+03 0.  0.
        -24    2    5    5    0    0 -0.25366744117E+02  0.15323329114E+02  0.25559791926E+02  0.90003120794E+02  0.81049260744E+02 0.  0.
          5    1    3    3  501    0 -0.34693781722E+02 -0.20738617570E+02 -0.31775095744E+02  0.51628436529E+02  0.47000000000E+01 0. -1.
        -11    1    4    4    0    0  0.17402470157E+02  0.10409673040E+02  0.31553403156E+01  0.20522266757E+02  0.00000000000E+00 0.  1.
         12    1    4    4    0    0  0.16271938596E+02 -0.64141363992E+02  0.12656579106E+03  0.14282083191E+03  0.00000000000E+00 0. -1.
         -5    1    5    5    0  502  0.26386117086E+02  0.59146979408E+02  0.16506544696E+03  0.17737892809E+03  0.47000000000E+01 0.  1.
         13    1    6    6    0    0 -0.11227604874E+02  0.42807334325E+02  0.36345956824E+02  0.57267403998E+02  0.00000000000E+00 0. -1.
        -14    1    6    6    0    0 -0.14139139243E+02 -0.27484005211E+02 -0.10786164898E+02  0.32735716796E+02  0.00000000000E+00 0.  1.
</event>
<event>
12    1  0.8196217E-002  0.2291441E+03  0.7818608E-02  0.1128072E+00
         21   -1    0    0  501  502  0.00000000000E+00  0.00000000000E+00  0.11026140189E+03  0.11026140189E+03  0.00000000000E+00 0.  1.
         21   -1    0    0  502  503 -0.00000000000E+00 -0.00000000000E+00 -0.68971128079E+03  0.68971128079E+03  0.00000000000E+00 0. -1.
         -6    2    1    2    0  503 -0.71563247575E+02  0.12862146232E+03 -0.51920584702E+03  0.56752244980E+03  0.17561959025E+03 0.  0.
        -24    2    3    3    0    0 -0.11571863750E+03  0.80934237794E+02 -0.40263456199E+03  0.43397573762E+03  0.79241380729E+02 0.  0.
          6    2    1    2  501    0  0.71563247575E+02 -0.12862146232E+03 -0.60244031890E+02  0.23245023288E+03  0.16952577508E+03 0.  0.
         24    2    5    5    0    0  0.91725264085E+02 -0.10719638476E+03  0.35893050844E+00  0.16491987001E+03  0.85404014633E+02 0.  0.
          5    1    5    5  501    0 -0.20162016510E+02 -0.21425077559E+02 -0.60602962398E+02  0.67530362872E+02  0.47000000000E+01 0. -1.
        -11    1    6    6    0    0  0.11466009379E+02 -0.40099279536E+02  0.35286994439E+02  0.54631433872E+02  0.00000000000E+00 0.  1.
         12    1    6    6    0    0  0.80259254706E+02 -0.67097105222E+02 -0.34928063931E+02  0.11028843614E+03  0.00000000000E+00 0. -1.
         -5    1    3    3    0  503  0.44155389926E+02  0.47687224523E+02 -0.11657128502E+03  0.13354671218E+03  0.47000000000E+01 0.  1.
         11    1    4    4    0    0 -0.40969702258E+02  0.57817516041E+02 -0.27740968941E+03  0.28631716233E+03  0.00000000000E+00 0. -1.
        -12    1    4    4    0    0 -0.74748935242E+02  0.23116721754E+02 -0.12522487258E+03  0.14765857529E+03  0.00000000000E+00 0.  1.
</event>
<event>
12    1  0.8196217E-002  0.1797556E+03  0.7818608E-02  0.1168716E+00
         21   -1    0    0  501  502  0.00000000000E+00  0.00000000000E+00  0.27679513261E+03  0.27679513261E+03  0.00000000000E+00 0. -1.
         21   -1    0    0  502  503 -0.00000000000E+00 -0.00000000000E+00 -0.50798050309E+03  0.50798050309E+03  0.00000000000E+00 0. -1.
         -6    2    1    2    0  503 -0.43775586623E+02  0.93078548370E+00 -0.46094233041E+03  0.49475238063E+03  0.17434138301E+03 0.  0.
        -24    2    3    3    0    0  0.39477644870E+02  0.34012076960E+02 -0.23935975376E+03  0.25569924705E+03  0.73305575496E+02 0.  0.
          6    2    1    2  501    0  0.43775586623E+02 -0.93078548370E+00  0.22975695993E+03  0.29002325507E+03  0.17148778235E+03 0.  0.
         24    2    5    5    0    0  0.90344123126E+02  0.22734424940E+02  0.16949390357E+03  0.21013335121E+03  0.82151855008E+02 0.  0.
          5    1    5    5  501    0 -0.46568536503E+02 -0.23665210424E+02  0.60263056361E+02  0.79889903858E+02  0.47000000000E+01 0. -1.
        -13    1    6    6    0    0  0.92263394104E+02 -0.83293761023E+01  0.11882890650E+03  0.15067256359E+03  0.00000000000E+00 0.  1.
         14    1    6    6    0    0 -0.19192709781E+01  0.31063801042E+02  0.50664997069E+02  0.59460787619E+02  0.00000000000E+00 0. -1.
         -5    1    3    3    0  503 -0.83253231493E+02 -0.33081291477E+02 -0.22158257665E+03  0.23905313358E+03  0.47000000000E+01 0.  1.
         13    1    4    4    0    0 -0.13743934752E+02  0.24697930854E+02 -0.13772448703E+03  0.14059487138E+03  0.00000000000E+00 0. -1.
        -14    1    4    4    0    0  0.53221579622E+02  0.93141461063E+01 -0.10163526673E+03  0.11510437567E+03  0.00000000000E+00 0.  1.
</event>
<event>
12    1  0.8196217E-002  0.1787717E+03  0.7818608E-02  0.1170915E+00
         21   -1    0    0  503  502  0.00000000000E+00  0.00000000000E+00  0.24307175650E+03  0.24307175650E+03  0.00000000000E+00 0. -1.
         21   -1    0    0  501  503 -0.00000000000E+00 -0.00000000000E+00 -0.15327791696E+03  0.15327791696E+03  0.00000000000E+00 0. -1.
          6    2    1    2  501    0 -0.44725209402E+02  0.23052452057E+02 -0.39653555461E+02  0.17563281492E+03  0.16353201923E+03 0.  0.
         24    2    3    3    0    0 -0.40017989169E+02 -0.31052526618E+02  0.18541475141E+02  0.95894127784E+02  0.79285550869E+02 0.  0.
         -6    2    1    2    0  502  0.44725209402E+02 -0.23052452057E+02  0.12944739500E+03  0.22071685854E+03  0.17154458217E+03 0.  0.
        -24    2    5    5    0    0  0.21671003482E+02 -0.22545463694E+02  0.16052128415E+03  0.18173699150E+03  0.79267402425E+02 0.  0.
          5    1    3    3  501    0 -0.47072202334E+01  0.54104978675E+02 -0.58195030602E+02  0.79738687138E+02  0.47000000000E+01 0. -1.
        -13    1    4    4    0    0 -0.31595634793E+02 -0.73023856406E+01  0.47495331066E+02  0.57510133430E+02  0.00000000000E+00 0.  1.
         14    1    4    4    0    0 -0.84223543752E+01 -0.23750140977E+02 -0.28953855925E+02  0.38383994354E+02  0.00000000000E+00 0. -1.
         -5    1    5    5    0  502  0.23054205920E+02 -0.50698836330E+00 -0.31073889153E+02  0.38979867046E+02  0.47000000000E+01 0.  1.
         11    1    6    6    0    0  0.28218797650E+01 -0.14310688620E+02 -0.46348128880E+01  0.15304911130E+02  0.00000000000E+00 0. -1.
        -12    1    6    6    0    0  0.18849123717E+02 -0.82347750740E+01  0.16515609704E+03  0.16643208037E+03  0.00000000000E+00 0.  1.
</event>
<event>
12    1  0.8196217E-002  0.2116636E+03  0.7818608E-02  0.1140347E+00
         21   -1    0    0  503  502  0.00000000000E+00  0.00000000000E+00  0.25056461410E+03  0.25056461410E+03  0.00000000000E+00 0.  1.
         21   -1    0    0  501  503 -0.00000000000E+00 -0.00000000000E+00 -0.18082017222E+03  0.18082017222E+03  0.00000000000E+00 0.  1.
          6    2    1    2  501    0 -0.10379771239E+03  0.65804956958E+02  0.99960903462E+01  0.21189949303E+03  0.17232880162E+03 0.  0.
         24    2    3    3    0    0 -0.11859658938E+03 -0.54506286394E+00  0.14690389136E+02  0.14359533260E+03  0.79613842433E+02 0.  0.
         -6    2    1    2    0  502  0.10379771239E+03 -0.65804956958E+02  0.59748351529E+02  0.21948529330E+03  0.17175468263E+03 0.  0.
        -24    2    5    5    0    0 -0.13572804410E+02 -0.94197510989E+01  0.38915624402E+02  0.87533703036E+02  0.76647052222E+02 0.  0.
          5    1    3    3  501    0  0.14798876991E+02  0.66350019822E+02 -0.46942987899E+01  0.68304160427E+02  0.47000000000E+01 0. -1.
        -11    1    4    4    0    0 -0.23191533049E+02  0.29099168349E+02 -0.13833692128E+02  0.39698612591E+02  0.00000000000E+00 0.  1.
         12    1    4    4    0    0 -0.95405056328E+02 -0.29644231213E+02  0.28524081265E+02  0.10389672001E+03  0.00000000000E+00 0. -1.
         -5    1    5    5    0  502  0.11737051679E+03 -0.56385205859E+02  0.20832727127E+02  0.13195159026E+03  0.47000000000E+01 0.  1.
         13    1    6    6    0    0  0.21081697216E+02  0.67482020217E+01  0.43708527118E+02  0.48993994845E+02  0.00000000000E+00 0. -1.
        -14    1    6    6    0    0 -0.34654501626E+02 -0.16167953121E+02 -0.47929027156E+01  0.38539708192E+02  0.00000000000E+00 0.  1.
</event>
<event>
12    1  0.8196217E-002  0.2208293E+03  0.7818608E-02  0.1133301E+00
         21   -1    0    0  501  502  0.00000000000E+00  0.00000000000E+00  0.20959560008E+04  0.20959560008E+04  0.00000000000E+00 0.  1.
         21   -1    0    0  502  503 -0.00000000000E+00 -0.00000000000E+00 -0.23661663334E+02  0.23661663334E+02  0.00000000000E+00 0. -1.
         -6    2    1    2    0  503 -0.13827428102E+03  0.10535638455E+02  0.89624947318E+03  0.92305401733E+03  0.17185698783E+03 0.  0.
        -24    2    3    3    0    0 -0.25593134887E+02  0.53665216438E+01  0.18980858720E+03  0.20764883434E+03  0.80043304037E+02 0.  0.
          6    2    1    2  501    0  0.13827428102E+03 -0.10535638455E+02  0.11760448643E+04  0.11965636468E+04  0.17161661216E+03 0.  0.
         24    2    5    5    0    0  0.12712456537E+03  0.46770802571E+02  0.73494773764E+03  0.75159498557E+03  0.79991763211E+02 0.  0.
          5    1    5    5  501    0  0.11149715647E+02 -0.57306441026E+02  0.44109712665E+03  0.44496866123E+03  0.47000000000E+01 0. -1.
        -13    1    6    6    0    0  0.22573254525E+02  0.69093136656E+01  0.34784944701E+03  0.34864957797E+03  0.00000000000E+00 0.  1.
         14    1    6    6    0    0  0.10455131085E+03  0.39861488905E+02  0.38709829063E+03  0.40294540760E+03  0.00000000000E+00 0. -1.
         -5    1    3    3    0  503 -0.11268114613E+03  0.51691168115E+01  0.70644088597E+03  0.71540518298E+03  0.47000000000E+01 0.  1.
         11    1    4    4    0    0 -0.49577115171E+02  0.21483751846E+02  0.10560226597E+03  0.11862242840E+03  0.00000000000E+00 0. -1.
        -12    1    4    4    0    0  0.23983980283E+02 -0.16117230202E+02  0.84206321234E+02  0.89026405944E+02  0.00000000000E+00 0.  1.
</event>
<event>
12    1  0.8196217E-002  0.1771034E+03  0.7818608E-02  0.1170936E+00
         21   -1    0    0  501  502  0.00000000000E+00  0.00000000000E+00  0.22975285342E+03  0.22975285342E+03  0.00000000000E+00 0. -1.
         21   -1    0    0  502  503 -0.00000000000E+00 -0.00000000000E+00 -0.18540380487E+03  0.18540380487E+03  0.00000000000E+00 0. -1.
         -6    2    1    2    0  503  0.33183740751E+02 -0.13274013879E+02 -0.85366976556E+02  0.19660404620E+03  0.17345970772E+03 0.  0.
        -24    2    3    3    0    0  0.46180357161E+02  0.25406313596E+02 -0.11249932025E+03  0.14737667733E+03  0.79282291882E+02 0.  0.
          6    2    1    2  501    0 -0.33183740751E+02  0.13274013879E+02  0.12971602510E+03  0.21855261209E+03  0.17222554105E+03 0.  0.
         24    2    5    5    0    0 -0.57812164614E+02  0.48334833123E+02  0.13631784718E+03  0.17494648451E+03  0.79656854761E+02 0.  0.
          5    1    5    5  501    0  0.24628423863E+02 -0.35060819244E+02 -0.66018220848E+01  0.43606127584E+02  0.47000000000E+01 0. -1.
        -11    1    6    6    0    0 -0.19258694704E+02  0.40959521320E+02  0.15387843920E+02  0.47805496013E+02  0.00000000000E+00 0.  1.
         12    1    6    6    0    0 -0.38553469909E+02  0.73753118030E+01  0.12093000326E+03  0.12714098849E+03  0.00000000000E+00 0. -1.
         -5    1    3    3    0  503 -0.12996616410E+02 -0.38680327475E+02  0.27132343694E+02  0.49227368871E+02  0.47000000000E+01 0.  1.
         11    1    4    4    0    0  0.62654384168E+02 -0.21680503846E+01 -0.80558953830E+02  0.10207848618E+03  0.00000000000E+00 0. -1.
        -12    1    4    4    0    0 -0.16474027007E+02  0.27574363981E+02 -0.31940366419E+02  0.45298191153E+02  0.00000000000E+00 0.  1.
</event>
<event>
12    1  0.8196217E-002  0.1735187E+03  0.7818608E-02  0.1175522E+00
         21   -1    0    0  503  502  0.00000000000E+00  0.00000000000E+00  0.16631449001E+04  0.16631449001E+04  0.00000000000E+00 0.  1.
         21   -1    0    0  501  503 -0.00000000000E+00 -0.00000000000E+00 -0.10779426499E+03  0.10779426499E+03  0.00000000000E+00 0.  1.
          6    2    1    2  501    0 -0.15358827053E+02  0.14800657959E+02 -0.34211238433E+02  0.17193457655E+03  0.16714106836E+03 0.  0.
         24    2    3    3    0    0  0.16107049137E+02 -0.50419318984E+02 -0.15290200410E+02  0.96942294031E+02  0.79765113832E+02 0.  0.
         -6    2    1    2    0  502  0.15358827053E+02 -0.14800657959E+02  0.15895618735E+04  0.15990045885E+04  0.17220270412E+03 0.  0.
        -24    2    5    5    0    0  0.57034222786E+02 -0.49598771921E+02  0.79095213498E+03  0.79853762990E+03  0.79650020682E+02 0.  0.
          5    1    3    3  501    0 -0.31465876190E+02  0.65219976944E+02 -0.18921038023E+02  0.74992282515E+02  0.47000000000E+01 0. -1.
        -11    1    4    4    0    0  0.30303537648E+02 -0.11060365639E+02 -0.37586327058E+02  0.49531485580E+02  0.00000000000E+00 0.  1.
         12    1    4    4    0    0 -0.14196488511E+02 -0.39358953345E+02  0.22296126648E+02  0.47410808451E+02  0.00000000000E+00 0. -1.
         -5    1    5    5    0  502 -0.41675395733E+02  0.34798113962E+02  0.79860973855E+03  0.80046695863E+03  0.47000000000E+01 0.  1.
         11    1    6    6    0    0  0.66485538024E+00 -0.51983103217E+02  0.31626804069E+03  0.32051233769E+03  0.00000000000E+00 0. -1.
        -12    1    6    6    0    0  0.56369367406E+02  0.23843312957E+01  0.47468409429E+03  0.47802529220E+03  0.00000000000E+00 0.  1.
</event>
<event>
12    1  0.8196217E-002  0.1756725E+03  0.7818608E-02  0.1172843E+00
         21   -1    0    0  503  502  0.00000000000E+00  0.00000000000E+00  0.13502181215E+03  0.13502181215E+03  0.00000000000E+00 0. -1.
         21   -1    0    0  501  503 -0.00000000000E+00 -0.00000000000E+00 -0.47122173230E+03  0.47122173230E+03  0.00000000000E+00 0. -1.
          6    2    1    2  501    0 -0.10934759718E+01  0.11012711442E+02 -0.38670146216E+03  0.42345613122E+03  0.17220510659E+03 0.  0.
         24    2    3    3    0    0  0.41057745405E+02  0.28510019081E+02 -0.35322667180E+03  0.36666235667E+03  0.84697358197E+02 0.  0.
         -6    2    1    2    0  502  0.10934759718E+01 -0.11012711442E+02  0.50501542005E+02  0.18278741323E+03  0.17532357853E+03 0.  0.
        -24    2    5    5    0    0  0.33599401015E+00  0.32613813756E+02  0.89730625619E+02  0.12392436471E+03  0.79005628000E+02 0.  0.
          5    1    3    3  501    0 -0.42151221377E+02 -0.17497307638E+02 -0.33474790357E+02  0.56793774550E+02  0.47000000000E+01 0. -1.
        -11    1    4    4    0    0 -0.73284537552E+01 -0.23910724650E+02 -0.62655356158E+02  0.67462008887E+02  0.00000000000E+00 0.  1.
         12    1    4    4    0    0  0.48386199160E+02  0.52420743731E+02 -0.29057131564E+03  0.29920034779E+03  0.00000000000E+00 0. -1.
         -5    1    5    5    0  502  0.75748196163E+00 -0.43626525198E+02 -0.39229083615E+02  0.58863048520E+02  0.47000000000E+01 0.  1.
         13    1    6    6    0    0 -0.27605509496E+02 -0.11687737249E+02  0.17532301732E+02  0.34728215626E+02  0.00000000000E+00 0. -1.
        -14    1    6    6    0    0  0.27941503506E+02  0.44301551005E+02  0.72198323887E+02  0.89196149086E+02  0.00000000000E+00 0.  1.
</event>
<event>
12    1  0.8196217E-002  0.2362489E+03  0.7818608E-02  0.1122365E+00
         21   -1    0    0  501  502  0.00000000000E+00  0.00000000000E+00  0.10389620668E+04  0.10389620668E+04  0.00000000000E+00 0.  1.
         21   -1    0    0  502  503 -0.00000000000E+00 -0.00000000000E+00 -0.94543298126E+02  0.94543298126E+02  0.00000000000E+00 0. -1.
         -6    2    1    2    0  503  0.89129083789E+01  0.16081564033E+03  0.99661430818E+02  0.25640969107E+03  0.17283639307E+03 0.  0.
        -24    2    3    3    0    0  0.46835062146E+02  0.84274667148E+02  0.67011020767E+00  0.12557398540E+03  0.80452682936E+02 0.  0.
          6    2    1    2  501    0 -0.89129083789E+01 -0.16081564033E+03  0.84475733790E+03  0.87709567390E+03  0.17245506990E+03 0.  0.
         24    2    5    5    0    0 -0.19508899780E+02 -0.14505010453E+03  0.84044484872E+03  0.85705784179E+03  0.82343612004E+02 0.  0.
          5    1    5    5  501    0  0.10595991401E+02 -0.15765535802E+02  0.43124891782E+01  0.20037832113E+02  0.47000000000E+01 0. -1.
        -11    1    6    6    0    0  0.30371624966E+02 -0.76470032571E+02  0.37093431055E+03  0.37995047602E+03  0.00000000000E+00 0.  1.
         12    1    6    6    0    0 -0.49880524746E+02 -0.68580071957E+02  0.46951053817E+03  0.47710736577E+03  0.00000000000E+00 0. -1.
         -5    1    3    3    0  503 -0.37922153767E+02  0.76540973182E+02  0.98991320610E+02  0.13083570567E+03  0.47000000000E+01 0.  1.
         11    1    4    4    0    0 -0.22058337916E+02  0.22075871119E+02 -0.83903854999E+01  0.32315830890E+02  0.00000000000E+00 0. -1.
        -12    1    4    4    0    0  0.68893400062E+02  0.62198796029E+02  0.90604957076E+01  0.93258154507E+02  0.00000000000E+00 0.  1.
</event>
<event>
12    1  0.8196217E-002  0.2787491E+03  0.7818608E-02  0.1096545E+00
         21   -1    0    0  503  502  0.00000000000E+00  0.00000000000E+00  0.66175385913E+03  0.66175385913E+03  0.00000000000E+00 0.  1.
         21   -1    0    0  501  503 -0.00000000000E+00 -0.00000000000E+00 -0.11806350662E+03  0.11806350662E+03  0.00000000000E+00 0. -1.
          6    2    1    2  501    0 -0.79252599390E+02  0.20295394586E+03  0.23362592289E+03  0.36370613034E+03  0.17386718710E+03 0.  0.
         24    2    3    3    0    0 -0.30252318989E+02  0.18936801912E+02  0.86282369032E+02  0.12288347856E+03  0.79886775044E+02 0.  0.
         -6    2    1    2    0  502  0.79252599390E+02 -0.20295394586E+03  0.31006442962E+03  0.41611123541E+03  0.17186428094E+03 0.  0.
        -24    2    5    5    0    0  0.55996051795E+02 -0.16683657035E+03  0.13562374607E+03  0.23639764689E+03  0.80746813766E+02 0.  0.
          5    1    3    3  501    0 -0.49000280401E+02  0.18401714394E+03  0.14734355386E+03  0.24082265178E+03  0.47000000000E+01 0. -1.
        -13    1    4    4    0    0  0.44042767738E+01 -0.78084016030E+01  0.77772487348E+02  0.78287473952E+02  0.00000000000E+00 0.  1.
         14    1    4    4    0    0 -0.34656595763E+02  0.26745203515E+02  0.85098816840E+01  0.44596004611E+02  0.00000000000E+00 0. -1.
         -5    1    5    5    0  502  0.23256547596E+02 -0.36117375508E+02  0.17444068355E+03  0.17971358852E+03  0.47000000000E+01 0.  1.
         11    1    6    6    0    0  0.31235357896E+02 -0.92826760934E+01  0.12449106593E+02  0.34882601871E+02  0.00000000000E+00 0. -1.
        -12    1    6    6    0    0  0.24760693899E+02 -0.15755389426E+03  0.12317463948E+03  0.20151504502E+03  0.00000000000E+00 0.  1.
</event>
<event>
12    1  0.8196217E-002  0.2649067E+03  0.7818608E-02  0.1104382E+00
         21   -1    0    0  503  502  0.00000000000E+00  0.00000000000E+00  0.61967759183E+02  0.61967759183E+02  0.00000000000E+00 0.  1.
         21   -1    0    0  501  503 -0.00000000000E+00 -0.00000000000E+00 -0.12931070760E+04  0.12931070760E+04  0.00000000000E+00 0.  1.
          6    2    1    2  501    0 -0.14793425690E+03  0.13508356247E+03 -0.85659504413E+03  0.89631675089E+03  0.17174555332E+03 0.  0.
         24    2    3    3    0    0 -0.10825607160E+03  0.21104771541E+02 -0.32921616563E+03  0.35528431687E+03  0.75358302018E+02 0.  0.
         -6    2    1    2    0  502  0.14793425690E+03 -0.13508356247E+03 -0.37454427265E+03  0.45875808425E+03  0.17333047764E+03 0.  0.
        -24    2    5    5    0    0  0.10345375004E+03 -0.47907103297E+02 -0.31517734477E+03  0.34419468412E+03  0.78329132338E+02 0.  0.
          5    1    3    3  501    0 -0.39678185296E+02  0.11397879093E+03 -0.52737887850E+03  0.54103243402E+03  0.47000000000E+01 0. -1.
        -13    1    4    4    0    0 -0.76817855438E+02  0.48491687735E+02 -0.24530265126E+03  0.26158328962E+03  0.00000000000E+00 0.  1.
         14    1    4    4    0    0 -0.31438216167E+02 -0.27386916194E+02 -0.83913514368E+02  0.93701027251E+02  0.00000000000E+00 0. -1.
         -5    1    5    5    0  502  0.44480506856E+02 -0.87176459176E+02 -0.59366927871E+02  0.11456340013E+03  0.47000000000E+01 0.  1.
         11    1    6    6    0    0 -0.57257380644E+01 -0.31590592017E+01  0.10934860205E+01  0.66301917844E+01  0.00000000000E+00 0. -1.
        -12    1    6    6    0    0  0.10917948811E+03 -0.44748044095E+02 -0.31627083080E+03  0.33756449234E+03  0.00000000000E+00 0.  1.
</event>
<event>
12    1  0.8196217E-002  0.1868181E+03  0.7818608E-02  0.1161521E+00
         21   -1    0    0  501  502  0.00000000000E+00  0.00000000000E+00  0.27482721111E+03  0.27482721111E+03  0.00000000000E+00 0. -1.
         21   -1    0    0  502  503 -0.00000000000E+00 -0.00000000000E+00 -0.12661088230E+03  0.12661088230E+03  0.00000000000E+00 0. -1.
         -6    2    1    2    0  503  0.64911988134E+02  0.32241404755E+02  0.79146836297E+02  0.20226075683E+03  0.17144129512E+03 0.  0.
        -24    2    3    3    0    0  0.10857473828E+03  0.13741286254E+02  0.73490927848E+02  0.15427357692E+03  0.80138151474E+02 0.  0.
          6    2    1    2  501    0 -0.64911988134E+02 -0.32241404755E+02  0.69069492509E+02  0.19917733658E+03  0.17218577824E+03 0.  0.
         24    2    5    5    0    0 -0.85570884626E+02  0.91316751639E+00  0.29398776781E+01  0.12222779711E+03  0.87222596475E+02 0.  0.
          5    1    5    5  501    0  0.20658896492E+02 -0.33154572272E+02  0.66129614831E+02  0.76949539469E+02  0.47000000000E+01 0. -1.
        -13    1    6    6    0    0 -0.58615856529E+02 -0.39875674269E+02  0.13605466926E+02  0.72187234088E+02  0.00000000000E+00 0.  1.
         14    1    6    6    0    0 -0.26955028097E+02  0.40788841785E+02 -0.10665589247E+02  0.50040563025E+02  0.00000000000E+00 0. -1.
         -5    1    3    3    0  503 -0.43662750142E+02  0.18500118501E+02  0.56559084489E+01  0.47987179901E+02  0.47000000000E+01 0.  1.
         13    1    4    4    0    0  0.36362867373E+02  0.14143238402E+02 -0.13435556333E+02  0.41265039562E+02  0.00000000000E+00 0. -1.
        -14    1    4    4    0    0  0.72211870903E+02 -0.40195214728E+00  0.86926484181E+02  0.11300853736E+03  0.00000000000E+00 0.  1.
</event>
<event>
12    1  0.8196217E-002  0.2555175E+03  0.7818608E-02  0.1109890E+00
         21   -1    0    0  503  502  0.00000000000E+00  0.00000000000E+00  0.70410063482E+02  0.70410063482E+02  0.00000000000E+00 0.  1.
         21   -1    0    0  501  503 -0.00000000000E+00 -0.00000000000E+00 -0.25430215843E+04  0.25430215843E+04  0.00000000000E+00 0. -1.
          6    2    1    2  501    0 -0.98457493610E+02  0.16073586862E+03 -0.22781985700E+04  0.22924829127E+04  0.17250879121E+03 0.  0.
         24    2    3    3    0    0 -0.11756135135E+03  0.17376687433E+03 -0.21773287708E+04  0.21888896172E+04  0.80383965421E+02 0.  0.
         -6    2    1    2    0  502  0.98457493610E+02 -0.16073586862E+03 -0.19441295080E+03  0.32094873509E+03  0.17228406080E+03 0.  0.
        -24    2    5    5    0    0  0.82247497298E+02 -0.38358735564E+02 -0.14325827906E+03  0.18724078051E+03  0.79373370614E+02 0.  0.
          5    1    3    3  501    0  0.19103857738E+02 -0.13031005709E+02 -0.10086979920E+03  0.10359329554E+03  0.47000000000E+01 0. -1.
        -13    1    4    4    0    0 -0.23644774787E+02  0.83647436651E+02 -0.60952018263E+03  0.61568727620E+03  0.00000000000E+00 0.  1.
         14    1    4    4    0    0 -0.93916576561E+02  0.90119437680E+02 -0.15678085882E+04  0.15732023410E+04  0.00000000000E+00 0. -1.
         -5    1    5    5    0  502  0.16209996312E+02 -0.12237713306E+03 -0.51154671742E+02  0.13370795458E+03  0.47000000000E+01 0.  1.
         13    1    6    6    0    0  0.97189041179E+02 -0.25082071236E+02 -0.12336956005E+03  0.15904360524E+03  0.00000000000E+00 0. -1.
        -14    1    6    6    0    0 -0.14941543882E+02 -0.13276664327E+02 -0.19888719009E+02  0.28197175267E+02  0.00000000000E+00 0.  1.
</event>
<event>
12    1  0.8196217E-002  0.3345084E+03  0.7818608E-02  0.1069450E+00
         21   -1    0    0  503  502  0.00000000000E+00  0.00000000000E+00  0.70584776069E+02  0.70584776069E+02  0.00000000000E+00 0. -1.
         21   -1    0    0  501  503 -0.00000000000E+00 -0.00000000000E+00 -0.16052436258E+04  0.16052436258E+04  0.00000000000E+00 0. -1.
          6    2    1    2  501    0  0.26365019535E+03  0.10964613527E+03 -0.88971158372E+03  0.95051701339E+03  0.17424749652E+03 0.  0.
         24    2    3    3    0    0  0.36859535585E+02  0.22517437478E+02 -0.27521640056E+03  0.28972065030E+03  0.79550787055E+02 0.  0.
         -6    2    1    2    0  502 -0.26365019535E+03 -0.10964613527E+03 -0.64494726602E+03  0.72531138849E+03  0.16907375266E+03 0.  0.
        -24    2    5    5    0    0 -0.59495690179E+02 -0.68995666377E+02 -0.26366901484E+03  0.29088450463E+03  0.82415450704E+02 0.  0.
          5    1    3    3  501    0  0.22679065977E+03  0.87128697790E+02 -0.61449518316E+03  0.66079636309E+03  0.47000000000E+01 0. -1.
        -13    1    4    4    0    0  0.42736893617E+02 -0.18764123899E+02 -0.17631736665E+03  0.18239064725E+03  0.00000000000E+00 0.  1.
         14    1    4    4    0    0 -0.58773580319E+01  0.41281561377E+02 -0.98899033902E+02  0.10733000305E+03  0.00000000000E+00 0. -1.
         -5    1    5    5    0  502 -0.20415450518E+03 -0.40650468891E+02 -0.38127825118E+03  0.43442688387E+03  0.47000000000E+01 0.  1.
         11    1    6    6    0    0 -0.49199169755E+02 -0.60061760364E+02 -0.99772340293E+02  0.12642188596E+03  0.00000000000E+00 0. -1.
        -12    1    6    6    0    0 -0.10296520424E+02 -0.89339060128E+01 -0.16389667455E+03  0.16446261866E+03  0.00000000000E+00 0.  1.
</event>
<event>
12    1  0.8196217E-002  0.1956957E+03  0.7818608E-02  0.1154537E+00
         21   -1    0    0  501  502  0.00000000000E+00  0.00000000000E+00  0.11115177365E+03  0.11115177365E+03  0.00000000000E+00 0.  1.
         21   -1    0    0  502  503 -0.00000000000E+00 -0.00000000000E+00 -0.56435091533E+03  0.56435091533E+03  0.00000000000E+00 0. -1.
         -6    2    1    2    0  503  0.71231104001E+02  0.60806554863E+02 -0.44334722441E+03  0.48461692257E+03  0.17182983721E+03 0.  0.
        -24    2    3    3    0    0  0.86023596328E+02  0.95457637466E+02 -0.39551764763E+03  0.42354914244E+03  0.80295994915E+02 0.  0.
          6    2    1    2  501    0 -0.71231104001E+02 -0.60806554863E+02 -0.98519172770E+01  0.19088576641E+03  0.16603917686E+03 0.  0.
         24    2    5    5    0    0 -0.61047834823E+02 -0.91701900913E+02  0.29765175904E+02  0.13940931111E+03  0.80080669075E+02 0.  0.
          5    1    5    5  501    0 -0.10183269178E+02  0.30895346050E+02 -0.39617093181E+02  0.51476455306E+02  0.47000000000E+01 0. -1.
        -13    1    6    6    0    0 -0.58264107263E+02 -0.53867502734E+02  0.52534158077E+02  0.95164341067E+02  0.00000000000E+00 0.  1.
         14    1    6    6    0    0 -0.27837275602E+01 -0.37834398179E+02 -0.22768982173E+02  0.44244970041E+02  0.00000000000E+00 0. -1.
         -5    1    3    3    0  503 -0.14792492327E+02 -0.34651082603E+02 -0.47829576775E+02  0.61067780124E+02  0.47000000000E+01 0.  1.
         11    1    4    4    0    0  0.19266251058E+02  0.74910194224E+02 -0.15707340247E+03  0.17508506330E+03  0.00000000000E+00 0. -1.
        -12    1    4    4    0    0  0.66757345270E+02  0.20547443242E+02 -0.23844424517E+03  0.24846407914E+03  0.00000000000E+00 0.  1.
</event>
<event>
12    1  0.8196217E-002  0.1911885E+03  0.7818608E-02  0.1157400E+00
         21   -1    0    0  503  502  0.00000000000E+00  0.00000000000E+00  0.20802593330E+03  0.20802593330E+03  0.00000000000E+00 0. -1.
         21   -1    0    0  501  503 -0.00000000000E+00 -0.00000000000E+00 -0.25092471057E+03  0.25092471057E+03  0.00000000000E+00 0. -1.
          6    2    1    2  501    0 -0.76980849626E+02 -0.33650843203E+02 -0.14710521587E+03  0.24123226539E+03  0.17174000952E+03 0.  0.
         24    2    3    3    0    0 -0.38707556909E+01 -0.62557367572E+02 -0.51629092629E+02  0.11746452688E+03  0.84876056002E+02 0.  0.
         -6    2    1    2    0  502  0.76980849626E+02  0.33650843203E+02  0.10420643860E+03  0.21771837848E+03  0.17170870691E+03 0.  0.
        -24    2    5    5    0    0  0.11657652153E+03  0.22880465574E+02  0.10289522631E+03  0.17639492817E+03  0.80088338792E+02 0.  0.
          5    1    3    3  501    0 -0.73110093935E+02  0.28906524369E+02 -0.95476123241E+02  0.12376773851E+03  0.47000000000E+01 0. -1.
        -13    1    4    4    0    0  0.43348836246E+01  0.56525546897E+01  0.18176174453E+02  0.19522190152E+02  0.00000000000E+00 0.  1.
         14    1    4    4    0    0 -0.82056393156E+01 -0.68209922261E+02 -0.69805267083E+02  0.97942336729E+02  0.00000000000E+00 0. -1.
         -5    1    5    5    0  502 -0.39595671907E+02  0.10770377629E+02  0.13112122887E+01  0.41323450312E+02  0.47000000000E+01 0.  1.
         11    1    6    6    0    0  0.61766562938E+02 -0.98070254537E+01  0.92617765025E+02  0.11175569983E+03  0.00000000000E+00 0. -1.
        -12    1    6    6    0    0  0.54809958594E+02  0.32687491027E+02  0.10277461283E+02  0.64639228347E+02  0.00000000000E+00 0.  1.
</event>
<event>
12    1  0.8196217E-002  0.2036142E+03  0.7818608E-02  0.1147138E+00
         21   -1    0    0  501  502  0.00000000000E+00  0.00000000000E+00  0.25743006290E+04  0.25743006290E+04  0.00000000000E+00 0. -1.
         21   -1    0    0  502  503 -0.00000000000E+00 -0.00000000000E+00 -0.16697455180E+02  0.16697455180E+02  0.00000000000E+00 0. -1.
         -6    2    1    2    0  503 -0.53079070471E+02  0.91381457490E+02  0.15593755338E+04  0.15726127310E+04  0.17404248852E+03 0.  0.
        -24    2    3    3    0    0  0.34210111211E+02  0.47958625960E+02  0.97428827948E+03  0.97943979778E+03  0.81205322736E+02 0.  0.
          6    2    1    2  501    0  0.53079070471E+02 -0.91381457490E+02  0.99822763995E+03  0.10183853531E+04  0.17170424504E+03 0.  0.
         24    2    5    5    0    0  0.16730385225E+02 -0.12325029084E+03  0.84069822836E+03  0.85353859101E+03  0.79272158991E+02 0.  0.
          5    1    5    5  501    0  0.36348685246E+02  0.31868833351E+02  0.15752941159E+03  0.16484676210E+03  0.47000000000E+01 0. -1.
        -11    1    6    6    0    0 -0.12830139132E+02 -0.91608332942E+02  0.70643148509E+03  0.71246202865E+03  0.00000000000E+00 0.  1.
         12    1    6    6    0    0  0.29560524357E+02 -0.31641957898E+02  0.13426674327E+03  0.14107656236E+03  0.00000000000E+00 0. -1.
         -5    1    3    3    0  503 -0.87289181682E+02  0.43422831530E+02  0.58508725435E+03  0.59317293325E+03  0.47000000000E+01 0.  1.
         13    1    4    4    0    0  0.17078019526E+02 -0.22107240053E+02  0.30456869287E+03  0.30584714726E+03  0.00000000000E+00 0. -1.
        -14    1    4    4    0    0  0.17132091684E+02  0.70065866013E+02  0.66971958661E+03  0.67359265052E+03  0.00000000000E+00 0.  1.
</event>
<event>
12    1  0.8196217E-002  0.3781092E+03  0.7818608E-02  0.1051700E+00
         21   -1    0    0  503  502  0.00000000000E+00  0.00000000000E+00  0.26671070960E+04  0.26671070960E+04  0.00000000000E+00 0.  1.
         21   -1    0    0  501  503 -0.00000000000E+00 -0.00000000000E+00 -0.60152420542E+02  0.60152420542E+02  0.00000000000E+00 0.  1.
          6    2    1    2  501    0 -0.30138293671E+03  0.14779286436E+03  0.85121154090E+03  0.93141163627E+03  0.17404638324E+03 0.  0.
         24    2    3    3    0    0 -0.20176053310E+03  0.64786428834E+02  0.37532952766E+03  0.43815665944E+03  0.78768076029E+02 0.  0.
         -6    2    1    2    0  502  0.30138293671E+03 -0.14779286436E+03  0.17557431345E+04  0.17958478802E+04  0.17251448994E+03 0.  0.
        -24    2    5    5    0    0  0.22632392073E+03 -0.14596337924E+03  0.15777894256E+04  0.16026463911E+04  0.80797018041E+02 0.  0.
          5    1    3    3  501    0 -0.99622403613E+02  0.83006435528E+02  0.47588201324E+03  0.49325497683E+03  0.47000000000E+01 0. -1.
        -13    1    4    4    0    0 -0.20005023995E+03  0.75439212091E+02  0.34406230848E+03  0.40508029493E+03  0.00000000000E+00 0.  1.
         14    1    4    4    0    0 -0.17102931439E+01 -0.10652783257E+02  0.31267219181E+02  0.33076364508E+02  0.00000000000E+00 0. -1.
         -5    1    5    5    0  502  0.75059015975E+02 -0.18294851264E+01  0.17795370892E+03  0.19320148916E+03  0.47000000000E+01 0.  1.
         13    1    6    6    0    0  0.10840116860E+03 -0.11741636724E+03  0.88417987596E+03  0.89850513059E+03  0.00000000000E+00 0. -1.
        -14    1    6    6    0    0  0.11792275214E+03 -0.28547012000E+02  0.69360954965E+03  0.70414126049E+03  0.00000000000E+00 0.  1.
</event>
<event>
12    1  0.8196217E-002  0.2233775E+03  0.7818608E-02  0.1132749E+00
         21   -1    0    0  501  502  0.00000000000E+00  0.00000000000E+00  0.19725428256E+04  0.19725428256E+04  0.00000000000E+00 0. -1.
         21   -1    0    0  502  503 -0.00000000000E+00 -0.00000000000E+00 -0.35757486775E+02  0.35757486775E+02  0.00000000000E+00 0. -1.
         -6    2    1    2    0  503  0.11410179744E+03  0.75949613906E+02  0.41542442028E+03  0.47167250625E+03  0.17638010136E+03 0.  0.
        -24    2    3    3    0    0  0.65774955883E+02 -0.22912136778E+02  0.13019362892E+03  0.16591472025E+03  0.75670354497E+02 0.  0.
          6    2    1    2  501    0 -0.11410179744E+03 -0.75949613906E+02  0.15213609185E+04  0.15366278061E+04  0.16702815943E+03 0.  0.
         24    2    5    5    0    0 -0.99335200932E+02 -0.14775747745E+02  0.56764368336E+03  0.58082502889E+03  0.71081348212E+02 0.  0.
          5    1    5    5  501    0 -0.14766596505E+02 -0.61173866161E+02  0.95371723515E+03  0.95580277719E+03  0.47000000000E+01 0. -1.
        -11    1    6    6    0    0  0.39272231273E+01  0.14123604284E+02  0.46197186557E+02  0.48467301609E+02  0.00000000000E+00 0.  1.
         12    1    6    6    0    0 -0.10326242406E+03 -0.28899352029E+02  0.52144649680E+03  0.53235772728E+03  0.00000000000E+00 0. -1.
         -5    1    3    3    0  503  0.48326841555E+02  0.98861750684E+02  0.28523079136E+03  0.30575778600E+03  0.47000000000E+01 0.  1.
         11    1    4    4    0    0  0.39488357639E+02  0.12939253574E+02  0.18095562741E+02  0.45323328022E+02  0.00000000000E+00 0. -1.
        -12    1    4    4    0    0  0.26286598244E+02 -0.35851390352E+02  0.11209806618E+03  0.12059139222E+03  0.00000000000E+00 0.  1.
</event>
<event>
12    1  0.8196217E-002  0.2112857E+03  0.7818608E-02  0.1140657E+00
         21   -1    0    0  503  502  0.00000000000E+00  0.00000000000E+00  0.68585052526E+03  0.68585052526E+03  0.00000000000E+00 0. -1.
         21   -1    0    0  501  503 -0.00000000000E+00 -0.00000000000E+00 -0.88246907963E+02  0.88246907963E+02  0.00000000000E+00 0.  1.
          6    2    1    2  501    0 -0.79422634008E+02  0.91173473568E+02  0.10010524299E+03  0.23380056547E+03  0.17326594491E+03 0.  0.
         24    2    3    3    0    0 -0.10917225019E+02  0.11097129043E+03  0.78143371491E+02  0.15903855364E+03  0.82177015856E+02 0.  0.
         -6    2    1    2    0  502  0.79422634008E+02 -0.91173473568E+02  0.49749837431E+03  0.54029686775E+03  0.17261377635E+03 0.  0.
        -24    2    5    5    0    0  0.45623759007E+01 -0.37807203354E+02  0.38091688118E+03  0.39175276124E+03  0.83200695113E+02 0.  0.
          5    1    3    3  501    0 -0.68505408990E+02 -0.19797816862E+02  0.21961871501E+02  0.74762011832E+02  0.47000000000E+01 0. -1.
        -11    1    4    4    0    0 -0.42735295910E+02  0.32104303564E+02  0.28769601088E+02  0.60701579638E+02  0.00000000000E+00 0.  1.
         12    1    4    4    0    0  0.31818070891E+02  0.78866986866E+02  0.49373770403E+02  0.98336974005E+02  0.00000000000E+00 0. -1.
         -5    1    5    5    0  502  0.74860258108E+02 -0.53366270213E+02  0.11658149312E+03  0.14854410651E+03  0.47000000000E+01 0.  1.
         11    1    6    6    0    0  0.47379305599E+01 -0.44372702214E+02  0.87133959467E+02  0.97896432929E+02  0.00000000000E+00 0. -1.
        -12    1    6    6    0    0 -0.17555465912E+00  0.65654988600E+01  0.29378292172E+03  0.29385632831E+03  0.00000000000E+00 0.  1.
</event>
<event>
12    1  0.8196217E-002  0.2365588E+03  0.7818608E-02  0.1122408E+00
         21   -1    0    0  503  502  0.00000000000E+00  0.00000000000E+00  0.24963383101E+03  0.24963383101E+03  0.00000000000E+00 0. -1.
         21   -1    0    0  501  503 -0.00000000000E+00 -0.00000000000E+00 -0.23576831801E+03  0.23576831801E+03  0.00000000000E+00 0. -1.
          6    2    1    2  501    0  0.13451163537E+03  0.90668954696E+02 -0.50630134993E+02  0.24191621376E+03  0.17217957055E+03 0.  0.
         24    2    3    3    0    0  0.71592833422E+02 -0.15890118207E+02 -0.48330933323E+02  0.11805747170E+03  0.78890163225E+02 0.  0.
         -6    2    1    2    0  502 -0.13451163537E+03 -0.90668954696E+02  0.64495647996E+02  0.24348593526E+03  0.16973942578E+03 0.  0.
        -24    2    5    5    0    0 -0.78679733543E+01 -0.41003904726E+02  0.30712396859E+02  0.10324103384E+03  0.89287370554E+02 0.  0.
          5    1    3    3  501    0  0.62918801944E+02  0.10655907290E+03 -0.22992016702E+01  0.12385874206E+03  0.47000000000E+01 0. -1.
        -13    1    4    4    0    0  0.10417208323E+02 -0.11922960718E+02 -0.54207466094E+02  0.56472334836E+02  0.00000000000E+00 0.  1.
         14    1    4    4    0    0  0.61175625099E+02 -0.39671574894E+01  0.58765327709E+01  0.61585136861E+02  0.00000000000E+00 0. -1.
         -5    1    5    5    0  502 -0.12664366201E+03 -0.49665049971E+02  0.33783251137E+02  0.14024490142E+03  0.47000000000E+01 0.  1.
         11    1    6    6    0    0 -0.32080050575E+02 -0.56882977274E+02  0.34800618609E+02  0.73999228402E+02  0.00000000000E+00 0. -1.
        -12    1    6    6    0    0  0.24212077221E+02  0.15879072548E+02 -0.40882217503E+01  0.29241805441E+02  0.00000000000E+00 0.  1.
</event>
<event>
12    1  0.8196217E-002  0.1905517E+03  0.7818608E-02  0.1158567E+00
         21   -1    0    0  503  502  0.00000000000E+00  0.00000000000E+00  0.28045206609E+03  0.28045206609E+03  0.00000000000E+00 0.  1.
         21   -1    0    0  501  503 -0.00000000000E+00 -0.00000000000E+00 -0.13923680468E+03  0.13923680468E+03  0.00000000000E+00 0. -1.
          6    2    1    2  501    0 -0.57551705072E+02 -0.56458421895E+02  0.10573931937E+02  0.19084486146E+03  0.17265630874E+03 0.  0.
         24    2    3    3    0    0  0.91670726606E+01  0.86771728941E+00 -0.38597647696E+02  0.89960691345E+02  0.80736357518E+02 0.  0.
         -6    2    1    2    0  502  0.57551705072E+02  0.56458421895E+02  0.13064132947E+03  0.22884400930E+03  0.16971349819E+03 0.  0.
        -24    2    5    5    0    0  0.95997619251E+02  0.57970156137E+02  0.66000672669E+02  0.15347240875E+03  0.81373272957E+02 0.  0.
          5    1    3    3  501    0 -0.66718777733E+02 -0.57326139184E+02  0.49171579633E+02  0.10088417011E+03  0.47000000000E+01 0. -1.
        -11    1    4    4    0    0 -0.75729401403E+01 -0.52300970308E+01  0.23563352812E+02  0.25296935251E+02  0.00000000000E+00 0.  1.
         12    1    4    4    0    0  0.16740012801E+02  0.60978143202E+01 -0.62161000508E+02  0.64663756095E+02  0.00000000000E+00 0. -1.
         -5    1    5    5    0  502 -0.38445914178E+02 -0.15117342421E+01  0.64640656805E+02  0.75371600550E+02  0.47000000000E+01 0.  1.
         13    1    6    6    0    0  0.96838039728E+01 -0.17808284028E+02  0.23422253567E+02  0.30976006869E+02  0.00000000000E+00 0. -1.
        -14    1    6    6    0    0  0.86313815278E+02  0.75778440165E+02  0.42578419101E+02  0.12249640188E+03  0.00000000000E+00 0.  1.
</event>
<event>
12    1  0.8196217E-002  0.1758168E+03  0.7818608E-02  0.1172531E+00
         21   -1    0    0  501  502  0.00000000000E+00  0.00000000000E+00  0.35451048433E+03  0.35451048433E+03  0.00000000000E+00 0.  1.
         21   -1    0    0  502  503 -0.00000000000E+00 -0.00000000000E+00 -0.11392976538E+03  0.11392976538E+03  0.00000000000E+00 0.  1.
         -6    2    1    2    0  503  0.18398624095E+02  0.32917555176E+01  0.49245601650E+01  0.17588578735E+03  0.17482051903E+03 0.  0.
        -24    2    3    3    0    0  0.70790620964E+02 -0.27792416176E+02  0.23674976640E+02  0.11197322846E+03  0.78700501640E+02 0.  0.
          6    2    1    2  501    0 -0.18398624095E+02 -0.32917555176E+01  0.23565615879E+03  0.29255446236E+03  0.17235122062E+03 0.  0.
         24    2    5    5    0    0 -0.59473073318E+02  0.33084946572E+02  0.20238686107E+03  0.22821698491E+03  0.80566063134E+02 0.  0.
          5    1    5    5  501    0  0.41074449223E+02 -0.36376702090E+02  0.33269297717E+02  0.64337477449E+02  0.47000000000E+01 0. -1.
        -11    1    6    6    0    0  0.13021745945E+02  0.18041219748E+02  0.96374096398E+02  0.98909139790E+02  0.00000000000E+00 0.  1.
         12    1    6    6    0    0 -0.72494819262E+02  0.15043726825E+02  0.10601276467E+03  0.12930784512E+03  0.00000000000E+00 0. -1.
         -5    1    3    3    0  503 -0.52391996870E+02  0.31084171694E+02 -0.18750416475E+02  0.63912558890E+02  0.47000000000E+01 0.  1.
         11    1    4    4    0    0  0.15934834783E+02 -0.32631634044E+02 -0.20207669677E+02  0.41558301381E+02  0.00000000000E+00 0. -1.
        -12    1    4    4    0    0  0.54855786182E+02  0.48392178676E+01  0.43882646316E+02  0.70414927074E+02  0.00000000000E+00 0.  1.
</event>
<event>
12    1  0.8196217E-002  0.3116887E+03  0.7818608E-02  0.1079715E+00
         21   -1    0    0  503  502  0.00000000000E+00  0.00000000000E+00  0.12372327116E+03  0.12372327116E+03  0.00000000000E+00 0. -1.
         21   -1    0    0  501  503 -0.00000000000E+00 -0.00000000000E+00 -0.86028626420E+03  0.86028626420E+03  0.00000000000E+00 0.  1.
          6    2    1    2  501    0  0.10382920183E+03 -0.23825999351E+03 -0.51795920546E+03  0.60450938182E+03  0.17205094164E+03 0.  0.
         24    2    3    3    0    0  0.63728319165E+02 -0.23289461003E+03 -0.37442330972E+03  0.45530646127E+03  0.93861391306E+02 0.  0.
         -6    2    1    2    0  502 -0.10382920183E+03  0.23825999351E+03 -0.21860378757E+03  0.37950015354E+03  0.16936476298E+03 0.  0.
        -24    2    5    5    0    0 -0.13984587789E+03  0.18739086956E+03 -0.17629276033E+03  0.30402047579E+03  0.81713553355E+02 0.  0.
          5    1    3    3  501    0  0.40100882662E+02 -0.53653834891E+01 -0.14353589575E+03  0.14920292054E+03  0.47000000000E+01 0.  1.
        -13    1    4    4    0    0  0.26063946414E+02 -0.38171663397E+01 -0.29692067308E+02  0.39692806937E+02  0.00000000000E+00 0.  1.
         14    1    4    4    0    0  0.37664372752E+02 -0.22907744369E+03 -0.34473124241E+03  0.41561365434E+03  0.00000000000E+00 0. -1.
         -5    1    5    5    0  502  0.36016676064E+02  0.50869123958E+02 -0.42311027241E+02  0.75479677749E+02  0.47000000000E+01 0.  1.
         11    1    6    6    0    0 -0.39031201519E+01  0.20692569369E+02  0.61822392409E+01  0.21946226465E+02  0.00000000000E+00 0. -1.
        -12    1    6    6    0    0 -0.13594275774E+03  0.16669830019E+03 -0.18247499957E+03  0.28207424933E+03  0.00000000000E+00 0.  1.
</event>
<event>
12    1  0.8196217E-002  0.1914827E+03  0.7818608E-02  0.1157241E+00
         21   -1    0    0  501  502  0.00000000000E+00  0.00000000000E+00  0.26038314114E+03  0.26038314114E+03  0.00000000000E+00 0. -1.
         21   -1    0    0  502  503 -0.00000000000E+00 -0.00000000000E+00 -0.21463805721E+03  0.21463805721E+03  0.00000000000E+00 0. -1.
         -6    2    1    2    0  503  0.62531149073E+02  0.59347564491E+02 -0.11674334784E+03  0.22426462158E+03  0.17097758102E+03 0.  0.
        -24    2    3    3    0    0  0.12960171409E+02  0.64205187008E+02 -0.13604156049E+03  0.17064196466E+03  0.79505357318E+02 0.  0.
          6    2    1    2  501    0 -0.62531149073E+02 -0.59347564491E+02  0.16248843177E+03  0.25075657678E+03  0.17042327400E+03 0.  0.
         24    2    5    5    0    0  0.22853565384E+02 -0.57140417928E+02  0.59346554889E+02  0.11675748079E+03  0.79517186389E+02 0.  0.
          5    1    5    5  501    0 -0.85384714457E+02 -0.22071465632E+01  0.10314187688E+03  0.13399909599E+03  0.47000000000E+01 0. -1.
        -11    1    6    6    0    0  0.32579950431E+02 -0.26308800167E+01  0.51267400935E+02  0.60800666924E+02  0.00000000000E+00 0.  1.
         12    1    6    6    0    0 -0.97263850470E+01 -0.54509537911E+02  0.80791539543E+01  0.55956813865E+02  0.00000000000E+00 0. -1.
         -5    1    3    3    0  503  0.49570977664E+02 -0.48576225169E+01  0.19298212649E+02  0.53622656915E+02  0.47000000000E+01 0.  1.
         13    1    4    4    0    0 -0.22324481967E+02  0.16904207885E+02 -0.94273005910E+02  0.98343959563E+02  0.00000000000E+00 0. -1.
        -14    1    4    4    0    0  0.35284653375E+02  0.47300979123E+02 -0.41768554578E+02  0.72298005099E+02  0.00000000000E+00 0.  1.
</event>
<event>
12    1  0.8196217E-002  0.2121842E+03  0.7818608E-02  0.1140040E+00
         21   -1    0    0  503  502  0.00000000000E+00  0.00000000000E+00  0.31385005791E+03  0.31385005791E+03  0.00000000000E+00 0.  1.
         21   -1    0    0  501  503 -0.00000000000E+00 -0.00000000000E+00 -0.33817537181E+03  0.33817537181E+03  0.00000000000E+00 0.  1.
          6    2    1    2  501    0  0.10290101042E+03  0.67982257474E+02 -0.25997986728E+03  0.33557661501E+03  0.17266130971E+03 0.  0.
         24    2    3    3    0    0  0.10313538346E+03  0.10888694108E+03 -0.19125325381E+03  0.25545991594E+03  0.78668216570E+02 0.  0.
         -6    2    1    2    0  502 -0.10290101042E+03 -0.67982257474E+02  0.23565455338E+03  0.31644881472E+03  0.17145430449E+03 0.  0.
        -24    2    5    5    0    0 -0.79143363186E+02  0.40876185709E+01  0.20647604843E+03  0.23501191898E+03  0.79484985546E+02 0.  0.
          5    1    3    3  501    0 -0.23437303808E+00 -0.40904683602E+02 -0.68726613465E+02  0.80116699068E+02  0.47000000000E+01 0. -1.
        -13    1    4    4    0    0  0.35779551486E+02  0.57400967368E+02 -0.14231097122E+03  0.15756731859E+03  0.00000000000E+00 0.  1.
         14    1    4    4    0    0  0.67355831972E+02  0.51485973708E+02 -0.48942282597E+02  0.97892597345E+02  0.00000000000E+00 0. -1.
         -5    1    5    5    0  502 -0.23757647233E+02 -0.72069876045E+02  0.29178504957E+02  0.81436895733E+02  0.47000000000E+01 0.  1.
         13    1    6    6    0    0  0.12239092884E+02  0.48635097755E+01  0.66873513008E+02  0.68158021274E+02  0.00000000000E+00 0. -1.
        -14    1    6    6    0    0 -0.91382456071E+02 -0.77589120465E+00  0.13960253542E+03  0.16685389771E+03  0.00000000000E+00 0.  1.
</event>
<event>
12    1  0.8196217E-002  0.2206276E+03  0.7818608E-02  0.1134001E+00
         21   -1    0    0  501  502  0.00000000000E+00  0.00000000000E+00  0.79880055297E+03  0.79880055297E+03  0.00000000000E+00 0. -1.
         21   -1    0    0  502  503 -0.00000000000E+00 -0.00000000000E+00 -0.71508598365E+02  0.71508598365E+02  0.00000000000E+00 0.  1.
         -6    2    1    2    0  503 -0.12405304434E+03  0.49790215982E+02  0.19184217497E+03  0.29236959014E+03  0.17552302904E+03 0.  0.
        -24    2    3    3    0    0 -0.65930062859E+02  0.76531816168E+02  0.18879551003E+03  0.22814524644E+03  0.78756693620E+02 0.  0.
          6    2    1    2  501    0  0.12405304434E+03 -0.49790215982E+02  0.53544977963E+03  0.57793956119E+03  0.17157927167E+03 0.  0.
         24    2    5    5    0    0  0.11435895983E+03 -0.46978684969E+02  0.23732503417E+03  0.27960697189E+03  0.81067369221E+02 0.  0.
          5    1    5    5  501    0  0.96940845098E+01 -0.28115310129E+01  0.29812474547E+03  0.29833258930E+03  0.47000000000E+01 0. -1.
        -11    1    6    6    0    0  0.54900672195E+02 -0.64433590796E+02  0.15444729861E+03  0.17612421604E+03  0.00000000000E+00 0.  1.
         12    1    6    6    0    0  0.59458287635E+02  0.17454905827E+02  0.82877735560E+02  0.10348275585E+03  0.00000000000E+00 0. -1.
         -5    1    3    3    0  503 -0.58122981481E+02 -0.26741600187E+02  0.30466649398E+01  0.64224343703E+02  0.47000000000E+01 0.  1.
         11    1    4    4    0    0  0.14055395693E+02 -0.23237060719E-01  0.41921652211E+02  0.44215151387E+02  0.00000000000E+00 0. -1.
        -12    1    4    4    0    0 -0.79985458552E+02  0.76555053229E+02  0.14687385782E+03  0.18393009505E+03  0.00000000000E+00 0.  1.
</event>
<event>
12    1  0.8196217E-002  0.2108859E+03  0.7818608E-02  0.1141090E+00
         21   -1    0    0  503  502  0.00000000000E+00  0.00000000000E+00  0.12832838612E+03  0.12832838612E+03  0.00000000000E+00 0.  1.
         21   -1    0    0  501  503 -0.00000000000E+00 -0.00000000000E+00 -0.37435338356E+03  0.37435338356E+03  0.00000000000E+00 0.  1.
          6    2    1    2  501    0 -0.26748285507E+02 -0.11697182100E+03 -0.19406210202E+03  0.28658850672E+03  0.17342143771E+03 0.  0.
         24    2    3    3    0    0  0.17085135563E+02 -0.13954534140E+03 -0.14857488596E+03  0.21934187519E+03  0.79193164542E+02 0.  0.
         -6    2    1    2    0  502  0.26748285507E+02  0.11697182100E+03 -0.51962895416E+02  0.21609326297E+03  0.17204150114E+03 0.  0.
        -24    2    5    5    0    0  0.50626666277E+02  0.11865471960E+02 -0.23193242225E+02  0.10443617801E+03  0.87550785432E+02 0.  0.
          5    1    3    3  501    0 -0.43833421070E+02  0.22573520408E+02 -0.45487216065E+02  0.67246631526E+02  0.47000000000E+01 0. -1.
        -13    1    4    4    0    0 -0.26887399472E+02 -0.67646374672E+02 -0.94180742910E+02  0.11903351037E+03  0.00000000000E+00 0.  1.
         14    1    4    4    0    0  0.43972535035E+02 -0.71898966732E+02 -0.54394143047E+02  0.10030836482E+03  0.00000000000E+00 0. -1.
         -5    1    5    5    0  502 -0.23878380771E+02  0.10510634904E+03 -0.28769653191E+02  0.11165708495E+03  0.47000000000E+01 0.  1.
         13    1    6    6    0    0  0.94304497422E+01 -0.36514733987E+02 -0.14017240556E+02  0.40233595580E+02  0.00000000000E+00 0. -1.
        -14    1    6    6    0    0  0.41196216535E+02  0.48380205948E+02 -0.91760016693E+01  0.64202582433E+02  0.00000000000E+00 0.  1.
</event>
<event>
12    1  0.8196217E-002  0.1874329E+03  0.7818608E-02  0.1161639E+00
         21   -1    0    0  503  502  0.00000000000E+00  0.00000000000E+00  0.22047636325E+02  0.22047636325E+02  0.00000000000E+00 0.  1.
         21   -1    0    0  501  503 -0.00000000000E+00 -0.00000000000E+00 -0.16615269513E+04  0.16615269513E+04  0.00000000000E+00 0.  1.
          6    2    1    2  501    0 -0.47763046492E+02  0.57135409743E+02 -0.10174835770E+04  0.10339517722E+04  0.16804069162E+03 0.  0.
         24    2    3    3    0    0 -0.12268382032E+02  0.83783890769E+02 -0.90763345209E+03  0.91538047425E+03  0.83382706470E+02 0.  0.
         -6    2    1    2    0  502  0.47763046492E+02 -0.57135409743E+02 -0.62199573798E+03  0.64962281547E+03  0.17200389720E+03 0.  0.
        -24    2    5    5    0    0  0.51309916174E+02  0.21150437542E+02 -0.26321146906E+03  0.28234976201E+03  0.85796632549E+02 0.  0.
          5    1    3    3  501    0 -0.35494664461E+02 -0.26648481026E+02 -0.10985012493E+03  0.11857129793E+03  0.47000000000E+01 0. -1.
        -11    1    4    4    0    0 -0.40967146392E+02  0.19491670393E+02 -0.46163177809E+03  0.46385572201E+03  0.00000000000E+00 0.  1.
         12    1    4    4    0    0  0.28698764361E+02  0.64292220376E+02 -0.44600167400E+03  0.45152475224E+03  0.00000000000E+00 0. -1.
         -5    1    5    5    0  502 -0.35468696820E+01 -0.78285847285E+02 -0.35878426892E+03  0.36727305345E+03  0.47000000000E+01 0.  1.
         13    1    6    6    0    0 -0.11675978182E+02  0.11114509090E+02 -0.16144849916E+03  0.16225128246E+03  0.00000000000E+00 0. -1.
        -14    1    6    6    0    0  0.62985894356E+02  0.10035928452E+02 -0.10176296990E+03  0.12009847956E+03  0.00000000000E+00 0.  1.
</event>
<event>
12    1  0.8196217E-002  0.3100144E+03  0.7818608E-02  0.1080448E+00
         21   -1    0    0  503  502  0.00000000000E+00  0.00000000000E+00  0.81714115448E+03  0.81714115448E+03  0.00000000000E+00 0. -1.
         21   -1    0    0  501  503 -0.00000000000E+00 -0.00000000000E+00 -0.15006599441E+03  0.15006599441E+03  0.00000000000E+00 0. -1.
          6    2    1    2  501    0 -0.87705106088E+02  0.24254600230E+03  0.10708272958E+03  0.32712868800E+03  0.17036935955E+03 0.  0.
         24    2    3    3    0    0 -0.17891895292E+02  0.11126438631E+03 -0.29209663374E+01  0.14211071532E+03  0.86527682203E+02 0.  0.
         -6    2    1    2    0  502  0.87705106088E+02 -0.24254600230E+03  0.55999243049E+03  0.64007846089E+03  0.17201210720E+03 0.  0.
        -24    2    5    5    0    0  0.38954167738E+02 -0.24311209979E+03  0.49474310193E+03  0.55849084336E+03  0.80748776857E+02 0.  0.
          5    1    3    3  501    0 -0.69813210796E+02  0.13128161599E+03  0.11000369592E+03  0.18501797268E+03  0.47000000000E+01 0. -1.
        -13    1    4    4    0    0 -0.24299809169E+02 -0.55271893360E+01  0.23045517222E+01  0.25026815743E+02  0.00000000000E+00 0.  1.
         14    1    4    4    0    0  0.64079138770E+01  0.11679157564E+03 -0.52255180596E+01  0.11708389958E+03  0.00000000000E+00 0. -1.
         -5    1    5    5    0  502  0.48750938349E+02  0.56609748644E+00  0.65249328558E+02  0.81587617526E+02  0.47000000000E+01 0.  1.
         11    1    6    6    0    0  0.29972714253E+02 -0.25173827280E+02  0.10181748062E+03  0.10908200832E+03  0.00000000000E+00 0. -1.
        -12    1    6    6    0    0  0.89814534854E+01 -0.21793827251E+03  0.39292562131E+03  0.44940883504E+03  0.00000000000E+00 0.  1.
</event>
<event>
12    1  0.8196217E-002  0.1788140E+03  0.7818608E-02  0.1169139E+00
         21   -1    0    0  501  502  0.00000000000E+00  0.00000000000E+00  0.64993831932E+02  0.64993831932E+02  0.00000000000E+00 0.  1.
         21   -1    0    0  502  503 -0.00000000000E+00 -0.00000000000E+00 -0.51752958777E+03  0.51752958777E+03  0.00000000000E+00 0. -1.
         -6    2    1    2    0  503  0.32087643518E+02 -0.36051112427E+02 -0.15942621034E+03  0.23956450048E+03  0.17217762275E+03 0.  0.
        -24    2    3    3    0    0  0.59241823666E+02 -0.78745160758E+02 -0.10389072612E+03  0.16428893161E+03  0.80543007522E+02 0.  0.
          6    2    1    2  501    0 -0.32087643518E+02  0.36051112427E+02 -0.29310954550E+03  0.34295891922E+03  0.17140103569E+03 0.  0.
         24    2    5    5    0    0 -0.24255928507E+02  0.11769427549E+02 -0.48178617800E+02  0.96657913690E+02  0.79339167964E+02 0.  0.
          5    1    5    5  501    0 -0.78317150108E+01  0.24281684878E+02 -0.24493092770E+03  0.24630100553E+03  0.47000000000E+01 0. -1.
        -11    1    6    6    0    0 -0.44087096802E+02 -0.17154135928E+02 -0.18786931163E+02  0.50900739350E+02  0.00000000000E+00 0.  1.
         12    1    6    6    0    0  0.19831168295E+02  0.28923563478E+02 -0.29391686637E+02  0.45757174340E+02  0.00000000000E+00 0. -1.
         -5    1    3    3    0  503 -0.27154180149E+02  0.42694048330E+02 -0.55535484214E+02  0.75275568874E+02  0.47000000000E+01 0.  1.
         13    1    4    4    0    0  0.25150700373E+02  0.12900962752E+02 -0.33356354191E+02  0.43722293331E+02  0.00000000000E+00 0. -1.
        -14    1    4    4    0    0  0.34091123293E+02 -0.91646123510E+02 -0.70534371932E+02  0.12056663828E+03  0.00000000000E+00 0.  1.
</event>
<event>
12    1  0.8196217E-002  0.1783553E+03  0.7818608E-02  0.1169498E+00
         21   -1    0    0  503  502  0.00000000000E+00  0.00000000000E+00  0.64503777231E+03  0.64503777231E+03  0.00000000000E+00 0. -1.
         21   -1    0    0  501  503 -0.00000000000E+00 -0.00000000000E+00 -0.49257676653E+02  0.49257676653E+02  0.00000000000E+00 0.  1.
          6    2    1    2  501    0 -0.38065658170E+02  0.61750449514E+02  0.28743486949E+03  0.33827419923E+03  0.16293715757E+03 0.  0.
         24    2    3    3    0    0 -0.10916115508E+02  0.29724150503E+02  0.28302532595E+03  0.29579696333E+03  0.79936360240E+02 0.  0.
         -6    2    1    2    0  502  0.38065658170E+02 -0.61750449514E+02  0.30834522617E+03  0.35602124974E+03  0.16251842793E+03 0.  0.
        -24    2    5    5    0    0  0.70064305361E+02 -0.75035694610E+02  0.22862686894E+03  0.26897231156E+03  0.97654988764E+02 0.  0.
          5    1    3    3  501    0 -0.27149542662E+02  0.32026299011E+02  0.44095435422E+01  0.42477235896E+02  0.47000000000E+01 0. -1.
        -11    1    4    4    0    0  0.25802023200E+02  0.34229978092E+00  0.35752122473E+02  0.44091675310E+02  0.00000000000E+00 0.  1.
         12    1    4    4    0    0 -0.36718138708E+02  0.29381850722E+02  0.24727320347E+03  0.25170528802E+03  0.00000000000E+00 0. -1.
         -5    1    5    5    0  502 -0.31998647192E+02  0.13285245096E+02  0.79718357227E+02  0.87048938180E+02  0.47000000000E+01 0.  1.
         13    1    6    6    0    0  0.51823773771E+02 -0.10320263866E+02  0.17549104395E+03  0.18327388761E+03  0.00000000000E+00 0. -1.
        -14    1    6    6    0    0  0.18240531591E+02 -0.64715430744E+02  0.53135824997E+02  0.85698423948E+02  0.00000000000E+00 0.  1.
</event>
<event>
12    1  0.8196217E-002  0.1879617E+03  0.7818608E-02  0.1160613E+00
         21   -1    0    0  501  502  0.00000000000E+00  0.00000000000E+00  0.32023045992E+03  0.32023045992E+03  0.00000000000E+00 0.  1.
         21   -1    0    0  502  503 -0.00000000000E+00 -0.00000000000E+00 -0.36303332194E+03  0.36303332194E+03  0.00000000000E+00 0.  1.
         -6    2    1    2    0  503 -0.72086877728E+02  0.24215057033E+02 -0.30684326191E+03  0.35915434311E+03  0.17045869842E+03 0.  0.
        -24    2    3    3    0    0 -0.69297410460E+01  0.70475541863E+02 -0.14951741551E+03  0.18263523121E+03  0.77365023295E+02 0.  0.
          6    2    1    2  501    0  0.72086877728E+02 -0.24215057033E+02  0.26404039990E+03  0.32410943875E+03  0.17189156053E+03 0.  0.
         24    2    5    5    0    0  0.10980735903E+03 -0.45445772865E+02  0.18776926866E+03  0.23628601668E+03  0.80316928835E+02 0.  0.
          5    1    5    5  501    0 -0.37720481298E+02  0.21230715832E+02  0.76271131234E+02  0.87823422068E+02  0.47000000000E+01 0. -1.
        -13    1    6    6    0    0  0.67865362965E+02 -0.45607831499E+02  0.17380865317E+03  0.19208131013E+03  0.00000000000E+00 0.  1.
         14    1    6    6    0    0  0.41941996061E+02  0.16205863350E+00  0.13960615496E+02  0.44204706555E+02  0.00000000000E+00 0. -1.
         -5    1    3    3    0  503 -0.65157136682E+02 -0.46260484831E+02 -0.15732584641E+03  0.17651911190E+03  0.47000000000E+01 0.  1.
         13    1    4    4    0    0  0.17717372072E+01 -0.14960249173E+02 -0.78918172299E+01  0.17006730646E+02  0.00000000000E+00 0. -1.
        -14    1    4    4    0    0 -0.87014782532E+01  0.85435791037E+02 -0.14162559828E+03  0.16562850057E+03  0.00000000000E+00 0.  1.
</event>
<event>
12    1  0.8196217E-002  0.1723986E+03  0.7818608E-02  0.1177050E+00
         21   -1    0    0  501  502  0.00000000000E+00  0.00000000000E+00  0.57302499299E+02  0.57302499299E+02  0.00000000000E+00 0.  1.
         21   -1    0    0  502  503 -0.00000000000E+00 -0.00000000000E+00 -0.12479355533E+04  0.12479355533E+04  0.00000000000E+00 0.  1.
         -6    2    1    2    0  503 -0.99930618063E+01  0.19572109156E+02 -0.10961565976E+04  0.11086494768E+04  0.16450363850E+03 0.  0.
        -24    2    3    3    0    0 -0.54073708790E+02  0.51196249246E+02 -0.81042575296E+03  0.81777597287E+03  0.80141242988E+02 0.  0.
          6    2    1    2  501    0  0.99930618063E+01 -0.19572109156E+02 -0.94476456302E+02  0.19658857576E+03  0.17099221790E+03 0.  0.
         24    2    5    5    0    0 -0.36464781271E+02 -0.29963805664E+02 -0.11213767319E+03  0.14559517303E+03  0.79972412356E+02 0.  0.
          5    1    5    5  501    0  0.46457843078E+02  0.10391696508E+02  0.17661216889E+02  0.50993402728E+02  0.47000000000E+01 0. -1.
        -13    1    6    6    0    0 -0.37637146858E+02  0.15281189492E+02 -0.25823835426E+02  0.48134603479E+02  0.00000000000E+00 0.  1.
         14    1    6    6    0    0  0.11723655870E+01 -0.45244995156E+02 -0.86313837764E+02  0.97460569552E+02  0.00000000000E+00 0. -1.
         -5    1    3    3    0  503  0.44080646984E+02 -0.31624140090E+02 -0.28573084469E+03  0.29087350392E+03  0.47000000000E+01 0.  1.
         11    1    4    4    0    0  0.10897905499E+02  0.28605085950E+02 -0.11668663342E+03  0.12063492739E+03  0.00000000000E+00 0. -1.
        -12    1    4    4    0    0 -0.64971614290E+02  0.22591163296E+02 -0.69373911954E+03  0.69714104548E+03  0.00000000000E+00 0.  1.
</event>
<event>
12    1  0.8196217E-002  0.1863461E+03  0.7818608E-02  0.1164566E+00
         21   -1    0    0  503  502  0.00000000000E+00  0.00000000000E+00  0.75011010210E+03  0.75011010210E+03  0.00000000000E+00 0.  1.
         21   -1    0    0  501  503 -0.00000000000E+00 -0.00000000000E+00 -0.21757941916E+03  0.21757941916E+03  0.00000000000E+00 0. -1.
          6    2    1    2  501    0  0.63781249079E+02 -0.19682404827E+02 -0.16822077707E+03  0.24258437457E+03  0.16153483882E+03 0.  0.
         24    2    3    3    0    0 -0.11539832430E+02  0.17758873749E+02 -0.12640277407E+03  0.14853146374E+03  0.75069228700E+02 0.  0.
         -6    2    1    2    0  502 -0.63781249079E+02  0.19682404827E+02  0.70075146001E+03  0.72510514669E+03  0.17398109166E+03 0.  0.
        -24    2    5    5    0    0 -0.39140189399E+02 -0.44291634756E+02  0.25106855179E+03  0.27020222572E+03  0.80499203407E+02 0.  0.
          5    1    3    3  501    0  0.75321081510E+02 -0.37441278575E+02 -0.41818002999E+02  0.94052910832E+02  0.47000000000E+01 0. -1.
        -13    1    4    4    0    0 -0.21310889988E+02  0.18921142331E+02 -0.78347434453E+01  0.29555826229E+02  0.00000000000E+00 0.  1.
         14    1    4    4    0    0  0.97710575578E+01 -0.11622685824E+01 -0.11856803062E+03  0.11897563751E+03  0.00000000000E+00 0. -1.
         -5    1    5    5    0  502 -0.24641059680E+02  0.63974039582E+02  0.44968290822E+03  0.45490292097E+03  0.47000000000E+01 0.  1.
         13    1    6    6    0    0 -0.52213667791E+02 -0.24080789890E+02  0.86401699226E+02  0.10378538035E+03  0.00000000000E+00 0. -1.
        -14    1    6    6    0    0  0.13073478392E+02 -0.20210844866E+02  0.16466685257E+03  0.16641684537E+03  0.00000000000E+00 0.  1.
</event>
<event>
12    1  0.8196217E-002  0.1881046E+03  0.7818608E-02  0.1160577E+00
         21   -1    0    0  503  502  0.00000000000E+00  0.00000000000E+00  0.16163667943E+03  0.16163667943E+03  0.00000000000E+00 0.  1.
         21   -1    0    0  501  503 -0.00000000000E+00 -0.00000000000E+00 -0.24363379866E+03  0.24363379866E+03  0.00000000000E+00 0.  1.
          6    2    1    2  501    0  0.31431192104E+02 -0.64864422086E+02 -0.10794233565E+03  0.21538497442E+03  0.17188317628E+03 0.  0.
         24    2    3    3    0    0 -0.38259033130E+02 -0.67291659953E+02 -0.34544562261E+02  0.11403438431E+03  0.76279701809E+02 0.  0.
         -6    2    1    2    0  502 -0.31431192104E+02  0.64864422086E+02  0.25945216421E+02  0.18988550368E+03  0.17374704936E+03 0.  0.
        -24    2    5    5    0    0 -0.18229910503E+02 -0.33525640803E+02  0.98919672402E+01  0.89214380109E+02  0.80031596099E+02 0.  0.
          5    1    3    3  501    0  0.69690225234E+02  0.24272378661E+01 -0.73397773385E+02  0.10135059011E+03  0.47000000000E+01 0. -1.
        -11    1    4    4    0    0 -0.23866382221E+02 -0.60538658132E+02 -0.57009061997E+02  0.86513389013E+02  0.00000000000E+00 0.  1.
         12    1    4    4    0    0 -0.14392650909E+02 -0.67530018205E+01  0.22464499736E+02  0.27520995297E+02  0.00000000000E+00 0. -1.
         -5    1    5    5    0  502 -0.13201281601E+02  0.98390062890E+02  0.16053249181E+02  0.10067112357E+03  0.47000000000E+01 0.  1.
         11    1    6    6    0    0 -0.44489689940E+02 -0.38401117104E+02  0.17717294358E+02  0.61383066274E+02  0.00000000000E+00 0. -1.
        -12    1    6    6    0    0  0.26259779437E+02  0.48754763014E+01 -0.78253271180E+01  0.27831313835E+02  0.00000000000E+00 0.  1.
</event>
<event>
12    1  0.8196217E-002  0.1735951E+03  0.7818608E-02  0.1174421E+00
         21   -1    0    0  503  502  0.00000000000E+00  0.00000000000E+00  0.31578977191E+02  0.31578977191E+02  0.00000000000E+00 0. -1.
         21   -1    0    0  501  503 -0.00000000000E+00 -0.00000000000E+00 -0.10386686471E+04  0.10386686471E+04  0.00000000000E+00 0. -1.
          6    2    1    2  501    0  0.20140700849E+02  0.81800777869E+01 -0.34441073986E+03  0.38520849276E+03  0.17115567084E+03 0.  0.
         24    2    3    3    0    0 -0.19573038570E+02  0.29000573741E+02 -0.90565164969E+02  0.12739006820E+03  0.82474500632E+02 0.  0.
         -6    2    1    2    0  502 -0.20140700849E+02 -0.81800777869E+01 -0.66267893001E+03  0.68503913149E+03  0.17222858616E+03 0.  0.
        -24    2    5    5    0    0 -0.37392263603E+02  0.35605677344E+02 -0.58909650703E+03  0.59756758331E+03  0.85944030558E+02 0.  0.
          5    1    3    3  501    0  0.39713739419E+02 -0.20820495954E+02 -0.25384557489E+03  0.25781842456E+03  0.47000000000E+01 0. -1.
        -13    1    4    4    0    0 -0.29432391815E+02  0.17733413872E+02 -0.10258709337E+03  0.10818896146E+03  0.00000000000E+00 0.  1.
         14    1    4    4    0    0  0.98593532446E+01  0.11267159869E+02  0.12021928397E+02  0.19201106747E+02  0.00000000000E+00 0. -1.
         -5    1    5    5    0  502  0.17251562754E+02 -0.43785755131E+02 -0.73582422972E+02  0.87471548176E+02  0.47000000000E+01 0.  1.
         11    1    6    6    0    0  0.10660093802E+02 -0.20387202024E+02 -0.83338322961E+02  0.86455489590E+02  0.00000000000E+00 0. -1.
        -12    1    6    6    0    0 -0.48052357405E+02  0.55992879368E+02 -0.50575818407E+03  0.51111209372E+03  0.00000000000E+00 0.  1.
</event>
<event>
12    1  0.8196217E-002  0.1899907E+03  0.7818608E-02  0.1158911E+00
         21   -1    0    0  501  502  0.00000000000E+00  0.00000000000E+00  0.19079849235E+03  0.19079849235E+03  0.00000000000E+00 0.  1.
         21   -1    0    0  502  503 -0.00000000000E+00 -0.00000000000E+00 -0.20666381061E+03  0.20666381061E+03  0.00000000000E+00 0.  1.
         -6    2    1    2    0  503  0.35376902292E+02  0.68545167870E+02 -0.68800156622E+02  0.20023514654E+03  0.17149544340E+03 0.  0.
        -24    2    3    3    0    0 -0.29302925054E+02  0.81876858312E+01  0.44025244686E+01  0.85312441118E+02  0.79580969910E+02 0.  0.
          6    2    1    2  501    0 -0.35376902292E+02 -0.68545167870E+02  0.52934838362E+02  0.19722715642E+03  0.17362744272E+03 0.  0.
         24    2    5    5    0    0 -0.61947461282E+02 -0.21304175404E+02 -0.21811918317E+02  0.10477785352E+03  0.78811693027E+02 0.  0.
          5    1    5    5  501    0  0.26570558990E+02 -0.47240992466E+02  0.74746756678E+02  0.92449302908E+02  0.47000000000E+01 0. -1.
        -13    1    6    6    0    0 -0.51381251113E+02  0.52385321689E+01  0.18938885688E+02  0.55010513325E+02  0.00000000000E+00 0.  1.
         14    1    6    6    0    0 -0.10566210170E+02 -0.26542707573E+02 -0.40750804005E+02  0.49767340191E+02  0.00000000000E+00 0. -1.
         -5    1    3    3    0  503  0.64679827346E+02  0.60357482038E+02 -0.73202681090E+02  0.11492270543E+03  0.47000000000E+01 0.  1.
         13    1    4    4    0    0 -0.50970655314E+02  0.82492799300E+01 -0.17484712994E+02  0.54513975374E+02  0.00000000000E+00 0. -1.
        -14    1    4    4    0    0  0.21667730260E+02 -0.61594098773E-01  0.21887237462E+02  0.30798465744E+02  0.00000000000E+00 0.  1.
</event>
<event>
12    1  0.8196217E-002  0.1741759E+03  0.7818608E-02  0.1173593E+00
         21   -1    0    0  501  502  0.00000000000E+00  0.00000000000E+00  0.58656459135E+02  0.58656459135E+02  0.00000000000E+00 0. -1.
         21   -1    0    0  502  503 -0.00000000000E+00 -0.00000000000E+00 -0.53584857746E+03  0.53584857746E+03  0.00000000000E+00 0. -1.
         -6    2    1    2    0  503 -0.95700616681E+01  0.24110191823E+02 -0.29451195186E+03  0.34209806090E+03  0.17210725159E+03 0.  0.
        -24    2    3    3    0    0 -0.53615249191E+02  0.58147208251E+02 -0.15196621437E+03  0.18899719771E+03  0.79815522671E+02 0.  0.
          6    2    1    2  501    0  0.95700616681E+01 -0.24110191823E+02 -0.18268016647E+03  0.25240697570E+03  0.17223341933E+03 0.  0.
         24    2    5    5    0    0  0.18976201852E+02  0.39371228182E+02 -0.48151576296E+02  0.10328153276E+03  0.80239085640E+02 0.  0.
          5    1    5    5  501    0 -0.94061401839E+01 -0.63481420005E+02 -0.13452859017E+03  0.14912544294E+03  0.47000000000E+01 0. -1.
        -11    1    6    6    0    0  0.37811120367E+02  0.11757583977E+02  0.55935283426E+01  0.39990113324E+02  0.00000000000E+00 0.  1.
         12    1    6    6    0    0 -0.18834918515E+02  0.27613644205E+02 -0.53745104639E+02  0.63291419437E+02  0.00000000000E+00 0. -1.
         -5    1    3    3    0  503  0.44045187523E+02 -0.34037016427E+02 -0.14254573750E+03  0.15310086319E+03  0.47000000000E+01 0.  1.
         13    1    4    4    0    0 -0.15506150510E+02  0.70086936489E+02 -0.87667608496E+02  0.11330590871E+03  0.00000000000E+00 0. -1.
        -14    1    4    4    0    0 -0.38109098681E+02 -0.11939728238E+02 -0.64298605869E+02  0.75691288993E+02  0.00000000000E+00 0.  1.
</event>
<event>
12    1  0.8196217E-002  0.1867627E+03  0.7818608E-02  0.1161622E+00
         21   -1    0    0  501  502  0.00000000000E+00  0.00000000000E+00  0.16099542619E+04  0.16099542619E+04  0.00000000000E+00 0.  1.
         21   -1    0    0  502  503 -0.00000000000E+00 -0.00000000000E+00 -0.31938134702E+02  0.31938134702E+02  0.00000000000E+00 0.  1.
         -6    2    1    2    0  503  0.61318620284E+02  0.38423981558E+02  0.32235061244E+03  0.37254561366E+03  0.17217415997E+03 0.  0.
        -24    2    3    3    0    0  0.92207939916E+02 -0.12053452208E+02  0.21315429400E+03  0.24825543968E+03  0.86881645849E+02 0.  0.
          6    2    1    2  501    0 -0.61318620284E+02 -0.38423981558E+02  0.12556655147E+04  0.12693467829E+04  0.17119869997E+03 0.  0.
         24    2    5    5    0    0 -0.92169799633E+02 -0.14380531809E+02  0.11517974787E+04  0.11582587924E+04  0.78891865355E+02 0.  0.
          5    1    5    5  501    0  0.30851179349E+02 -0.24043449749E+02  0.10386803600E+03  0.11108799056E+03  0.47000000000E+01 0. -1.
        -13    1    6    6    0    0 -0.70567526964E+02 -0.45152794682E+02  0.85331922834E+03  0.85742186594E+03  0.00000000000E+00 0.  1.
         14    1    6    6    0    0 -0.21602272669E+02  0.30772262873E+02  0.29847825038E+03  0.30083692641E+03  0.00000000000E+00 0. -1.
         -5    1    3    3    0  503 -0.30889319632E+02  0.50477433766E+02  0.10919631845E+03  0.12429017399E+03  0.47000000000E+01 0.  1.
         11    1    4    4    0    0  0.24288899974E+02 -0.45393597001E+02  0.81070306146E+02  0.96036054944E+02  0.00000000000E+00 0. -1.
        -12    1    4    4    0    0  0.67919039941E+02  0.33340144793E+02  0.13208398785E+03  0.15221938473E+03  0.00000000000E+00 0.  1.
</event>
<event>
12    1  0.8196217E-002  0.1883442E+03  0.7818608E-02  0.1161995E+00
         21   -1    0    0  503  502  0.00000000000E+00  0.00000000000E+00  0.19963241023E+03  0.19963241023E+03  0.00000000000E+00 0. -1.
         21   -1    0    0  501  503 -0.00000000000E+00 -0.00000000000E+00 -0.18050568813E+03  0.18050568813E+03  0.00000000000E+00 0. -1.
          6    2    1    2  501    0  0.48761267317E+02 -0.17784358231E+02  0.56073593000E+02  0.18820427644E+03  0.17199609662E+03 0.  0.
         24    2    3    3    0    0  0.23710848996E+02 -0.53625260310E+02  0.90711952521E+02  0.13222213938E+03  0.76263771928E+02 0.  0.
         -6    2    1    2    0  502 -0.48761267317E+02  0.17784358231E+02 -0.36946870909E+02  0.19193382192E+03  0.18105130802E+03 0.  0.
        -24    2    5    5    0    0 -0.62833180813E+02 -0.53888039434E+02 -0.25730968620E+02  0.11788763497E+03  0.79896697857E+02 0.  0.
          5    1    3    3  501    0  0.25050418321E+02  0.35840902080E+02 -0.34638359521E+02  0.55982137064E+02  0.47000000000E+01 0. -1.
        -11    1    4    4    0    0  0.33862708017E+02 -0.23516576331E+02  0.58924485201E+01  0.41646528141E+02  0.00000000000E+00 0.  1.
         12    1    4    4    0    0 -0.10151859021E+02 -0.30108683979E+02  0.84819504001E+02  0.90575611240E+02  0.00000000000E+00 0. -1.
         -5    1    5    5    0  502  0.14071913496E+02  0.71672397665E+02 -0.11215902288E+02  0.74046186941E+02  0.47000000000E+01 0.  1.
         13    1    6    6    0    0  0.96481816167E+01  0.39470058285E+01 -0.22849553030E+02  0.25115101776E+02  0.00000000000E+00 0. -1.
        -14    1    6    6    0    0 -0.72481362430E+02 -0.57835045262E+02 -0.28814155899E+01  0.92772533198E+02  0.00000000000E+00 0.  1.
</event>
<event>
12    1  0.8196217E-002  0.1908016E+03  0.7818608E-02  0.1158914E+00
         21   -1    0    0  503  502  0.00000000000E+00  0.00000000000E+00  0.22060234246E+03  0.22060234246E+03  0.00000000000E+00 0. -1.
         21   -1    0    0  501  503 -0.00000000000E+00 -0.00000000000E+00 -0.25357051986E+03  0.25357051986E+03  0.00000000000E+00 0. -1.
          6    2    1    2  501    0 -0.35920621147E+02  0.65669925116E+02 -0.16018160282E+03  0.24912529090E+03  0.17550622382E+03 0.  0.
         24    2    3    3    0    0 -0.17177946899E+02  0.37984595830E+02 -0.18631358395E+03  0.20643178164E+03  0.78507436131E+02 0.  0.
         -6    2    1    2    0  502  0.35920621147E+02 -0.65669925116E+02  0.12721342542E+03  0.22504757142E+03  0.16988326495E+03 0.  0.
        -24    2    5    5    0    0  0.24563925290E+02 -0.65547421785E+02  0.15471999675E+03  0.19491966054E+03  0.95684616012E+02 0.  0.
          5    1    3    3  501    0 -0.18742674248E+02  0.27685329286E+02  0.26131981130E+02  0.42693509265E+02  0.47000000000E+01 0. -1.
        -13    1    4    4    0    0  0.24219423018E+02 -0.17568111485E+01 -0.99101301051E+02  0.10203300793E+03  0.00000000000E+00 0.  1.
         14    1    4    4    0    0 -0.41397369918E+02  0.39741406978E+02 -0.87212282895E+02  0.10439877371E+03  0.00000000000E+00 0. -1.
         -5    1    5    5    0  502  0.11356695857E+02 -0.12250333098E+00 -0.27506571335E+02  0.30127910888E+02  0.47000000000E+01 0.  1.
         13    1    6    6    0    0  0.32441451497E+02  0.78057455604E+01  0.14307036964E+02  0.36305216508E+02  0.00000000000E+00 0. -1.
        -14    1    6    6    0    0 -0.78775262074E+01 -0.73353167345E+02  0.14041295979E+03  0.15861444403E+03  0.00000000000E+00 0.  1.
</event>
<event>
12    1  0.8196217E-002  0.2251740E+03  0.7818608E-02  0.1130332E+00
         21   -1    0    0  503  502  0.00000000000E+00  0.00000000000E+00  0.24440119742E+02  0.24440119742E+02  0.00000000000E+00 0.  1.
         21   -1    0    0  501  503 -0.00000000000E+00 -0.00000000000E+00 -0.20634255701E+04  0.20634255701E+04  0.00000000000E+00 0. -1.
          6    2    1    2  501    0  0.14161859900E+03 -0.23522888684E+02 -0.99494218017E+03  0.10201045316E+04  0.17347668318E+03 0.  0.
         24    2    3    3    0    0  0.11952980173E+03  0.46021306996E+02 -0.67593856966E+03  0.69282834297E+03  0.81931853806E+02 0.  0.
         -6    2    1    2    0  502 -0.14161859900E+03  0.23522888684E+02 -0.10440432702E+04  0.10677611583E+04  0.17169271149E+03 0.  0.
        -24    2    5    5    0    0 -0.15003813452E+03  0.23821745559E+02 -0.10440533061E+04  0.10581139828E+04  0.80492094896E+02 0.  0.
          5    1    3    3  501    0  0.22088797270E+02 -0.69544195681E+02 -0.31900361051E+03  0.32727618862E+03  0.47000000000E+01 0. -1.
        -13    1    4    4    0    0  0.10105904489E+02 -0.20453441987E+02 -0.13728349901E+03  0.13916620170E+03  0.00000000000E+00 0.  1.
         14    1    4    4    0    0  0.10942389724E+03  0.66474748983E+02 -0.53865507065E+03  0.55366214127E+03  0.00000000000E+00 0. -1.
         -5    1    5    5    0  502  0.84195355188E+01 -0.29885687435E+00  0.10035853928E-01  0.96471754676E+01  0.47000000000E+01 0.  1.
         13    1    6    6    0    0 -0.41439687447E+02  0.45080082645E+02 -0.38170369338E+03  0.38658397675E+03  0.00000000000E+00 0. -1.
        -14    1    6    6    0    0 -0.10859844707E+03 -0.21258337087E+02 -0.66234961268E+03  0.67153000604E+03  0.00000000000E+00 0.  1.
</event>
<event>
12    1  0.8196217E-002  0.1775437E+03  0.7818608E-02  0.1170239E+00
         21   -1    0    0  501  502  0.00000000000E+00  0.00000000000E+00  0.41456236185E+03  0.41456236185E+03  0.00000000000E+00 0. -1.
         21   -1    0    0  502  503 -0.00000000000E+00 -0.00000000000E+00 -0.10050485671E+03  0.10050485671E+03  0.00000000000E+00 0. -1.
         -6    2    1    2    0  503 -0.33779368187E+02  0.24045982437E+02  0.29736973066E+02  0.17986587237E+03  0.17247663462E+03 0.  0.
        -24    2    3    3    0    0  0.35613916994E+02  0.13190694550E+02 -0.24391297387E+02  0.91067083158E+02  0.79094454549E+02 0.  0.
          6    2    1    2  501    0  0.33779368187E+02 -0.24045982437E+02  0.28432053208E+03  0.33520134620E+03  0.17263407122E+03 0.  0.
         24    2    5    5    0    0 -0.37894987923E+02 -0.28766689118E+02  0.94419157324E+02  0.13211486085E+03  0.79219989122E+02 0.  0.
          5    1    5    5  501    0  0.71674356110E+02  0.47207066815E+01  0.18990137475E+03  0.20308648534E+03  0.47000000000E+01 0. -1.
        -13    1    6    6    0    0  0.10802893128E+02 -0.36766347380E+02  0.21133422542E+02  0.43761722406E+02  0.00000000000E+00 0.  1.
         14    1    6    6    0    0 -0.48697881051E+02  0.79996582623E+01  0.73285734782E+02  0.88353138449E+02  0.00000000000E+00 0. -1.
         -5    1    3    3    0  503 -0.69393285181E+02  0.10855287886E+02  0.54128270453E+02  0.88798789212E+02  0.47000000000E+01 0.  1.
         13    1    4    4    0    0 -0.39566188511E+01 -0.10107195170E+02 -0.40864944643E+02  0.42281839217E+02  0.00000000000E+00 0. -1.
        -14    1    4    4    0    0  0.39570535845E+02  0.23297889721E+02  0.16473647256E+02  0.48785243941E+02  0.00000000000E+00 0.  1.
</event>
<event>
12    1  0.8196217E-002  0.2072554E+03  0.7818608E-02  0.1144048E+00
         21   -1    0    0  501  502  0.00000000000E+00  0.00000000000E+00  0.17412369690E+03  0.17412369690E+03  0.00000000000E+00 0. -1.
         21   -1    0    0  502  503 -0.00000000000E+00 -0.00000000000E+00 -0.40003462446E+03  0.40003462446E+03  0.00000000000E+00 0. -1.
         -6    2    1    2    0  503  0.76535325973E+02  0.86194564460E+02 -0.29143969728E+03  0.35679037395E+03  0.17051426548E+03 0.  0.
        -24    2    3    3    0    0 -0.16911495049E+02  0.48472279210E+02 -0.88275065125E+02  0.12995731437E+03  0.80379449601E+02 0.  0.
          6    2    1    2  501    0 -0.76535325973E+02 -0.86194564460E+02  0.65528769718E+02  0.21736794741E+03  0.17224298487E+03 0.  0.
         24    2    5    5    0    0 -0.11867026674E+03 -0.56360136397E+02  0.36537133761E+02  0.15797054606E+03  0.79753583603E+02 0.  0.
          5    1    5    5  501    0  0.42134940767E+02 -0.29834428064E+02  0.28991635957E+02  0.59397401347E+02  0.47000000000E+01 0. -1.
        -13    1    6    6    0    0 -0.10830146104E+02 -0.35777820945E+02 -0.10049704421E+02  0.38708411168E+02  0.00000000000E+00 0.  1.
         14    1    6    6    0    0 -0.10784012064E+03 -0.20582315452E+02  0.46586838183E+02  0.11926213490E+03  0.00000000000E+00 0. -1.
         -5    1    3    3    0  503  0.93446821022E+02  0.37722285251E+02 -0.20316463215E+03  0.22683305959E+03  0.47000000000E+01 0.  1.
         13    1    4    4    0    0 -0.69655119521E+01  0.11924814156E+02 -0.90944171130E+02  0.91986748023E+02  0.00000000000E+00 0. -1.
        -14    1    4    4    0    0 -0.99459830966E+01  0.36547465054E+02  0.26691060047E+01  0.37970566344E+02  0.00000000000E+00 0.  1.
</event>
<event>
12    1  0.8196217E-002  0.2016623E+03  0.7818608E-02  0.1151546E+00
         21   -1    0    0  503  502  0.00000000000E+00  0.00000000000E+00  0.12902402224E+03  0.12902402224E+03  0.00000000000E+00 0.  1.
         21   -1    0    0  501  503 -0.00000000000E+00 -0.00000000000E+00 -0.58684230162E+03  0.58684230162E+03  0.00000000000E+00 0.  1.
          6    2    1    2  501    0 -0.41543525591E+02  0.58659821995E+02  0.20130031624E+02  0.20266451419E+03  0.18841668690E+03 0.  0.
         24    2    3    3    0    0 -0.10151107546E+03  0.57680543706E+02  0.11511393553E+02  0.14189086080E+03  0.79805768174E+02 0.  0.
         -6    2    1    2    0  502  0.41543525591E+02 -0.58659821995E+02 -0.47794831101E+03  0.51320180967E+03  0.17255338367E+03 0.  0.
        -24    2    5    5    0    0  0.60714848432E+02 -0.30387618152E+02 -0.14534016185E+03  0.17881112795E+03  0.78993396414E+02 0.  0.
          5    1    3    3  501    0  0.59967549873E+02  0.97927828901E+00  0.86186380715E+01  0.60773653386E+02  0.47000000000E+01 0. -1.
        -11    1    4    4    0    0 -0.28386454105E+02 -0.13154623010E+02  0.23846979895E+02  0.39338445995E+02  0.00000000000E+00 0.  1.
         12    1    4    4    0    0 -0.73124621358E+02  0.70835166716E+02 -0.12335586342E+02  0.10255241481E+03  0.00000000000E+00 0. -1.
         -5    1    5    5    0  502 -0.19171322842E+02 -0.28272203843E+02 -0.33260814916E+03  0.33439068172E+03  0.47000000000E+01 0.  1.
         11    1    6    6    0    0  0.57135797005E+02  0.92041927046E+01 -0.11521442614E+03  0.12893246470E+03  0.00000000000E+00 0. -1.
        -12    1    6    6    0    0  0.35790514272E+01 -0.39591810856E+02 -0.30125735707E+02  0.49878663253E+02  0.00000000000E+00 0.  1.
</event>
<event>
12    1  0.8196217E-002  0.2326594E+03  0.7818608E-02  0.1125627E+00
         21   -1    0    0  503  502  0.00000000000E+00  0.00000000000E+00  0.78665555009E+02  0.78665555009E+02  0.00000000000E+00 0.  1.
         21   -1    0    0  501  503 -0.00000000000E+00 -0.00000000000E+00 -0.68500559806E+03  0.68500559806E+03  0.00000000000E+00 0. -1.
          6    2    1    2  501    0 -0.14713491114E+03 -0.28152896944E+02 -0.35484652795E+03  0.42431882471E+03  0.17801443459E+03 0.  0.
         24    2    3    3    0    0 -0.12156030795E+03 -0.85310200064E+02 -0.23943418946E+03  0.29292964896E+03  0.80151790085E+02 0.  0.
         -6    2    1    2    0  502  0.14713491114E+03  0.28152896944E+02 -0.25149351509E+03  0.33935232835E+03  0.17166754773E+03 0.  0.
        -24    2    5    5    0    0  0.15488843313E+03 -0.15152444177E+02 -0.23248136369E+03  0.29119610784E+03  0.80793350441E+02 0.  0.
          5    1    3    3  501    0 -0.25574603184E+02  0.57157303120E+02 -0.11541233850E+03  0.13138917575E+03  0.47000000000E+01 0. -1.
        -13    1    4    4    0    0 -0.59431462276E+02  0.19499507036E+01 -0.63857910873E+02  0.87256712046E+02  0.00000000000E+00 0.  1.
         14    1    4    4    0    0 -0.62128845678E+02 -0.87260150767E+02 -0.17557627858E+03  0.20567293691E+03  0.00000000000E+00 0. -1.
         -5    1    5    5    0  502 -0.77535219941E+01  0.43305341121E+02 -0.19012151401E+02  0.48156220510E+02  0.47000000000E+01 0.  1.
         11    1    6    6    0    0  0.58579314589E+02  0.27027712302E+02 -0.12598766151E+03  0.14154477801E+03  0.00000000000E+00 0. -1.
        -12    1    6    6    0    0  0.96309118544E+02 -0.42180156479E+02 -0.10649370218E+03  0.14965132983E+03  0.00000000000E+00 0.  1.
</event>
<event>
12    1  0.8196217E-002  0.1922025E+03  0.7818608E-02  0.1159057E+00
         21   -1    0    0  501  502  0.00000000000E+00  0.00000000000E+00  0.39866574767E+03  0.39866574767E+03  0.00000000000E+00 0.  1.
         21   -1    0    0  502  503 -0.00000000000E+00 -0.00000000000E+00 -0.10815890250E+03  0.10815890250E+03  0.00000000000E+00 0.  1.
         -6    2    1    2    0  503 -0.11206783418E+02  0.85647419277E+02  0.30613659754E+02  0.18358130154E+03  0.15907176270E+03 0.  0.
        -24    2    3    3    0    0 -0.26220524518E+02  0.21943237303E+02  0.64979473003E+02  0.10950880770E+03  0.81245464385E+02 0.  0.
          6    2    1    2  501    0  0.11206783418E+02 -0.85647419277E+02  0.25989318542E+03  0.32324334864E+03  0.17169951133E+03 0.  0.
         24    2    5    5    0    0 -0.12202474101E+02 -0.12070617435E+03  0.23303439928E+03  0.27303783064E+03  0.74335353739E+02 0.  0.
          5    1    5    5  501    0  0.23409257519E+02  0.35058755070E+02  0.26858786139E+02  0.50205517999E+02  0.47000000000E+01 0. -1.
        -11    1    6    6    0    0  0.13056454208E+00 -0.10476037602E+03  0.12479501433E+03  0.16293725489E+03  0.00000000000E+00 0.  1.
         12    1    6    6    0    0 -0.12333038643E+02 -0.15945798332E+02  0.10823938495E+03  0.11010057575E+03  0.00000000000E+00 0. -1.
         -5    1    3    3    0  503  0.15013741100E+02  0.63704181974E+02 -0.34365813249E+02  0.74072493836E+02  0.47000000000E+01 0.  1.
         13    1    4    4    0    0 -0.54681489077E+02  0.15485457562E+02  0.53795482055E+02  0.78254830733E+02  0.00000000000E+00 0. -1.
        -14    1    4    4    0    0  0.28460964559E+02  0.64577797410E+01  0.11183990948E+02  0.31253976968E+02  0.00000000000E+00 0.  1.
</event>
<event>
12    1  0.8196217E-002  0.2769643E+03  0.7818608E-02  0.1097947E+00
         21   -1    0    0  501  502  0.00000000000E+00  0.00000000000E+00  0.57836192169E+02  0.57836192169E+02  0.00000000000E+00 0. -1.
         21   -1    0    0  502  503 -0.00000000000E+00 -0.00000000000E+00 -0.13072571896E+04  0.13072571896E+04  0.00000000000E+00 0. -1.
         -6    2    1    2    0  503 -0.13027348007E+03 -0.16627477043E+03 -0.60057713428E+03  0.65960943577E+03  0.17254922385E+03 0.  0.
        -24    2    3    3    0    0 -0.15642528611E+03 -0.14888234238E+03 -0.45041576743E+03  0.50612673445E+03  0.81578709007E+02 0.  0.
          6    2    1    2  501    0  0.13027348007E+03  0.16627477043E+03 -0.64884386318E+03  0.70548394603E+03  0.17913894166E+03 0.  0.
         24    2    5    5    0    0  0.15695035231E+03  0.10610888650E+03 -0.42278759766E+03  0.46999485014E+03  0.79077794190E+02 0.  0.
          5    1    5    5  501    0 -0.26676872241E+02  0.60165883934E+02 -0.22605626552E+03  0.23548909589E+03  0.47000000000E+01 0. -1.
        -13    1    6    6    0    0  0.83102522726E+02  0.71847042347E+02 -0.15412063151E+03  0.18926488273E+03  0.00000000000E+00 0.  1.
         14    1    6    6    0    0  0.73847829583E+02  0.34261844148E+02 -0.26866696615E+03  0.28072996741E+03  0.00000000000E+00 0. -1.
         -5    1    3    3    0  503  0.26151806045E+02 -0.17392428047E+02 -0.15016136685E+03  0.15348270133E+03  0.47000000000E+01 0.  1.
         11    1    4    4    0    0 -0.12352829412E+03 -0.62611513005E+02 -0.26651385334E+03  0.30034825625E+03  0.00000000000E+00 0. -1.
        -12    1    4    4    0    0 -0.32896991991E+02 -0.86270829377E+02 -0.18390191409E+03  0.20577847820E+03  0.00000000000E+00 0.  1.
</event>
<event>
12    1  0.8196217E-002  0.1966501E+03  0.7818608E-02  0.1155215E+00
         21   -1    0    0  503  502  0.00000000000E+00  0.00000000000E+00  0.13780462569E+03  0.13780462569E+03  0.00000000000E+00 0.  1.
         21   -1    0    0  501  503 -0.00000000000E+00 -0.00000000000E+00 -0.29842217343E+03  0.29842217343E+03  0.00000000000E+00 0.  1.
          6    2    1    2  501    0 -0.68061207572E+02 -0.91346349944E+01 -0.15643293644E+03  0.25128176698E+03  0.18427016384E+03 0.  0.
         24    2    3    3    0    0 -0.10941295419E+03 -0.22275118086E+02 -0.15519652846E+03  0.20762105295E+03  0.80951613636E+02 0.  0.
         -6    2    1    2    0  502  0.68061207572E+02  0.91346349944E+01 -0.41846113008E+01  0.18494503214E+03  0.17167231696E+03 0.  0.
        -24    2    5    5    0    0 -0.27489010564E+02 -0.15225128122E+02  0.34314061130E+01  0.85933235038E+02  0.79908047830E+02 0.  0.
          5    1    3    3  501    0  0.41351746623E+02  0.13140483092E+02 -0.12364079759E+01  0.43660714027E+02  0.47000000000E+01 0. -1.
        -11    1    4    4    0    0 -0.12427823981E+02 -0.35610323126E+02 -0.61292160618E+02  0.71967179153E+02  0.00000000000E+00 0.  1.
         12    1    4    4    0    0 -0.96985130213E+02  0.13335205040E+02 -0.93904367846E+02  0.13565387380E+03  0.00000000000E+00 0. -1.
         -5    1    5    5    0  502  0.95550218136E+02  0.24359763117E+02 -0.76160174138E+01  0.99011797106E+02  0.47000000000E+01 0.  1.
         11    1    6    6    0    0  0.51599800983E+00  0.27945685084E+02 -0.14439183554E+02  0.31459777343E+02  0.00000000000E+00 0. -1.
        -12    1    6    6    0    0 -0.28005008574E+02 -0.43170813207E+02  0.17870589667E+02  0.54473457695E+02  0.00000000000E+00 0.  1.
</event>
<event>
12    1  0.8196217E-002  0.2073114E+03  0.7818608E-02  0.1143784E+00
         21   -1    0    0  501  502  0.00000000000E+00  0.00000000000E+00  0.15534210550E+04  0.15534210550E+04  0.00000000000E+00 0.  1.
         21   -1    0    0  502  503 -0.00000000000E+00 -0.00000000000E+00 -0.31764130871E+02  0.31764130871E+02  0.00000000000E+00 0.  1.
         -6    2    1    2    0  503 -0.38168746902E+02 -0.10849495106E+03  0.47396723932E+03  0.51718158871E+03  0.17205767669E+03 0.  0.
        -24    2    3    3    0    0  0.71590998772E+01 -0.72889766114E+02  0.13761293301E+03  0.17589189906E+03  0.81464532826E+02 0.  0.
          6    2    1    2  501    0  0.38168746902E+02  0.10849495106E+03  0.10476896848E+04  0.10680035971E+04  0.17248188381E+03 0.  0.
         24    2    5    5    0    0  0.41973560802E+01  0.10594718347E+03  0.10020370785E+04  0.10108476965E+04  0.80575029651E+02 0.  0.
          5    1    5    5  501    0  0.33971390822E+02  0.25477675876E+01  0.45652606304E+02  0.57155900627E+02  0.47000000000E+01 0. -1.
        -13    1    6    6    0    0  0.44842199795E+01  0.39378492382E+02  0.71884218728E+03  0.71993393037E+03  0.00000000000E+00 0.  1.
         14    1    6    6    0    0 -0.28686389926E+00  0.66568691086E+02  0.28319489119E+03  0.29091376612E+03  0.00000000000E+00 0. -1.
         -5    1    3    3    0  503 -0.45327846779E+02 -0.35605184942E+02  0.33635430631E+03  0.34128968965E+03  0.47000000000E+01 0.  1.
         11    1    4    4    0    0 -0.14421741008E+02 -0.35618543290E+02  0.12535568602E+03  0.13111336796E+03  0.00000000000E+00 0. -1.
        -12    1    4    4    0    0  0.21580840886E+02 -0.37271222824E+02  0.12257246993E+02  0.44778531106E+02  0.00000000000E+00 0.  1.
</event>
<event>
12    1  0.8196217E-002  0.1922136E+03  0.7818608E-02  0.1156945E+00
         21   -1    0    0  501  502  0.00000000000E+00  0.00000000000E+00  0.61695363212E+02  0.61695363212E+02  0.00000000000E+00 0.  1.
         21   -1    0    0  502  503 -0.00000000000E+00 -0.00000000000E+00 -0.78879538298E+03  0.78879538298E+03  0.00000000000E+00 0. -1.
         -6    2    1    2    0  503  0.17938119586E+02 -0.83975516700E+02 -0.15283672503E+03  0.24557101729E+03  0.17196626551E+03 0.  0.
        -24    2    3    3    0    0 -0.10411728995E+02 -0.76004315385E+02 -0.17598695055E+03  0.20781817757E+03  0.79573413316E+02 0.  0.
          6    2    1    2  501    0 -0.17938119586E+02  0.83975516700E+02 -0.57426329474E+03  0.60491972891E+03  0.16963455780E+03 0.  0.
         24    2    5    5    0    0 -0.59813584208E+01  0.26013761982E+02 -0.51888419065E+03  0.52373189535E+03  0.65892354964E+02 0.  0.
          5    1    5    5  501    0 -0.11956761165E+02  0.57961754717E+02 -0.55379104085E+02  0.81187833552E+02  0.47000000000E+01 0. -1.
        -13    1    6    6    0    0 -0.21937937031E+02  0.13720410702E+02 -0.74026390614E+02  0.78418296706E+02  0.00000000000E+00 0.  1.
         14    1    6    6    0    0  0.15956578611E+02  0.12293351280E+02 -0.44485780004E+03  0.44531359865E+03  0.00000000000E+00 0. -1.
         -5    1    3    3    0  503  0.28349848581E+02 -0.79712013151E+01  0.23150225520E+02  0.37752839716E+02  0.47000000000E+01 0.  1.
         13    1    4    4    0    0  0.33100712418E+01  0.10470561582E+02 -0.67591384436E+02  0.68477620297E+02  0.00000000000E+00 0. -1.
        -14    1    4    4    0    0 -0.13721800237E+02 -0.86474876966E+02 -0.10839556611E+03  0.13934055727E+03  0.00000000000E+00 0.  1.
</event>
<event>
12    1  0.8196217E-002  0.1947687E+03  0.7818608E-02  0.1154237E+00
         21   -1    0    0  503  502  0.00000000000E+00  0.00000000000E+00  0.17566022825E+03  0.17566022825E+03  0.00000000000E+00 0. -1.
         21   -1    0    0  501  503 -0.00000000000E+00 -0.00000000000E+00 -0.48286333285E+03  0.48286333285E+03  0.00000000000E+00 0. -1.
          6    2    1    2  501    0  0.81075925389E+01 -0.90704652426E+02 -0.39842353228E+03  0.44348185048E+03  0.17216786459E+03 0.  0.
         24    2    3    3    0    0  0.38625661643E+02 -0.10430699063E+02 -0.10138892027E+03  0.13424583889E+03  0.78367664793E+02 0.  0.
         -6    2    1    2    0  502 -0.81075925389E+01  0.90704652426E+02  0.91220427689E+02  0.21504171062E+03  0.17212990399E+03 0.  0.
        -24    2    5    5    0    0 -0.52364263408E+02  0.10977868805E+03  0.64312598544E+02  0.15964682799E+03  0.80979151167E+02 0.  0.
          5    1    3    3  501    0 -0.30518069104E+02 -0.80273953364E+02 -0.29703461202E+03  0.30923601159E+03  0.47000000000E+01 0. -1.
        -11    1    4    4    0    0 -0.10772395117E+02  0.23896870605E+02 -0.19660935812E+02  0.32766710520E+02  0.00000000000E+00 0.  1.
         12    1    4    4    0    0  0.49398056760E+02 -0.34327569668E+02 -0.81727984455E+02  0.10147912837E+03  0.00000000000E+00 0. -1.
         -5    1    5    5    0  502  0.44256670869E+02 -0.19074035626E+02  0.26907829145E+02  0.55394882623E+02  0.47000000000E+01 0.  1.
         13    1    6    6    0    0 -0.11429448888E+01  0.79009396922E+02  0.11403755591E+02  0.79836312331E+02  0.00000000000E+00 0. -1.
        -14    1    6    6    0    0 -0.51221318519E+02  0.30769291131E+02  0.52908842953E+02  0.79810515662E+02  0.00000000000E+00 0.  1.
</event>
<event>
12    1  0.8196217E-002  0.1744990E+03  0.7818608E-02  0.1176035E+00
         21   -1    0    0  501  502  0.00000000000E+00  0.00000000000E+00  0.30753177956E+03  0.30753177956E+03  0.00000000000E+00 0. -1.
         21   -1    0    0  502  503 -0.00000000000E+00 -0.00000000000E+00 -0.13671621080E+03  0.13671621080E+03  0.00000000000E+00 0. -1.
         -6    2    1    2    0  503 -0.16301736156E+02  0.10348100061E+01 -0.41977398431E+02  0.16905578963E+03  0.16294459364E+03 0.  0.
        -24    2    3    3    0    0 -0.29692573910E+02 -0.42501161711E+02 -0.68526637623E+02  0.11612519856E+03  0.78109948058E+02 0.  0.
          6    2    1    2  501    0  0.16301736156E+02 -0.10348100061E+01  0.21279296719E+03  0.27519220073E+03  0.17373279202E+03 0.  0.
         24    2    5    5    0    0  0.21410626053E+02  0.50746553650E+02  0.59511996000E+02  0.11325222263E+03  0.79061752111E+02 0.  0.
          5    1    5    5  501    0 -0.51088898975E+01 -0.51781363656E+02  0.15328097119E+03  0.16193997810E+03  0.47000000000E+01 0. -1.
        -13    1    6    6    0    0  0.33614608243E+02  0.54264628486E+02  0.71457536060E+02  0.95816341257E+02  0.00000000000E+00 0.  1.
         14    1    6    6    0    0 -0.12203982190E+02 -0.35180748360E+01 -0.11945540060E+02  0.17435881371E+02  0.00000000000E+00 0. -1.
         -5    1    3    3    0  503  0.13390837755E+02  0.43535971717E+02  0.26549239192E+02  0.52930591068E+02  0.47000000000E+01 0.  1.
         13    1    4    4    0    0  0.16756134760E+02 -0.37370487419E+02 -0.11784487482E+02  0.42616845581E+02  0.00000000000E+00 0. -1.
        -14    1    4    4    0    0 -0.46448708670E+02 -0.51306742915E+01 -0.56742150140E+02  0.73508352984E+02  0.00000000000E+00 0.  1.
</event>
<event>
12    1  0.8196217E-002  0.2263121E+03  0.7818608E-02  0.1129691E+00
         21   -1    0    0  503  502  0.00000000000E+00  0.00000000000E+00  0.27954555216E+03  0.27954555216E+03  0.00000000000E+00 0. -1.
         21   -1    0    0  501  503 -0.00000000000E+00 -0.00000000000E+00 -0.18203485488E+03  0.18203485488E+03  0.00000000000E+00 0.  1.
          6    2    1    2  501    0  0.45578542916E+02  0.13510766168E+03  0.33839247767E+02  0.22648205215E+03  0.17267756494E+03 0.  0.
         24    2    3    3    0    0  0.68839646236E+02  0.15533279703E+03  0.14260415854E+02  0.18966418031E+03  0.83078078378E+02 0.  0.
         -6    2    1    2    0  502 -0.45578542916E+02 -0.13510766168E+03  0.63671449511E+02  0.23509835490E+03  0.17574327632E+03 0.  0.
        -24    2    5    5    0    0 -0.91871126509E+02 -0.11315856146E+03  0.77874096475E+02  0.18172634465E+03  0.75597126413E+02 0.  0.
          5    1    3    3  501    0 -0.23261103320E+02 -0.20225135344E+02  0.19578831913E+02  0.36817871834E+02  0.47000000000E+01 0. -1.
        -11    1    4    4    0    0  0.43755331390E+02  0.10050492268E+03  0.49009609816E+02  0.12007377050E+03  0.00000000000E+00 0.  1.
         12    1    4    4    0    0  0.25084314845E+02  0.54827874346E+02 -0.34749193962E+02  0.69590409810E+02  0.00000000000E+00 0. -1.
         -5    1    5    5    0  502  0.46292583594E+02 -0.21949100224E+02 -0.14202646964E+02  0.53372010241E+02  0.47000000000E+01 0.  1.
         11    1    6    6    0    0 -0.43768849992E+02 -0.10697591745E+03  0.57920942770E+02  0.12928416282E+03  0.00000000000E+00 0. -1.
        -12    1    6    6    0    0 -0.48102276518E+02 -0.61826440097E+01  0.19953153704E+02  0.52442181837E+02  0.00000000000E+00 0.  1.
</event>
<event>
12    1  0.8196217E-002  0.1864055E+03  0.7818608E-02  0.1161891E+00
         21   -1    0    0  501  502  0.00000000000E+00  0.00000000000E+00  0.39931822360E+03  0.39931822360E+03  0.00000000000E+00 0.  1.
         21   -1    0    0  502  503 -0.00000000000E+00 -0.00000000000E+00 -0.45446341715E+03  0.45446341715E+03  0.00000000000E+00 0.  1.
         -6    2    1    2    0  503  0.35284770597E+02  0.61210412733E+02 -0.41157117455E+03  0.45155471332E+03  0.17181122705E+03 0.  0.
        -24    2    3    3    0    0  0.25904687726E+02  0.41842949776E+02 -0.88202151796E+02  0.12743637158E+03  0.77707939930E+02 0.  0.
          6    2    1    2  501    0 -0.35284770597E+02 -0.61210412733E+02  0.35642598100E+03  0.40222692743E+03  0.17249722189E+03 0.  0.
         24    2    5    5    0    0 -0.90862697860E+01 -0.10714612345E+03  0.24622102111E+03  0.27990082985E+03  0.78465478074E+02 0.  0.
          5    1    5    5  501    0 -0.26198500811E+02  0.45935710718E+02  0.11020495989E+03  0.12232609758E+03  0.47000000000E+01 0. -1.
        -13    1    6    6    0    0 -0.13698845906E+02 -0.89009618848E+02  0.24513640526E+03  0.26115556247E+03  0.00000000000E+00 0.  1.
         14    1    6    6    0    0  0.46125761198E+01 -0.18136504603E+02  0.10846158462E+01  0.18745267382E+02  0.00000000000E+00 0. -1.
         -5    1    3    3    0  503  0.93800828712E+01  0.19367462957E+02 -0.32336902275E+03  0.32411834174E+03  0.47000000000E+01 0.  1.
         13    1    4    4    0    0  0.50308083437E+02  0.25954421342E+02 -0.78420040584E+02  0.96717309782E+02  0.00000000000E+00 0. -1.
        -14    1    4    4    0    0 -0.24403395711E+02  0.15888528434E+02 -0.97821112120E+01  0.30719061799E+02  0.00000000000E+00 0.  1.
</event>
<event>
12    1  0.8196217E-002  0.2736168E+03  0.7818608E-02  0.1099468E+00
         21   -1    0    0  501  502  0.00000000000E+00  0.00000000000E+00  0.25406759295E+03  0.25406759295E+03  0.00000000000E+00 0. -1.
         21   -1    0    0  502  503 -0.00000000000E+00 -0.00000000000E+00 -0.29872527397E+03  0.29872527397E+03  0.00000000000E+00 0. -1.
         -6    2    1    2    0  503 -0.18892555968E+03 -0.10083709008E+03 -0.61068247192E+02  0.27868433693E+03  0.16755489549E+03 0.  0.
        -24    2    3    3    0    0 -0.18409195563E+03 -0.10477153670E+03 -0.93853601460E+02  0.24498251127E+03  0.79630454566E+02 0.  0.
          6    2    1    2  501    0  0.18892555968E+03  0.10083709008E+03  0.16410566176E+02  0.27410852998E+03  0.17030911218E+03 0.  0.
         24    2    5    5    0    0  0.90631474214E+02 -0.18221036691E+02  0.48305400695E+00  0.11882704225E+03  0.74656294666E+02 0.  0.
          5    1    5    5  501    0  0.98294085463E+02  0.11905812677E+03  0.15927512169E+02  0.15528148773E+03  0.47000000000E+01 0. -1.
        -13    1    6    6    0    0  0.77650256990E+02  0.66850949845E+01 -0.24019721526E+02  0.81554889049E+02  0.00000000000E+00 0.  1.
         14    1    6    6    0    0  0.12981217223E+02 -0.24906131676E+02  0.24502775533E+02  0.37272153204E+02  0.00000000000E+00 0. -1.
         -5    1    3    3    0  503 -0.48336040481E+01  0.39344466165E+01  0.32785354268E+02  0.33701825659E+02  0.47000000000E+01 0.  1.
         11    1    4    4    0    0 -0.75317075819E+02 -0.88397012663E+02 -0.43607864418E+02  0.12404974646E+03  0.00000000000E+00 0. -1.
        -12    1    4    4    0    0 -0.10877487981E+03 -0.16374524035E+02 -0.50245737042E+02  0.12093276481E+03  0.00000000000E+00 0.  1.
</event>
<event>
12    1  0.8196217E-002  0.2002531E+03  0.7818608E-02  0.1150302E+00
         21   -1    0    0  503  502  0.00000000000E+00  0.00000000000E+00  0.20461080973E+03  0.20461080973E+03  0.00000000000E+00 0.  1.
         21   -1    0    0  501  503 -0.00000000000E+00 -0.00000000000E+00 -0.19590326739E+03  0.19590326739E+03  0.00000000000E+00 0. -1.
          6    2    1    2  501    0 -0.77614348049E+02 -0.63391036343E+02  0.31042136023E+02  0.20264476448E+03  0.17337495739E+03 0.  0.
         24    2    3    3    0    0 -0.75615770543E+02  0.22317653008E+01 -0.29950814662E+02  0.11290861546E+03  0.78285238807E+02 0.  0.
         -6    2    1    2    0  502  0.77614348049E+02  0.63391036343E+02 -0.22334593690E+02  0.19786931264E+03  0.16914792431E+03 0.  0.
        -24    2    5    5    0    0 -0.24696439816E+02  0.35641325769E+02 -0.11522317674E+02  0.91208452605E+02  0.79410325398E+02 0.  0.
          5    1    3    3  501    0 -0.19985775051E+01 -0.65622801644E+02  0.60992950685E+02  0.89736149020E+02  0.47000000000E+01 0. -1.
        -13    1    4    4    0    0  0.16884270599E+01 -0.13569896158E+02  0.16435951005E+02  0.21380677097E+02  0.00000000000E+00 0.  1.
         14    1    4    4    0    0 -0.77304197603E+02  0.15801661459E+02 -0.46386765668E+02  0.91527938363E+02  0.00000000000E+00 0. -1.
         -5    1    5    5    0  502  0.10231078786E+03  0.27749710575E+02 -0.10812276015E+02  0.10666086003E+03  0.47000000000E+01 0.  1.
         11    1    6    6    0    0 -0.30093158087E+02  0.53783270776E+02 -0.26486172367E+02  0.67080218438E+02  0.00000000000E+00 0. -1.
        -12    1    6    6    0    0  0.53967182716E+01 -0.18141945007E+02  0.14963854693E+02  0.24128234167E+02  0.00000000000E+00 0.  1.
</event>
<event>
12    1  0.8196217E-002  0.1816475E+03  0.7818608E-02  0.1166760E+00
         21   -1    0    0  501  502  0.00000000000E+00  0.00000000000E+00  0.22383156816E+03  0.22383156816E+03  0.00000000000E+00 0. -1.
         21   -1    0    0  502  503 -0.00000000000E+00 -0.00000000000E+00 -0.54892760477E+03  0.54892760477E+03  0.00000000000E+00 0. -1.
         -6    2    1    2    0  503 -0.28559452514E+02 -0.45269426500E+02 -0.49401562229E+03  0.52635277154E+03  0.17358237740E+03 0.  0.
        -24    2    3    3    0    0  0.91386919460E+01  0.35088704653E+02 -0.18445883526E+03  0.20428744628E+03  0.79959776886E+02 0.  0.
          6    2    1    2  501    0  0.28559452514E+02  0.45269426500E+02  0.16891958567E+03  0.24640640138E+03  0.17122302682E+03 0.  0.
         24    2    5    5    0    0 -0.33617201758E+02  0.47515578776E+02  0.52322880022E+02  0.11416471618E+03  0.83114692839E+02 0.  0.
          5    1    5    5  501    0  0.62176654272E+02 -0.22461522757E+01  0.11659670565E+03  0.13224168520E+03  0.47000000000E+01 0. -1.
        -13    1    6    6    0    0 -0.59842714293E+02  0.35980230801E+02  0.49040413422E+02  0.85326957118E+02  0.00000000000E+00 0.  1.
         14    1    6    6    0    0  0.26225512535E+02  0.11535347975E+02  0.32824666002E+01  0.28837759060E+02  0.00000000000E+00 0. -1.
         -5    1    3    3    0  503 -0.37698144460E+02 -0.80358131153E+02 -0.30955678703E+03  0.32206532526E+03  0.47000000000E+01 0.  1.
         11    1    4    4    0    0 -0.97437073900E+01  0.24499062365E+02 -0.18033108405E+03  0.18224830251E+03  0.00000000000E+00 0. -1.
        -12    1    4    4    0    0  0.18882399336E+02  0.10589642288E+02 -0.41277512056E+01  0.22039143778E+02  0.00000000000E+00 0.  1.
</event>
<event>
12    1  0.8196217E-002  0.2110405E+03  0.7818608E-02  0.1141154E+00
         21   -1    0    0  501  502  0.00000000000E+00  0.00000000000E+00  0.24817297764E+03  0.24817297764E+03  0.00000000000E+00 0. -1.
         21   -1    0    0  502  503 -0.00000000000E+00 -0.00000000000E+00 -0.18711863323E+03  0.18711863323E+03  0.00000000000E+00 0.  1.
         -6    2    1    2    0  503  0.49732240783E+01  0.12000415738E+03  0.79479695036E+02  0.22551083118E+03  0.17352919728E+03 0.  0.
        -24    2    3    3    0    0 -0.18806048855E+02  0.83253638232E+01  0.73637815211E+02  0.11108258156E+03  0.80584321925E+02 0.  0.
          6    2    1    2  501    0 -0.49732240783E+01 -0.12000415738E+03 -0.18425350628E+02  0.20978077970E+03  0.17100512051E+03 0.  0.
         24    2    5    5    0    0  0.11856637510E+02 -0.13992418489E+03 -0.48788477529E+02  0.16948113687E+03  0.81389083082E+02 0.  0.
          5    1    5    5  501    0 -0.16829861588E+02  0.19920027510E+02  0.30363126901E+02  0.40299642831E+02  0.47000000000E+01 0. -1.
        -13    1    6    6    0    0  0.29540769304E+02 -0.26741386557E+02  0.94781974252E+01  0.40958454957E+02  0.00000000000E+00 0.  1.
         14    1    6    6    0    0 -0.17684131794E+02 -0.11318279833E+03 -0.58266674954E+02  0.12852268191E+03  0.00000000000E+00 0. -1.
         -5    1    3    3    0  503  0.23779272933E+02  0.11167879355E+03  0.58418798242E+01  0.11442824962E+03  0.47000000000E+01 0.  1.
         13    1    4    4    0    0 -0.46284927914E+02  0.20481256026E+02  0.32538615249E+02  0.60170905617E+02  0.00000000000E+00 0. -1.
        -14    1    4    4    0    0  0.27478879060E+02 -0.12155892202E+02  0.41099199962E+02  0.50911675941E+02  0.00000000000E+00 0.  1.
</event>
<event>
12    1  0.8196217E-002  0.1802779E+03  0.7818608E-02  0.1167846E+00
         21   -1    0    0  501  502  0.00000000000E+00  0.00000000000E+00  0.18984091824E+03  0.18984091824E+03  0.00000000000E+00 0.  1.
         21   -1    0    0  502  503 -0.00000000000E+00 -0.00000000000E+00 -0.64778395791E+03  0.64778395791E+03  0.00000000000E+00 0.  1.
         -6    2    1    2    0  503  0.34567777972E+02  0.32527940782E+02 -0.58844785600E+03  0.61506783302E+03  0.17258204362E+03 0.  0.
        -24    2    3    3    0    0 -0.11709901475E+01 -0.35696118797E+02 -0.23470100125E+03  0.25300332344E+03  0.87467351447E+02 0.  0.
          6    2    1    2  501    0 -0.34567777972E+02 -0.32527940782E+02  0.13050481633E+03  0.22255704313E+03  0.17391702665E+03 0.  0.
         24    2    5    5    0    0  0.19343203406E+02  0.33324751261E+02  0.80590734737E+02  0.12378216524E+03  0.85688151694E+02 0.  0.
          5    1    5    5  501    0 -0.53910981377E+02 -0.65852692043E+02  0.49914081588E+02  0.98774877895E+02  0.47000000000E+01 0. -1.
        -11    1    6    6    0    0 -0.10852872655E+01  0.33019195545E+02  0.93803527275E+02  0.99451228509E+02  0.00000000000E+00 0.  1.
         12    1    6    6    0    0  0.20428490671E+02  0.30555571664E+00 -0.13212792538E+02  0.24330936727E+02  0.00000000000E+00 0. -1.
         -5    1    3    3    0  503  0.35738768119E+02  0.68224059579E+02 -0.35374685475E+03  0.36206450958E+03  0.47000000000E+01 0.  1.
         13    1    4    4    0    0  0.35827642466E+02 -0.27911767059E+02 -0.18535490839E+03  0.19083796470E+03  0.00000000000E+00 0. -1.
        -14    1    4    4    0    0 -0.36998632613E+02 -0.77843517385E+01 -0.49346092856E+02  0.62165358741E+02  0.00000000000E+00 0.  1.
</event>
<event>
12    1  0.8196217E-002  0.1753946E+03  0.7818608E-02  0.1172487E+00
         21   -1    0    0  501  502  0.00000000000E+00  0.00000000000E+00  0.13104036893E+04  0.13104036893E+04  0.00000000000E+00 0.  1.
         21   -1    0    0  502  503 -0.00000000000E+00 -0.00000000000E+00 -0.29116397223E+02  0.29116397223E+02  0.00000000000E+00 0.  1.
         -6    2    1    2    0  503 -0.34503845455E+02 -0.53898399429E+01  0.34287745299E+03  0.38485977796E+03  0.17126743764E+03 0.  0.
        -24    2    3    3    0    0 -0.61577749727E+02  0.42369941435E+02  0.28368927722E+03  0.30399369631E+03  0.79658836231E+02 0.  0.
          6    2    1    2  501    0  0.34503845455E+02  0.53898399429E+01  0.93840983905E+03  0.95466030853E+03  0.17188284651E+03 0.  0.
         24    2    5    5    0    0 -0.60939978050E+01  0.62642429995E+02  0.65623391225E+03  0.66384870696E+03  0.78044521206E+02 0.  0.
          5    1    5    5  501    0  0.40597843260E+02 -0.57252590053E+02  0.28217592679E+03  0.29081160157E+03  0.47000000000E+01 0. -1.
        -13    1    6    6    0    0  0.20282363915E+02  0.34595490215E+02  0.53824658170E+03  0.53973845976E+03  0.00000000000E+00 0.  1.
         14    1    6    6    0    0 -0.26376361720E+02  0.28046939780E+02  0.11798733056E+03  0.12411024720E+03  0.00000000000E+00 0. -1.
         -5    1    3    3    0  503  0.27073904272E+02 -0.47759781378E+02  0.59188175771E+02  0.80866081647E+02  0.47000000000E+01 0.  1.
         11    1    4    4    0    0  0.97938769404E+01 -0.80209368263E+01  0.84488818866E+01  0.15219693106E+02  0.00000000000E+00 0. -1.
        -12    1    4    4    0    0 -0.71371626667E+02  0.50390878262E+02  0.27524039533E+03  0.28877400320E+03  0.00000000000E+00 0.  1.
</event>
<event>
12    1  0.8196217E-002  0.2319104E+03  0.7818608E-02  0.1125890E+00
         21   -1    0    0  501  502  0.00000000000E+00  0.00000000000E+00  0.86591044340E+03  0.86591044340E+03  0.00000000000E+00 0.  1.
         21   -1    0    0  502  503 -0.00000000000E+00 -0.00000000000E+00 -0.66060183177E+02  0.66060183177E+02  0.00000000000E+00 0.  1.
         -6    2    1    2    0  503  0.14975826051E+03  0.24694643556E+02  0.27105150001E+03  0.35455346522E+03  0.17088558168E+03 0.  0.
        -24    2    3    3    0    0  0.16129154668E+03 -0.21476430716E+02  0.20590307315E+03  0.27373767275E+03  0.77846244884E+02 0.  0.
          6    2    1    2  501    0 -0.14975826051E+03 -0.24694643556E+02  0.52879876021E+03  0.57741716136E+03  0.17534277124E+03 0.  0.
         24    2    5    5    0    0 -0.24632222294E+02 -0.56904681846E+02  0.22629029810E+03  0.24843772180E+03  0.81664639894E+02 0.  0.
          5    1    5    5  501    0 -0.12512603821E+03  0.32210038290E+02  0.30250846211E+03  0.32897943956E+03  0.47000000000E+01 0. -1.
        -11    1    6    6    0    0 -0.54103452107E+02 -0.45678101116E+02  0.14935154702E+03  0.16528628815E+03  0.00000000000E+00 0.  1.
         12    1    6    6    0    0  0.29471229813E+02 -0.11226580730E+02  0.76938751077E+02  0.83151433654E+02  0.00000000000E+00 0. -1.
         -5    1    3    3    0  503 -0.11533286174E+02  0.46171074272E+02  0.65148426860E+02  0.80815792464E+02  0.47000000000E+01 0.  1.
         11    1    4    4    0    0  0.81592883346E+02 -0.46551765246E+02  0.13314390561E+03  0.16294712351E+03  0.00000000000E+00 0. -1.
        -12    1    4    4    0    0  0.79698663334E+02  0.25075334530E+02  0.72759167548E+02  0.11079054924E+03  0.00000000000E+00 0.  1.
</event>
<event>
12    1  0.8196217E-002  0.1747696E+03  0.7818608E-02  0.1173005E+00
         21   -1    0    0  503  502  0.00000000000E+00  0.00000000000E+00  0.27657361702E+04  0.27657361702E+04  0.00000000000E+00 0. -1.
         21   -1    0    0  501  503 -0.00000000000E+00 -0.00000000000E+00 -0.52003306327E+02  0.52003306327E+02  0.00000000000E+00 0. -1.
          6    2    1    2  501    0  0.29584921987E+01  0.29913588344E+02  0.10621718819E+03  0.20437336932E+03  0.17199653362E+03 0.  0.
         24    2    3    3    0    0 -0.62723622272E+00  0.83105085427E+02  0.95547330809E+02  0.14980113584E+03  0.80026490774E+02 0.  0.
         -6    2    1    2    0  502 -0.29584921987E+01 -0.29913588344E+02  0.26075156756E+04  0.26133661072E+04  0.17216514139E+03 0.  0.
        -24    2    5    5    0    0  0.24544538806E+02 -0.81110161955E+02  0.16306366436E+04  0.16347485930E+04  0.79030411710E+02 0.  0.
          5    1    3    3  501    0  0.35857284215E+01 -0.53191497083E+02  0.10669857378E+02  0.54572233478E+02  0.47000000000E+01 0. -1.
        -13    1    4    4    0    0 -0.44939727220E+01 -0.17839089507E+01  0.55762794935E+02  0.55972023556E+02  0.00000000000E+00 0.  1.
         14    1    4    4    0    0  0.38667364993E+01  0.84888994378E+02  0.39784535874E+02  0.93829112286E+02  0.00000000000E+00 0. -1.
         -5    1    5    5    0  502 -0.27503031005E+02  0.51196573610E+02  0.97687903202E+03  0.97861751418E+03  0.47000000000E+01 0.  1.
         11    1    6    6    0    0  0.24386300383E+02 -0.58989264775E+02  0.52157734412E+03  0.52546869641E+03  0.00000000000E+00 0. -1.
        -12    1    6    6    0    0  0.15823842355E+00 -0.22120897180E+02  0.11090592995E+04  0.11092798966E+04  0.00000000000E+00 0.  1.
</event>
<event>
12    1  0.8196217E-002  0.2318046E+03  0.7818608E-02  0.1125378E+00
         21   -1    0    0  501  502  0.00000000000E+00  0.00000000000E+00  0.49299551315E+03  0.49299551315E+03  0.00000000000E+00 0. -1.
         21   -1    0    0  502  503 -0.00000000000E+00 -0.00000000000E+00 -0.37977534538E+03  0.37977534538E+03  0.00000000000E+00 0. -1.
         -6    2    1    2    0  503 -0.79448591430E+02  0.13276760572E+03 -0.31187458245E+03  0.38858604111E+03  0.17260950251E+03 0.  0.
        -24    2    3    3    0    0 -0.53629960211E+02  0.16374056219E+02 -0.21092444587E+03  0.23229439015E+03  0.79544198285E+02 0.  0.
          6    2    1    2  501    0  0.79448591430E+02 -0.13276760572E+03  0.42509475022E+03  0.48418481743E+03  0.17259801549E+03 0.  0.
         24    2    5    5    0    0  0.63749975714E+01 -0.13224893997E+03  0.24156272401E+03  0.28658392224E+03  0.79040319703E+02 0.  0.
          5    1    5    5  501    0  0.73073593858E+02 -0.51866575373E+00  0.18353202621E+03  0.19760089518E+03  0.47000000000E+01 0. -1.
        -13    1    6    6    0    0 -0.22576390056E+02 -0.42310937699E+02  0.13944609494E+03  0.14746227392E+03  0.00000000000E+00 0.  1.
         14    1    6    6    0    0  0.28951387628E+02 -0.89938002270E+02  0.10211662907E+03  0.13912164832E+03  0.00000000000E+00 0. -1.
         -5    1    3    3    0  503 -0.25818631219E+02  0.11639354950E+03 -0.10095013658E+03  0.15629165096E+03  0.47000000000E+01 0.  1.
         13    1    4    4    0    0 -0.67307004970E+02  0.38803022572E+01 -0.10512994905E+03  0.12489033530E+03  0.00000000000E+00 0. -1.
        -14    1    4    4    0    0  0.13677044759E+02  0.12493753962E+02 -0.10579449682E+03  0.10740405485E+03  0.00000000000E+00 0.  1.
</event>
<event>
12    1  0.8196217E-002  0.1767565E+03  0.7818608E-02  0.1172057E+00
         21   -1    0    0  503  502  0.00000000000E+00  0.00000000000E+00  0.21450875848E+03  0.21450875848E+03  0.00000000000E+00 0.  1.
         21   -1    0    0  501  503 -0.00000000000E+00 -0.00000000000E+00 -0.14220485941E+03  0.14220485941E+03  0.00000000000E+00 0.  1.
          6    2    1    2  501    0  0.11262237122E+01 -0.14287901846E+02  0.39685728589E+02  0.17697269162E+03  0.17186903156E+03 0.  0.
         24    2    3    3    0    0 -0.47149306744E+02 -0.30978473823E+01 -0.26241336247E+02  0.94363902518E+02  0.77351694135E+02 0.  0.
         -6    2    1    2    0  502 -0.11262237122E+01  0.14287901846E+02  0.32618170486E+02  0.17974092626E+03  0.17617446753E+03 0.  0.
        -24    2    5    5    0    0  0.59252061665E+02 -0.20996368103E+02  0.33977170648E+02  0.10963775991E+03  0.83152486362E+02 0.  0.
          5    1    3    3  501    0  0.48275530456E+02 -0.11190054464E+02  0.65927064835E+02  0.82608789106E+02  0.47000000000E+01 0. -1.
        -13    1    4    4    0    0 -0.48214396291E+02  0.62008708379E+01  0.15938797655E+02  0.51157834977E+02  0.00000000000E+00 0.  1.
         14    1    4    4    0    0  0.10650895472E+01 -0.92987182202E+01 -0.42180133902E+02  0.43206067540E+02  0.00000000000E+00 0. -1.
         -5    1    5    5    0  502 -0.60378285377E+02  0.35284269949E+02 -0.13590001624E+01  0.70103166350E+02  0.47000000000E+01 0.  1.
         11    1    6    6    0    0 -0.19149835836E+02  0.78516321101E+01  0.64562642301E+01  0.21680583183E+02  0.00000000000E+00 0. -1.
        -12    1    6    6    0    0  0.78401897501E+02 -0.28848000213E+02  0.27520906418E+02  0.87957176729E+02  0.00000000000E+00 0.  1.
</event>
<event>
12    1  0.8196217E-002  0.1902387E+03  0.7818608E-02  0.1159457E+00
         21   -1    0    0  501  502  0.00000000000E+00  0.00000000000E+00  0.10802387587E+03  0.10802387587E+03  0.00000000000E+00 0.  1.
         21   -1    0    0  502  503 -0.00000000000E+00 -0.00000000000E+00 -0.40465133549E+03  0.40465133549E+03  0.00000000000E+00 0.  1.
         -6    2    1    2    0  503 -0.56364439986E+01  0.72515822010E+02 -0.26317263022E+03  0.32473155783E+03  0.17578520247E+03 0.  0.
        -24    2    3    3    0    0 -0.51630140469E+01  0.96771772772E+02 -0.27093332545E+03  0.29882994256E+03  0.80641397632E+02 0.  0.
          6    2    1    2  501    0  0.56364439986E+01 -0.72515822010E+02 -0.33454829396E+02  0.18794365354E+03  0.17003904656E+03 0.  0.
         24    2    5    5    0    0  0.26808297082E+02 -0.59491526839E+01 -0.69174653421E+02  0.10934744080E+03  0.80110254803E+02 0.  0.
          5    1    5    5  501    0 -0.21171853083E+02 -0.66566669326E+02  0.35719824025E+02  0.78596212736E+02  0.47000000000E+01 0. -1.
        -13    1    6    6    0    0  0.54288811106E+02  0.30045569837E+01 -0.35334791698E+02  0.64844813812E+02  0.00000000000E+00 0.  1.
         14    1    6    6    0    0 -0.27480514025E+02 -0.89537096676E+01 -0.33839861723E+02  0.44502626993E+02  0.00000000000E+00 0. -1.
         -5    1    3    3    0  503 -0.47342995171E+00 -0.24255950762E+02  0.77606952214E+01  0.25901615270E+02  0.47000000000E+01 0.  1.
         13    1    4    4    0    0  0.96513781932E+01  0.92226492512E+02 -0.14613434177E+03  0.17307258844E+03  0.00000000000E+00 0. -1.
        -14    1    4    4    0    0 -0.14814392240E+02  0.45452802596E+01 -0.12479898367E+03  0.12575735412E+03  0.00000000000E+00 0.  1.
</event>
<event>
12    1  0.8196217E-002  0.1980819E+03  0.7818608E-02  0.1151479E+00
         21   -1    0    0  503  502  0.00000000000E+00  0.00000000000E+00  0.71421948777E+02  0.71421948777E+02  0.00000000000E+00 0. -1.
         21   -1    0    0  501  503 -0.00000000000E+00 -0.00000000000E+00 -0.62901459156E+03  0.62901459156E+03  0.00000000000E+00 0.  1.
          6    2    1    2  501    0 -0.17499876809E+02  0.94939430686E+02 -0.40422999792E+03  0.44992397845E+03  0.17236575642E+03 0.  0.
         24    2    3    3    0    0 -0.28021575474E+02  0.12033551544E+03 -0.22731044683E+03  0.27081986119E+03  0.80046942538E+02 0.  0.
         -6    2    1    2    0  502  0.17499876809E+02 -0.94939430686E+02 -0.15336264486E+03  0.25051256188E+03  0.17296445193E+03 0.  0.
        -24    2    5    5    0    0 -0.54140359275E+01 -0.11621910018E+03 -0.73448595670E+02  0.16456945867E+03  0.90289642210E+02 0.  0.
          5    1    3    3  501    0  0.10521698665E+02 -0.25396084753E+02 -0.17691955108E+03  0.17910411726E+03  0.47000000000E+01 0. -1.
        -11    1    4    4    0    0  0.15435590917E+02  0.72873262859E+01 -0.71308192623E+02  0.73322717670E+02  0.00000000000E+00 0.  1.
         12    1    4    4    0    0 -0.43457166391E+02  0.11304818915E+03 -0.15600225421E+03  0.19749714352E+03  0.00000000000E+00 0. -1.
         -5    1    5    5    0  502  0.22913912737E+02  0.21279669492E+02 -0.79914049195E+02  0.85943103210E+02  0.47000000000E+01 0.  1.
         13    1    6    6    0    0  0.33099196747E+02 -0.65505385472E+02 -0.68998928383E+02  0.10073412763E+03  0.00000000000E+00 0. -1.
        -14    1    6    6    0    0 -0.38513232675E+02 -0.50713714706E+02 -0.44496672866E+01  0.63835331043E+02  0.00000000000E+00 0.  1.
</event>
<event>
12    1  0.8196217E-002  0.1945633E+03  0.7818608E-02  0.1154591E+00
         21   -1    0    0  503  502  0.00000000000E+00  0.00000000000E+00  0.13742520529E+04  0.13742520529E+04  0.00000000000E+00 0.  1.
         21   -1    0    0  501  503 -0.00000000000E+00 -0.00000000000E+00 -0.30902273223E+02  0.30902273223E+02  0.00000000000E+00 0.  1.
          6    2    1    2  501    0 -0.83695215549E+02 -0.29151962029E+02  0.43484126184E+03  0.47604582350E+03  0.17227297256E+03 0.  0.
         24    2    3    3    0    0 -0.10118600915E+03  0.33652686059E+02  0.28187869039E+03  0.30970283463E+03  0.71338194206E+02 0.  0.
         -6    2    1    2    0  502  0.83695215549E+02  0.29151962029E+02  0.90850851781E+03  0.92910850260E+03  0.17320553302E+03 0.  0.
        -24    2    5    5    0    0 -0.98294578220E+01  0.41501702224E+02  0.60069343517E+03  0.60712776449E+03  0.77152510194E+02 0.  0.
          5    1    3    3  501    0  0.17490793601E+02 -0.62804648088E+02  0.15296257145E+03  0.16634298887E+03  0.47000000000E+01 0. -1.
        -13    1    4    4    0    0 -0.98982055816E+02  0.65394033490E+01  0.19689998836E+03  0.22047634019E+03  0.00000000000E+00 0.  1.
         14    1    4    4    0    0 -0.22039533340E+01  0.27113282710E+02  0.84978702038E+02  0.89226494438E+02  0.00000000000E+00 0. -1.
         -5    1    5    5    0  502  0.93524673371E+02 -0.12349740195E+02  0.30781508264E+03  0.32198073811E+03  0.47000000000E+01 0.  1.
         11    1    6    6    0    0 -0.39885513441E+02  0.20830864864E+02  0.21179532973E+03  0.21652261039E+03  0.00000000000E+00 0. -1.
        -12    1    6    6    0    0  0.30056055619E+02  0.20670837360E+02  0.38889810544E+03  0.39060515410E+03  0.00000000000E+00 0.  1.
</event>
<event>
12    1  0.8196217E-002  0.1807736E+03  0.7818608E-02  0.1167317E+00
         21   -1    0    0  501  502  0.00000000000E+00  0.00000000000E+00  0.13649809556E+03  0.13649809556E+03  0.00000000000E+00 0.  1.
         21   -1    0    0  502  503 -0.00000000000E+00 -0.00000000000E+00 -0.29399013317E+03  0.29399013317E+03  0.00000000000E+00 0.  1.
         -6    2    1    2    0  503  0.34042411244E+02  0.40436156967E+02 -0.17250275991E+03  0.24909247443E+03  0.17174367554E+03 0.  0.
        -24    2    3    3    0    0 -0.11358610554E+01 -0.14689672430E+02 -0.24455953073E+02  0.87177944748E+02  0.82370041601E+02 0.  0.
          6    2    1    2  501    0 -0.34042411244E+02 -0.40436156967E+02  0.15010722300E+02  0.18139575430E+03  0.17287315969E+03 0.  0.
         24    2    5    5    0    0 -0.66734801055E+02 -0.32320603393E+02 -0.45781397085E+02  0.11173639498E+03  0.69935188349E+02 0.  0.
          5    1    5    5  501    0  0.32692389810E+02 -0.81155535741E+01  0.60792119385E+02  0.69659359318E+02  0.47000000000E+01 0. -1.
        -11    1    6    6    0    0 -0.60977498009E+02  0.21031325103E+01 -0.46680689139E+02  0.76822946886E+02  0.00000000000E+00 0.  1.
         12    1    6    6    0    0 -0.57573030456E+01 -0.34423735903E+02  0.89929205345E+00  0.34913448098E+02  0.00000000000E+00 0. -1.
         -5    1    3    3    0  503  0.35178272300E+02  0.55125829396E+02 -0.14804680684E+03  0.16191452969E+03  0.47000000000E+01 0.  1.
         11    1    4    4    0    0  0.17865830019E+02 -0.44629220557E+02 -0.16599568156E+02  0.50857653040E+02  0.00000000000E+00 0. -1.
        -12    1    4    4    0    0 -0.19001691074E+02  0.29939548128E+02 -0.78563849164E+01  0.36320291708E+02  0.00000000000E+00 0.  1.
</event>
<event>
12    1  0.8196217E-002  0.1822132E+03  0.7818608E-02  0.1166869E+00
         21   -1    0    0  503  502  0.00000000000E+00  0.00000000000E+00  0.18765955537E+03  0.18765955537E+03  0.00000000000E+00 0. -1.
         21   -1    0    0  501  503 -0.00000000000E+00 -0.00000000000E+00 -0.17935635862E+03  0.17935635862E+03  0.00000000000E+00 0. -1.
          6    2    1    2  501    0  0.24057772833E+02  0.60014639428E+02 -0.32623595086E+02  0.18026302423E+03  0.16507551475E+03 0.  0.
         24    2    3    3    0    0  0.76943073697E+02  0.35735266217E+02 -0.38548188236E+02  0.12158139325E+03  0.78094984002E+02 0.  0.
         -6    2    1    2    0  502 -0.24057772833E+02 -0.60014639428E+02  0.40926791833E+02  0.18675288976E+03  0.17035582222E+03 0.  0.
        -24    2    5    5    0    0  0.48910155086E+02 -0.18433457826E+02  0.12864253061E+02  0.98079842840E+02  0.81988846355E+02 0.  0.
          5    1    3    3  501    0 -0.52885300864E+02  0.24279373211E+02  0.59245931503E+01  0.58681630984E+02  0.47000000000E+01 0. -1.
        -13    1    4    4    0    0  0.44544333548E+02 -0.21144087671E+02 -0.10761915615E+02  0.50468692497E+02  0.00000000000E+00 0.  1.
         14    1    4    4    0    0  0.32398740149E+02  0.56879353888E+02 -0.27786272621E+02  0.71112700751E+02  0.00000000000E+00 0. -1.
         -5    1    5    5    0  502 -0.72967927920E+02 -0.41581181602E+02  0.28062538772E+02  0.88673046923E+02  0.47000000000E+01 0.  1.
         13    1    6    6    0    0 -0.68604779230E+01  0.40610457489E+01  0.33550836818E+02  0.34485024302E+02  0.00000000000E+00 0. -1.
        -14    1    6    6    0    0  0.55770633009E+02 -0.22494503575E+02 -0.20686583757E+02  0.63594818538E+02  0.00000000000E+00 0.  1.
</event>
<event>
12    1  0.8196217E-002  0.2313408E+03  0.7818608E-02  0.1126157E+00
         21   -1    0    0  501  502  0.00000000000E+00  0.00000000000E+00  0.46615834245E+03  0.46615834245E+03  0.00000000000E+00 0.  1.
         21   -1    0    0  502  503 -0.00000000000E+00 -0.00000000000E+00 -0.11760903046E+03  0.11760903046E+03  0.00000000000E+00 0.  1.
         -6    2    1    2    0  503  0.65770628712E+02  0.13804004599E+03  0.11889047985E+03  0.25778925191E+03  0.17011620234E+03 0.  0.
        -24    2    3    3    0    0  0.21785915756E+02  0.32176811571E+02 -0.43216699366E+01  0.89429508405E+02  0.80430011900E+02 0.  0.
          6    2    1    2  501    0 -0.65770628712E+02 -0.13804004599E+03  0.22965883214E+03  0.32597812100E+03  0.17360220706E+03 0.  0.
         24    2    5    5    0    0 -0.67921176821E+02 -0.16303703269E+03  0.22921019332E+03  0.30044842304E+03  0.80855314599E+02 0.  0.
          5    1    5    5  501    0  0.21505481089E+01  0.24996986696E+02  0.44863881596E+00  0.25529697958E+02  0.47000000000E+01 0. -1.
        -13    1    6    6    0    0 -0.28478363581E+02 -0.12273789980E+03  0.20142050626E+03  0.23758331082E+03  0.00000000000E+00 0.  1.
         14    1    6    6    0    0 -0.39442813240E+02 -0.40299132892E+02  0.27789687066E+02  0.62865112228E+02  0.00000000000E+00 0. -1.
         -5    1    3    3    0  503  0.43984712956E+02  0.10586323442E+03  0.12321214979E+03  0.16835974350E+03  0.47000000000E+01 0.  1.
         11    1    4    4    0    0  0.14928588640E+02  0.46054810920E+02 -0.31776980313E+02  0.57911007982E+02  0.00000000000E+00 0. -1.
        -12    1    4    4    0    0  0.68573271161E+01 -0.13877999349E+02  0.27455310376E+02  0.31518500423E+02  0.00000000000E+00 0.  1.
</event>
<event>
12    1  0.8196217E-002  0.2761163E+03  0.7818608E-02  0.1097963E+00
         21   -1    0    0  503  502  0.00000000000E+00  0.00000000000E+00  0.37107008940E+03  0.37107008940E+03  0.00000000000E+00 0. -1.
         21   -1    0    0  501  503 -0.00000000000E+00 -0.00000000000E+00 -0.22830882719E+03  0.22830882719E+03  0.00000000000E+00 0. -1.
          6    2    1    2  501    0 -0.20424799361E+03  0.67909207150E+02 -0.24782447228E+02  0.27722618503E+03  0.17294879203E+03 0.  0.
         24    2    3    3    0    0 -0.36922423303E+02  0.54067428731E+02 -0.33442322265E+02  0.10904020242E+03  0.80528408861E+02 0.  0.
         -6    2    1    2    0  502  0.20424799361E+03 -0.67909207150E+02  0.16754370944E+03  0.32215273156E+03  0.17141349004E+03 0.  0.
        -24    2    5    5    0    0  0.18286892674E+03  0.40496319597E+01  0.10548527062E+03  0.22464130220E+03  0.76675474916E+02 0.  0.
          5    1    3    3  501    0 -0.16732557031E+03  0.13841778419E+02  0.86598750370E+01  0.16818598260E+03  0.47000000000E+01 0. -1.
        -11    1    4    4    0    0 -0.28447243287E+02  0.56927373696E+02  0.10234313846E+02  0.64457060952E+02  0.00000000000E+00 0.  1.
         12    1    4    4    0    0 -0.84751800156E+01 -0.28599449654E+01 -0.43676636110E+02  0.44583141471E+02  0.00000000000E+00 0. -1.
         -5    1    5    5    0  502  0.21379066874E+02 -0.71958839110E+02  0.62058438816E+02  0.97511429354E+02  0.47000000000E+01 0.  1.
         11    1    6    6    0    0  0.11363033437E+03 -0.17508623480E+02  0.99200359923E+02  0.15185228413E+03  0.00000000000E+00 0. -1.
        -12    1    6    6    0    0  0.69238592366E+02  0.21558255440E+02  0.62849106976E+01  0.72789018079E+02  0.00000000000E+00 0.  1.
</event>
<event>
12    1  0.8196217E-002  0.2306749E+03  0.7818608E-02  0.1126284E+00
         21   -1    0    0  501  502  0.00000000000E+00  0.00000000000E+00  0.44496946116E+02  0.44496946116E+02  0.00000000000E+00 0. -1.
         21   -1    0    0  502  503 -0.00000000000E+00 -0.00000000000E+00 -0.22781911287E+04  0.22781911287E+04  0.00000000000E+00 0.  1.
         -6    2    1    2    0  503  0.89492043618E+02  0.12379082487E+03 -0.19194749582E+04  0.19332860644E+04  0.17285224182E+03 0.  0.
        -24    2    3    3    0    0  0.17715652498E+02  0.51528913472E+02 -0.44350204474E+03  0.45379569086E+03  0.79166862318E+02 0.  0.
          6    2    1    2  501    0 -0.89492043618E+02 -0.12379082487E+03 -0.31421922435E+03  0.38940201037E+03  0.17195118649E+03 0.  0.
         24    2    5    5    0    0 -0.92123685533E+02 -0.42670279518E+02 -0.26475493801E+03  0.29423755251E+03  0.78568657337E+02 0.  0.
          5    1    5    5  501    0  0.26316419152E+01 -0.81120545349E+02 -0.49464286345E+02  0.95164457864E+02  0.47000000000E+01 0. -1.
        -13    1    6    6    0    0  0.12871625344E+02 -0.14757829511E+02 -0.35495932991E+02  0.40539283785E+02  0.00000000000E+00 0.  1.
         14    1    6    6    0    0 -0.10499531088E+03 -0.27912450007E+02 -0.22925900502E+03  0.25369826872E+03  0.00000000000E+00 0. -1.
         -5    1    3    3    0  503  0.71776391120E+02  0.72261911395E+02 -0.14759729135E+04  0.14794903736E+04  0.47000000000E+01 0.  1.
         11    1    4    4    0    0  0.14382381939E+02  0.61665073781E+02 -0.19413507407E+03  0.20420054167E+03  0.00000000000E+00 0. -1.
        -12    1    4    4    0    0  0.33332705587E+01 -0.10136160309E+02 -0.24936697067E+03  0.24959514919E+03  0.00000000000E+00 0.  1.
</event>
<event>
12    1  0.8196217E-002  0.1815558E+03  0.7818608E-02  0.1166330E+00
         21   -1    0    0  503  502  0.00000000000E+00  0.00000000000E+00  0.12347939867E+03  0.12347939867E+03  0.00000000000E+00 0. -1.
         21   -1    0    0  501  503 -0.00000000000E+00 -0.00000000000E+00 -0.74582129059E+03  0.74582129059E+03  0.00000000000E+00 0. -1.
          6    2    1    2  501    0  0.16892765419E+02  0.56306975494E+02 -0.65954073346E+03  0.68407344563E+03  0.17177502414E+03 0.  0.
         24    2    3    3    0    0  0.45471859611E+02  0.11465878688E+02 -0.57844406328E+03  0.58698457655E+03  0.88057948897E+02 0.  0.
         -6    2    1    2    0  502 -0.16892765419E+02 -0.56306975494E+02  0.37198841532E+02  0.18522724363E+03  0.17166693612E+03 0.  0.
        -24    2    5    5    0    0  0.28769870191E+02 -0.52841094055E+02  0.76274802468E+02  0.12484422161E+03  0.78411399212E+02 0.  0.
          5    1    3    3  501    0 -0.28579094191E+02  0.44841096806E+02 -0.81096670173E+02  0.97088869088E+02  0.47000000000E+01 0. -1.
        -13    1    4    4    0    0  0.21168100814E+02  0.14813136943E+02 -0.37810538568E+02  0.45794697782E+02  0.00000000000E+00 0.  1.
         14    1    4    4    0    0  0.24303758797E+02 -0.33472582549E+01 -0.54063352472E+03  0.54118987876E+03  0.00000000000E+00 0. -1.
         -5    1    5    5    0  502 -0.45662635610E+02 -0.34658814395E+01 -0.39075960935E+02  0.60383022018E+02  0.47000000000E+01 0.  1.
         13    1    6    6    0    0  0.19151706251E+01 -0.28404666142E+02  0.83151574699E+02  0.87890143429E+02  0.00000000000E+00 0. -1.
        -14    1    6    6    0    0  0.26854699566E+02 -0.24436427913E+02 -0.68767722311E+01  0.36954078181E+02  0.00000000000E+00 0.  1.
</event>
<event>
12    1  0.8196217E-002  0.1857423E+03  0.7818608E-02  0.1162558E+00
         21   -1    0    0  501  502  0.00000000000E+00  0.00000000000E+00  0.47110641303E+02  0.47110641303E+02  0.00000000000E+00 0. -1.
         21   -1    0    0  502  503 -0.00000000000E+00 -0.00000000000E+00 -0.84788251007E+03  0.84788251007E+03  0.00000000000E+00 0. -1.
         -6    2    1    2    0  503 -0.61150407152E+02  0.35650835973E+02 -0.56719095924E+03  0.59656349267E+03  0.17079830837E+03 0.  0.
        -24    2    3    3    0    0 -0.96886620777E+02  0.45643216858E+02 -0.51681399932E+03  0.53381914846E+03  0.79974076003E+02 0.  0.
          6    2    1    2  501    0  0.61150407152E+02 -0.35650835973E+02 -0.23358090953E+03  0.29842965871E+03  0.17172613517E+03 0.  0.
         24    2    5    5    0    0 -0.32603553929E+02 -0.28597010625E+02 -0.10291098855E+03  0.13738221253E+03  0.80015123638E+02 0.  0.
          5    1    5    5  501    0  0.93753961081E+02 -0.70538253476E+01 -0.13066992098E+03  0.16104744618E+03  0.47000000000E+01 0. -1.
        -11    1    6    6    0    0 -0.30823653687E+02 -0.37881667423E+02 -0.11327478066E+03  0.12335434442E+03  0.00000000000E+00 0.  1.
         12    1    6    6    0    0 -0.17799002416E+01  0.92846567973E+01  0.10363792116E+02  0.14027868111E+02  0.00000000000E+00 0. -1.
         -5    1    3    3    0  503  0.35736213625E+02 -0.99923808851E+01 -0.50376959917E+02  0.62744344211E+02  0.47000000000E+01 0.  1.
         11    1    4    4    0    0 -0.30312909200E+02  0.51595819144E+02 -0.33061442101E+03  0.33598645270E+03  0.00000000000E+00 0. -1.
        -12    1    4    4    0    0 -0.66573711576E+02 -0.59526022864E+01 -0.18619957831E+03  0.19783269576E+03  0.00000000000E+00 0.  1.
</event>
<event>
12    1  0.8196217E-002  0.1728275E+03  0.7818608E-02  0.1174996E+00
         21   -1    0    0  503  502  0.00000000000E+00  0.00000000000E+00  0.54652635847E+03  0.54652635847E+03  0.00000000000E+00 0. -1.
         21   -1    0    0  501  503 -0.00000000000E+00 -0.00000000000E+00 -0.56839377025E+03  0.56839377025E+03  0.00000000000E+00 0. -1.
          6    2    1    2  501    0  0.76303246810E+01 -0.17652774597E+02 -0.54095676463E+03  0.56781582683E+03  0.17149562587E+03 0.  0.
         24    2    3    3    0    0  0.56961095065E+02  0.16790447273E+02 -0.22543485079E+03  0.24657444009E+03  0.80321834420E+02 0.  0.
         -6    2    1    2    0  502 -0.76303246810E+01  0.17652774597E+02  0.51908935285E+03  0.54710430189E+03  0.17175423895E+03 0.  0.
        -24    2    5    5    0    0  0.56247188343E+02 -0.42302113297E+01  0.23003767441E+03  0.25023368268E+03  0.80733657251E+02 0.  0.
          5    1    3    3  501    0 -0.49330770383E+02 -0.34443221870E+02 -0.31552191384E+03  0.32124138674E+03  0.47000000000E+01 0. -1.
        -11    1    4    4    0    0  0.15470138709E+02  0.44920361408E+02 -0.83801898423E+02  0.96332353029E+02  0.00000000000E+00 0.  1.
         12    1    4    4    0    0  0.41490956355E+02 -0.28129914135E+02 -0.14163295237E+03  0.15024208706E+03  0.00000000000E+00 0. -1.
         -5    1    5    5    0  502 -0.63877513024E+02  0.21882985926E+02  0.28905167844E+03  0.29687061921E+03  0.47000000000E+01 0.  1.
         11    1    6    6    0    0  0.24214762387E+01  0.26283261318E+02  0.12965512470E+03  0.13231449177E+03  0.00000000000E+00 0. -1.
        -12    1    6    6    0    0  0.53825712104E+02 -0.30513472648E+02  0.10038254972E+03  0.11791919091E+03  0.00000000000E+00 0.  1.
</event>
<event>
12    1  0.8196217E-002  0.2071349E+03  0.7818608E-02  0.1144048E+00
         21   -1    0    0  501  502  0.00000000000E+00  0.00000000000E+00  0.27278687458E+02  0.27278687458E+02  0.00000000000E+00 0.  1.
         21   -1    0    0  502  503 -0.00000000000E+00 -0.00000000000E+00 -0.17015711397E+04  0.17015711397E+04  0.00000000000E+00 0.  1.
         -6    2    1    2    0  503 -0.77238445023E+02  0.82567710943E+02 -0.10832839105E+04  0.11029092829E+04  0.17355590233E+03 0.  0.
        -24    2    3    3    0    0 -0.72466901113E+02  0.11186453869E+03 -0.63707394349E+03  0.65568842423E+03  0.79366072273E+02 0.  0.
          6    2    1    2  501    0  0.77238445023E+02 -0.82567710943E+02 -0.59100854167E+03  0.62594054420E+03  0.17241596293E+03 0.  0.
         24    2    5    5    0    0  0.73290685070E+02 -0.60408778402E+02 -0.20495927426E+03  0.23920713478E+03  0.78682934604E+02 0.  0.
          5    1    5    5  501    0  0.39477599525E+01 -0.22158932541E+02 -0.38604926740E+03  0.38673340942E+03  0.47000000000E+01 0. -1.
        -13    1    6    6    0    0  0.12885332914E+01 -0.48705942661E+02 -0.63413756704E+02  0.79970205126E+02  0.00000000000E+00 0.  1.
         14    1    6    6    0    0  0.72002151779E+02 -0.11702835741E+02 -0.14154551756E+03  0.15923692966E+03  0.00000000000E+00 0. -1.
         -5    1    3    3    0  503 -0.47715439095E+01 -0.29296827750E+02 -0.44620996704E+03  0.44722085868E+03  0.47000000000E+01 0.  1.
         11    1    4    4    0    0 -0.21497639713E-01  0.64671025011E+01 -0.60331400317E+00  0.64952186025E+01  0.00000000000E+00 0. -1.
        -12    1    4    4    0    0 -0.72445403474E+02  0.10539743619E+03 -0.63647062949E+03  0.64919320563E+03  0.00000000000E+00 0.  1.
</event>
<event>
12    1  0.8196217E-002  0.2120419E+03  0.7818608E-02  0.1140212E+00
         21   -1    0    0  501  502  0.00000000000E+00  0.00000000000E+00  0.65345345938E+03  0.65345345938E+03  0.00000000000E+00 0. -1.
         21   -1    0    0  502  503 -0.00000000000E+00 -0.00000000000E+00 -0.20829298280E+03  0.20829298280E+03  0.00000000000E+00 0. -1.
         -6    2    1    2    0  503  0.10337524988E+03  0.67794567760E+02 -0.13032030977E+03  0.24888784598E+03  0.17227661197E+03 0.  0.
        -24    2    3    3    0    0 -0.70846069059E+01 -0.17248398400E+02 -0.50241936094E+02  0.88051525502E+02  0.69865013407E+02 0.  0.
          6    2    1    2  501    0 -0.10337524988E+03 -0.67794567760E+02  0.57548078635E+03  0.61285859620E+03  0.17068971197E+03 0.  0.
         24    2    5    5    0    0 -0.28408934591E+02 -0.96869898975E+02  0.39315775164E+03  0.41353699100E+03  0.79050492465E+02 0.  0.
          5    1    5    5  501    0 -0.74966315288E+02  0.29075331215E+02  0.18232303472E+03  0.19932160520E+03  0.47000000000E+01 0. -1.
        -11    1    6    6    0    0 -0.13946741372E+02 -0.20994138572E+02  0.19197671311E+02  0.31683055930E+02  0.00000000000E+00 0.  1.
         12    1    6    6    0    0 -0.14462193219E+02 -0.75875760403E+02  0.37396008032E+03  0.38185393507E+03  0.00000000000E+00 0. -1.
         -5    1    3    3    0  503  0.11045985678E+03  0.85042966160E+02 -0.80078373673E+02  0.16083632048E+03  0.47000000000E+01 0.  1.
         13    1    4    4    0    0  0.27529874464E+02  0.29940744134E+01 -0.36173485863E+02  0.45556333797E+02  0.00000000000E+00 0. -1.
        -14    1    4    4    0    0 -0.34614481370E+02 -0.20242472814E+02 -0.14068450231E+02  0.42495191705E+02  0.00000000000E+00 0.  1.
</event>
<event>
12    1  0.8196217E-002  0.1783304E+03  0.7818608E-02  0.1170412E+00
         21   -1    0    0  501  502  0.00000000000E+00  0.00000000000E+00  0.37616614010E+03  0.37616614010E+03  0.00000000000E+00 0. -1.
         21   -1    0    0  502  503 -0.00000000000E+00 -0.00000000000E+00 -0.14266889307E+03  0.14266889307E+03  0.00000000000E+00 0. -1.
         -6    2    1    2    0  503 -0.40379669430E+02  0.12352049641E+02 -0.52233098709E+02  0.18202119116E+03  0.16917543143E+03 0.  0.
        -24    2    3    3    0    0 -0.73506407600E+02  0.10069765155E+02 -0.82586573880E+02  0.13678831530E+03  0.79911882017E+02 0.  0.
          6    2    1    2  501    0  0.40379669430E+02 -0.12352049641E+02  0.28573034574E+03  0.33681384201E+03  0.17325888969E+03 0.  0.
         24    2    5    5    0    0 -0.74555260401E+01 -0.28986935928E+02  0.77440693402E+02  0.12240396668E+03  0.89943553080E+02 0.  0.
          5    1    5    5  501    0  0.47835195470E+02  0.16634886287E+02  0.20828965234E+03  0.21440987533E+03  0.47000000000E+01 0. -1.
        -11    1    6    6    0    0  0.36634477179E+02 -0.19831555446E+02  0.12715251554E+02  0.43555173420E+02  0.00000000000E+00 0.  1.
         12    1    6    6    0    0 -0.44090003219E+02 -0.91553804822E+01  0.64725441848E+02  0.78848793257E+02  0.00000000000E+00 0. -1.
         -5    1    3    3    0  503  0.33126738170E+02  0.22822844862E+01  0.30353475171E+02  0.45232875867E+02  0.47000000000E+01 0.  1.
         11    1    4    4    0    0 -0.43458164863E+02  0.44612223879E+02 -0.56528628843E+02  0.84109146302E+02  0.00000000000E+00 0. -1.
        -12    1    4    4    0    0 -0.30048242736E+02 -0.34542458724E+02 -0.26057945037E+02  0.52679168993E+02  0.00000000000E+00 0.  1.
</event>
<event>
12    1  0.8196217E-002  0.2014781E+03  0.7818608E-02  0.1148682E+00
         21   -1    0    0  503  502  0.00000000000E+00  0.00000000000E+00  0.32996336529E+03  0.32996336529E+03  0.00000000000E+00 0. -1.
         21   -1    0    0  501  503 -0.00000000000E+00 -0.00000000000E+00 -0.12393933559E+03  0.12393933559E+03  0.00000000000E+00 0. -1.
          6    2    1    2  501    0 -0.95934518777E+02  0.41808735696E+02  0.78672577104E+02  0.21629329365E+03  0.17216855757E+03 0.  0.
         24    2    3    3    0    0 -0.26426028755E+02  0.17229223644E+02 -0.26252522297E+02  0.87969682872E+02  0.77809312003E+02 0.  0.
         -6    2    1    2    0  502  0.95934518777E+02 -0.41808735696E+02  0.12735145260E+03  0.23760940724E+03  0.17113864453E+03 0.  0.
        -24    2    5    5    0    0  0.70264873913E+02 -0.71987858272E+01  0.31652799778E+01  0.10607585726E+03  0.79076503925E+02 0.  0.
          5    1    3    3  501    0 -0.69508490023E+02  0.24579512052E+02  0.10492509940E+03  0.12832361077E+03  0.47000000000E+01 0. -1.
        -13    1    4    4    0    0  0.27832261757E+02  0.51286373991E+01 -0.71767642130E+01  0.29196637832E+02  0.00000000000E+00 0.  1.
         14    1    4    4    0    0 -0.54258290512E+02  0.12100586245E+02 -0.19075758084E+02  0.58773045040E+02  0.00000000000E+00 0. -1.
         -5    1    5    5    0  502  0.25669644865E+02 -0.34609949868E+02  0.12418617263E+03  0.13153354997E+03  0.47000000000E+01 0.  1.
         13    1    6    6    0    0  0.60263683096E+02 -0.36727789062E+02 -0.11699397321E+02  0.71536828888E+02  0.00000000000E+00 0. -1.
        -14    1    6    6    0    0  0.10001190817E+02  0.29529003234E+02  0.14864677299E+02  0.34539028373E+02  0.00000000000E+00 0.  1.
</event>
<event>
12    1  0.8196217E-002  0.1818544E+03  0.7818608E-02  0.1167158E+00
         21   -1    0    0  503  502  0.00000000000E+00  0.00000000000E+00  0.25151463997E+03  0.25151463997E+03  0.00000000000E+00 0. -1.
         21   -1    0    0  501  503 -0.00000000000E+00 -0.00000000000E+00 -0.21654451723E+03  0.21654451723E+03  0.00000000000E+00 0. -1.
          6    2    1    2  501    0 -0.52272826076E+01  0.38466031936E+02 -0.13192825735E+03  0.22466881679E+03  0.17766274807E+03 0.  0.
         24    2    3    3    0    0  0.34363443695E+02 -0.15935206444E+02 -0.18578025215E+02  0.92770047002E+02  0.82621798170E+02 0.  0.
         -6    2    1    2    0  502  0.52272826076E+01 -0.38466031936E+02  0.16689838008E+03  0.24339034041E+03  0.17284914937E+03 0.  0.
        -24    2    5    5    0    0 -0.31530328768E+02 -0.81917087120E+02  0.99303289166E+02  0.15490134389E+03  0.80179251087E+02 0.  0.
          5    1    3    3  501    0 -0.39590726302E+02  0.54401238380E+02 -0.11335023213E+03  0.13189876979E+03  0.47000000000E+01 0. -1.
        -13    1    4    4    0    0  0.27956595815E+02  0.16144579891E+02 -0.41681024285E+02  0.52721214846E+02  0.00000000000E+00 0.  1.
         14    1    4    4    0    0  0.64068478799E+01 -0.32079786335E+02  0.23102999070E+02  0.40048832156E+02  0.00000000000E+00 0. -1.
         -5    1    5    5    0  502  0.36757611376E+02  0.43451055184E+02  0.67595090912E+02  0.88488996525E+02  0.47000000000E+01 0.  1.
         11    1    6    6    0    0 -0.20517321467E+02 -0.16604403857E+02  0.82427873715E+02  0.86550684993E+02  0.00000000000E+00 0. -1.
        -12    1    6    6    0    0 -0.11013007301E+02 -0.65312683262E+02  0.16875415451E+02  0.68350658895E+02  0.00000000000E+00 0.  1.
</event>
<event>
12    1  0.8196217E-002  0.2189761E+03  0.7818608E-02  0.1134826E+00
         21   -1    0    0  501  502  0.00000000000E+00  0.00000000000E+00  0.85557584909E+02  0.85557584909E+02  0.00000000000E+00 0. -1.
         21   -1    0    0  502  503 -0.00000000000E+00 -0.00000000000E+00 -0.57558789521E+03  0.57558789521E+03  0.00000000000E+00 0. -1.
         -6    2    1    2    0  503  0.56672827865E+02 -0.12266510744E+03 -0.18780920293E+03  0.28848363712E+03  0.17231359256E+03 0.  0.
        -24    2    3    3    0    0  0.78934296588E+02 -0.42424701946E+02 -0.80939154924E+02  0.15292039423E+03  0.93824419302E+02 0.  0.
          6    2    1    2  501    0 -0.56672827865E+02  0.12266510744E+03 -0.30222110737E+03  0.37266184300E+03  0.17111608190E+03 0.  0.
         24    2    5    5    0    0 -0.33314595243E+02  0.15350445763E+03 -0.26646500690E+03  0.31977270166E+03  0.81101788223E+02 0.  0.
          5    1    5    5  501    0 -0.23358232622E+02 -0.30839350187E+02 -0.35756100469E+02  0.52889141342E+02  0.47000000000E+01 0. -1.
        -11    1    6    6    0    0  0.22735701358E+02  0.35619816175E+02 -0.97473583240E+02  0.10623927170E+03  0.00000000000E+00 0.  1.
         12    1    6    6    0    0 -0.56050296600E+02  0.11788464145E+03 -0.16899142366E+03  0.21353342996E+03  0.00000000000E+00 0. -1.
         -5    1    3    3    0  503 -0.22261468723E+02 -0.80240405496E+02 -0.10687004801E+03  0.13556324290E+03  0.47000000000E+01 0.  1.
         11    1    4    4    0    0  0.31550028765E+02 -0.49787580182E+02 -0.11614097274E+00  0.58942522377E+02  0.00000000000E+00 0. -1.
        -12    1    4    4    0    0  0.47384267823E+02  0.73628782361E+01 -0.80823013951E+02  0.93977871849E+02  0.00000000000E+00 0.  1.
</event>
<event>
12    1  0.8196217E-002  0.2224838E+03  0.7818608E-02  0.1132410E+00
         21   -1    0    0  503  502  0.00000000000E+00  0.00000000000E+00  0.69702201910E+03  0.69702201910E+03  0.00000000000E+00 0. -1.
         21   -1    0    0  501  503 -0.00000000000E+00 -0.00000000000E+00 -0.77327952378E+02  0.77327952378E+02  0.00000000000E+00 0. -1.
          6    2    1    2  501    0  0.13777571401E+03  0.12301091408E+01  0.42711561932E+03  0.48158776115E+03  0.17468645879E+03 0.  0.
         24    2    3    3    0    0  0.63132037284E+01 -0.11472998342E+02  0.93931685844E+02  0.12315034112E+03  0.78557995653E+02 0.  0.
         -6    2    1    2    0  502 -0.13777571401E+03 -0.12301091408E+01  0.19257844740E+03  0.29276221033E+03  0.17216153129E+03 0.  0.
        -24    2    5    5    0    0 -0.54789043634E+02  0.33018583096E+01  0.20537723333E+02  0.10164071252E+03  0.83043932893E+02 0.  0.
          5    1    3    3  501    0  0.13146251028E+03  0.12703107483E+02  0.33318393348E+03  0.35843742003E+03  0.47000000000E+01 0. -1.
        -11    1    4    4    0    0  0.27347393480E+02  0.22776633357E+02  0.63285978883E+02  0.72606956144E+02  0.00000000000E+00 0.  1.
         12    1    4    4    0    0 -0.21034189752E+02 -0.34249631700E+02  0.30645706961E+02  0.50543384980E+02  0.00000000000E+00 0. -1.
         -5    1    5    5    0  502 -0.82986670372E+02 -0.45319674504E+01  0.17204072407E+03  0.19112149781E+03  0.47000000000E+01 0.  1.
         11    1    6    6    0    0 -0.72510203097E+02  0.14604548881E+02  0.28355284205E+02  0.79215178745E+02  0.00000000000E+00 0. -1.
        -12    1    6    6    0    0  0.17721159464E+02 -0.11302690571E+02 -0.78175608719E+01  0.22425533770E+02  0.00000000000E+00 0.  1.
</event>
<event>
12    1  0.8196217E-002  0.2268502E+03  0.7818608E-02  0.1129054E+00
         21   -1    0    0  503  502  0.00000000000E+00  0.00000000000E+00  0.27679162145E+04  0.27679162145E+04  0.00000000000E+00 0. -1.
         21   -1    0    0  501  503 -0.00000000000E+00 -0.00000000000E+00 -0.19639237159E+02  0.19639237159E+02  0.00000000000E+00 0.  1.
          6    2    1    2  501    0 -0.90595546479E+02 -0.11743151965E+03  0.17053760513E+04  0.17202676110E+04  0.17033925676E+03 0.  0.
         24    2    3    3    0    0 -0.32664700071E+02 -0.10600462264E+03  0.70430494575E+03  0.71744559029E+03  0.79867113138E+02 0.  0.
         -6    2    1    2    0  502  0.90595546479E+02  0.11743151965E+03  0.10429009260E+04  0.10672878406E+04  0.17164870622E+03 0.  0.
        -24    2    5    5    0    0  0.10199067140E+02  0.87952568007E+01  0.22766485692E+03  0.24091179432E+03  0.77626207267E+02 0.  0.
          5    1    3    3  501    0 -0.57930846408E+02 -0.11426897006E+02  0.10010711055E+04  0.10028220207E+04  0.47000000000E+01 0. -1.
        -11    1    4    4    0    0 -0.10703266348E+02 -0.98209031075E+00  0.93172302069E+01  0.14224457481E+02  0.00000000000E+00 0.  1.
         12    1    4    4    0    0 -0.21961433723E+02 -0.10502253233E+03  0.69498771554E+03  0.70322113281E+03  0.00000000000E+00 0. -1.
         -5    1    5    5    0  502  0.80396479339E+02  0.10863626285E+03  0.81523606913E+03  0.82637604631E+03  0.47000000000E+01 0.  1.
         13    1    6    6    0    0  0.17911428172E+02  0.73767770456E+01  0.23141161118E+03  0.23222095058E+03  0.00000000000E+00 0. -1.
        -14    1    6    6    0    0 -0.77123610317E+01  0.14184797551E+01 -0.37467542601E+01  0.86908437441E+01  0.00000000000E+00 0.  1.
</event>
<event>
12    1  0.8196217E-002  0.2185317E+03  0.7818608E-02  0.1135198E+00
         21   -1    0    0  501  502  0.00000000000E+00  0.00000000000E+00  0.49207009097E+03  0.49207009097E+03  0.00000000000E+00 0.  1.
         21   -1    0    0  502  503 -0.00000000000E+00 -0.00000000000E+00 -0.10482041485E+03  0.10482041485E+03  0.00000000000E+00 0. -1.
         -6    2    1    2    0  503  0.37128858213E+02  0.12631320485E+03  0.10929834761E+03  0.24331869611E+03  0.17298636147E+03 0.  0.
        -24    2    3    3    0    0  0.79779987817E+02  0.65713499020E+02  0.10649481071E+03  0.16901261949E+03  0.80876513458E+02 0.  0.
          6    2    1    2  501    0 -0.37128858213E+02 -0.12631320485E+03  0.27795132852E+03  0.35357180971E+03  0.17442048551E+03 0.  0.
         24    2    5    5    0    0 -0.83654444002E+02 -0.75675465483E+02  0.12586065165E+03  0.18659134747E+03  0.79060642790E+02 0.  0.
          5    1    5    5  501    0  0.46525585789E+02 -0.50637739365E+02  0.15209067687E+03  0.16698046224E+03  0.47000000000E+01 0. -1.
        -13    1    6    6    0    0  0.14943330892E+02 -0.16274125463E+02  0.14472433894E+02  0.26412149488E+02  0.00000000000E+00 0.  1.
         14    1    6    6    0    0 -0.98597774895E+02 -0.59401340020E+02  0.11138821776E+03  0.16017919798E+03  0.00000000000E+00 0. -1.
         -5    1    3    3    0  503 -0.42651129604E+02  0.60599705828E+02  0.28035368974E+01  0.74306076616E+02  0.47000000000E+01 0.  1.
         13    1    4    4    0    0 -0.68999473970E+01  0.40248974665E+02  0.30773217506E+02  0.51132965407E+02  0.00000000000E+00 0. -1.
        -14    1    4    4    0    0  0.86679935214E+02  0.25464524356E+02  0.75721593203E+02  0.11787965408E+03  0.00000000000E+00 0.  1.
</event>
<event>
12    1  0.8196217E-002  0.3151762E+03  0.7818608E-02  0.1077925E+00
         21   -1    0    0  501  502  0.00000000000E+00  0.00000000000E+00  0.23742955516E+03  0.23742955516E+03  0.00000000000E+00 0.  1.
         21   -1    0    0  502  503 -0.00000000000E+00 -0.00000000000E+00 -0.67307822211E+03  0.67307822211E+03  0.00000000000E+00 0. -1.
         -6    2    1    2    0  503  0.25216980028E+02 -0.26263255440E+03 -0.49802211288E+03  0.58921903051E+03  0.17187578737E+03 0.  0.
        -24    2    3    3    0    0 -0.39047287728E+02 -0.22215555765E+03 -0.33430865353E+03  0.40868518285E+03  0.66208159518E+02 0.  0.
          6    2    1    2  501    0 -0.25216980028E+02  0.26263255440E+03  0.62373445938E+02  0.32128874676E+03  0.17240724266E+03 0.  0.
         24    2    5    5    0    0  0.15676471914E-01  0.26557132077E+03  0.81658881198E+02  0.28904992986E+03  0.79709236682E+02 0.  0.
          5    1    5    5  501    0 -0.25232656500E+02 -0.29387663712E+01 -0.19285435260E+02  0.32238816898E+02  0.47000000000E+01 0. -1.
        -13    1    6    6    0    0 -0.39294529130E+02  0.11151556767E+03  0.32188317509E+02  0.12253925753E+03  0.00000000000E+00 0.  1.
         14    1    6    6    0    0  0.39310205602E+02  0.15405575310E+03  0.49470563689E+02  0.16651067232E+03  0.00000000000E+00 0. -1.
         -5    1    3    3    0  503  0.64264267756E+02 -0.40476996749E+02 -0.16371345936E+03  0.18053384766E+03  0.47000000000E+01 0.  1.
         11    1    4    4    0    0 -0.14647303747E+02 -0.10732145086E+03 -0.21800811115E+03  0.24343371551E+03  0.00000000000E+00 0. -1.
        -12    1    4    4    0    0 -0.24399983981E+02 -0.11483410679E+03 -0.11630054238E+03  0.16525146734E+03  0.00000000000E+00 0.  1.
</event>
<event>
12    1  0.8196217E-002  0.1836118E+03  0.7818608E-02  0.1164402E+00
         21   -1    0    0  503  502  0.00000000000E+00  0.00000000000E+00  0.88973391105E+02  0.88973391105E+02  0.00000000000E+00 0. -1.
         21   -1    0    0  501  503 -0.00000000000E+00 -0.00000000000E+00 -0.93385962723E+03  0.93385962723E+03  0.00000000000E+00 0. -1.
          6    2    1    2  501    0  0.60197365924E+02  0.24694870026E+02 -0.81673731570E+03  0.83707606017E+03  0.17147282053E+03 0.  0.
         24    2    3    3    0    0 -0.21223193917E+02  0.35364237544E+02 -0.27695366936E+03  0.29106175832E+03  0.79451613748E+02 0.  0.
         -6    2    1    2    0  502 -0.60197365924E+02 -0.24694870026E+02 -0.28148920427E+02  0.18575695817E+03  0.17169661126E+03 0.  0.
        -24    2    5    5    0    0 -0.10579702307E+03 -0.87449102849E+01 -0.89473625054E+01  0.13356002556E+03  0.80552725497E+02 0.  0.
          5    1    3    3  501    0  0.81420559841E+02 -0.10669367519E+02 -0.53978364634E+03  0.54601430185E+03  0.47000000000E+01 0. -1.
        -13    1    4    4    0    0  0.23810519165E+02 -0.96211930134E+01 -0.71396375228E+02  0.75874571324E+02  0.00000000000E+00 0.  1.
         14    1    4    4    0    0 -0.45033713081E+02  0.44985430558E+02 -0.20555729413E+03  0.21518718700E+03  0.00000000000E+00 0. -1.
         -5    1    5    5    0  502  0.45599657144E+02 -0.15949959741E+02 -0.19201557922E+02  0.52196932611E+02  0.47000000000E+01 0.  1.
         11    1    6    6    0    0  0.98700671693E+00  0.11218342218E+02  0.18367035909E+02  0.21544683624E+02  0.00000000000E+00 0. -1.
        -12    1    6    6    0    0 -0.10678402978E+03 -0.19963252503E+02 -0.27314398414E+02  0.11201534193E+03  0.00000000000E+00 0.  1.
</event>
<event>
12    1  0.8196217E-002  0.2862585E+03  0.7818608E-02  0.1092398E+00
         21   -1    0    0  503  502  0.00000000000E+00  0.00000000000E+00  0.31974566096E+03  0.31974566096E+03  0.00000000000E+00 0.  1.
         21   -1    0    0  501  503 -0.00000000000E+00 -0.00000000000E+00 -0.32067814412E+03  0.32067814412E+03  0.00000000000E+00 0. -1.
          6    2    1    2  501    0  0.15543575058E+03  0.16779856259E+03 -0.14455529235E+03  0.32015608188E+03  0.17113460800E+03 0.  0.
         24    2    3    3    0    0  0.15947826039E+03  0.10027747975E+03 -0.14734002328E+03  0.25229384467E+03  0.80338117455E+02 0.  0.
         -6    2    1    2    0  502 -0.15543575058E+03 -0.16779856259E+03  0.14362280919E+03  0.32026772319E+03  0.17212574773E+03 0.  0.
        -24    2    5    5    0    0 -0.39788210398E+01 -0.42120976328E+02  0.47657892990E+02  0.10125764960E+03  0.78688176835E+02 0.  0.
          5    1    3    3  501    0 -0.40425098032E+01  0.67521082843E+02  0.27847309334E+01  0.67862237218E+02  0.47000000000E+01 0. -1.
        -13    1    4    4    0    0  0.16884624709E+03  0.95668898256E+02 -0.14262039699E+03  0.24083639859E+03  0.00000000000E+00 0.  1.
         14    1    4    4    0    0 -0.93679867020E+01  0.46085814949E+01 -0.47196262858E+01  0.11457446073E+02  0.00000000000E+00 0. -1.
         -5    1    5    5    0  502 -0.15145692954E+03 -0.12567758627E+03  0.95964916195E+02  0.21901007360E+03  0.47000000000E+01 0.  1.
         13    1    6    6    0    0 -0.86761104157E+01 -0.35273630234E+02 -0.14084088772E+02  0.38959792586E+02  0.00000000000E+00 0. -1.
        -14    1    6    6    0    0  0.46972893759E+01 -0.68473460937E+01  0.61741981762E+02  0.62297857009E+02  0.00000000000E+00 0.  1.
</event>
<event>
12    1  0.8196217E-002  0.1862766E+03  0.7818608E-02  0.1162303E+00
         21   -1    0    0  503  502  0.00000000000E+00  0.00000000000E+00  0.13804258801E+03  0.13804258801E+03  0.00000000000E+00 0. -1.
         21   -1    0    0  501  503 -0.00000000000E+00 -0.00000000000E+00 -0.53009643221E+03  0.53009643221E+03  0.00000000000E+00 0. -1.
          6    2    1    2  501    0 -0.39508269219E+01 -0.67308855023E+02 -0.43890319239E+03  0.47606137936E+03  0.17161682209E+03 0.  0.
         24    2    3    3    0    0  0.41796698000E+02 -0.89604477590E+02 -0.33407323122E+03  0.35943658962E+03  0.88395767831E+02 0.  0.
         -6    2    1    2    0  502  0.39508269219E+01  0.67308855023E+02  0.46849348184E+02  0.19207764087E+03  0.17364581106E+03 0.  0.
        -24    2    5    5    0    0  0.60271663003E+02  0.48252829920E+02  0.66850830984E+02  0.12917042360E+03  0.79088278363E+02 0.  0.
          5    1    3    3  501    0 -0.45747524922E+02  0.22295622567E+02 -0.10482996117E+03  0.11662478973E+03  0.47000000000E+01 0. -1.
        -11    1    4    4    0    0  0.12866076100E+02 -0.54483482059E+02 -0.61794475129E+02  0.83381909836E+02  0.00000000000E+00 0.  1.
         12    1    4    4    0    0  0.28930621900E+02 -0.35120995531E+02 -0.27227875609E+03  0.27605467978E+03  0.00000000000E+00 0. -1.
         -5    1    5    5    0  502 -0.56320836081E+02  0.19056025102E+02 -0.20001482800E+02  0.62907217263E+02  0.47000000000E+01 0.  1.
         11    1    6    6    0    0  0.11951337703E+02 -0.55064594282E+01  0.54217061186E+02  0.55791086134E+02  0.00000000000E+00 0. -1.
        -12    1    6    6    0    0  0.48320325299E+02  0.53759289349E+02  0.12633769798E+02  0.73379337470E+02  0.00000000000E+00 0.  1.
</event>
<event>
12    1  0.8196217E-002  0.2652609E+03  0.7818608E-02  0.1104052E+00
         21   -1    0    0  501  502  0.00000000000E+00  0.00000000000E+00  0.67837350932E+03  0.67837350932E+03  0.00000000000E+00 0. -1.
         21   -1    0    0  502  503 -0.00000000000E+00 -0.00000000000E+00 -0.10368902257E+03  0.10368902257E+03  0.00000000000E+00 0.  1.
         -6    2    1    2    0  503  0.17472797377E+03  0.10021754568E+03  0.27943259230E+03  0.38528677619E+03  0.17259752311E+03 0.  0.
        -24    2    3    3    0    0  0.75817431228E+02  0.36120605695E+02  0.22920887375E+03  0.25708293441E+03  0.80634647178E+02 0.  0.
          6    2    1    2  501    0 -0.17472797377E+03 -0.10021754568E+03  0.29525189445E+03  0.39677575570E+03  0.17229015600E+03 0.  0.
         24    2    5    5    0    0 -0.15965303512E+03 -0.66026742419E+02  0.30406167556E+03  0.35809802250E+03  0.77019924939E+02 0.  0.
          5    1    5    5  501    0 -0.15074938650E+02 -0.34190803257E+02 -0.88097811036E+01  0.38677733204E+02  0.47000000000E+01 0. -1.
        -11    1    6    6    0    0 -0.30213383039E+02  0.12266201008E+02  0.26619729797E+02  0.42094158933E+02  0.00000000000E+00 0.  1.
         12    1    6    6    0    0 -0.12943965208E+03 -0.78292943427E+02  0.27744194576E+03  0.31600386357E+03  0.00000000000E+00 0. -1.
         -5    1    3    3    0  503  0.98910542544E+02  0.64096939981E+02  0.50223718550E+02  0.12820384178E+03  0.47000000000E+01 0.  1.
         13    1    4    4    0    0  0.37596407485E+02  0.60388300549E+02  0.13798424304E+03  0.15524138632E+03  0.00000000000E+00 0. -1.
        -14    1    4    4    0    0  0.38221023743E+02 -0.24267694854E+02  0.91224630705E+02  0.10184154809E+03  0.00000000000E+00 0.  1.
</event>
<event>
12    1  0.8196217E-002  0.1848093E+03  0.7818608E-02  0.1164225E+00
         21   -1    0    0  503  502  0.00000000000E+00  0.00000000000E+00  0.60176265791E+03  0.60176265791E+03  0.00000000000E+00 0.  1.
         21   -1    0    0  501  503 -0.00000000000E+00 -0.00000000000E+00 -0.70164078274E+02  0.70164078274E+02  0.00000000000E+00 0.  1.
          6    2    1    2  501    0 -0.16126308163E+02  0.54336015713E+02  0.11448797470E+03  0.21739822153E+03  0.17590346771E+03 0.  0.
         24    2    3    3    0    0 -0.91400038609E+01  0.10134165014E+03  0.55325946760E+02  0.14136813757E+03  0.81057511753E+02 0.  0.
         -6    2    1    2    0  502  0.16126308163E+02 -0.54336015713E+02  0.41711060493E+03  0.45452851466E+03  0.17147143632E+03 0.  0.
        -24    2    5    5    0    0 -0.19808050371E+02 -0.64066604727E+02  0.40002226072E+03  0.41329668237E+03  0.79369073875E+02 0.  0.
          5    1    3    3  501    0 -0.69863043025E+01 -0.47005634427E+02  0.59162027945E+02  0.76030083955E+02  0.47000000000E+01 0. -1.
        -13    1    4    4    0    0  0.25440578104E+02  0.30887028298E+01  0.71517130624E+01  0.26606579998E+02  0.00000000000E+00 0.  1.
         14    1    4    4    0    0 -0.34580581965E+02  0.98252947310E+02  0.48174233697E+02  0.11476155757E+03  0.00000000000E+00 0. -1.
         -5    1    5    5    0  502  0.35934358534E+02  0.97305890138E+01  0.17088344213E+02  0.41231832287E+02  0.47000000000E+01 0.  1.
         13    1    6    6    0    0  0.30366242391E+01 -0.66248111324E+02  0.17562444820E+03  0.18772847452E+03  0.00000000000E+00 0. -1.
        -14    1    6    6    0    0 -0.22844674610E+02  0.21815065968E+01  0.22439781252E+03  0.22556820785E+03  0.00000000000E+00 0.  1.
</event>
<event>
12    1  0.8196217E-002  0.1790822E+03  0.7818608E-02  0.1169615E+00
         21   -1    0    0  501  502  0.00000000000E+00  0.00000000000E+00  0.11854468657E+03  0.11854468657E+03  0.00000000000E+00 0.  1.
         21   -1    0    0  502  503 -0.00000000000E+00 -0.00000000000E+00 -0.27220433352E+03  0.27220433352E+03  0.00000000000E+00 0.  1.
         -6    2    1    2    0  503 -0.39636264748E+02 -0.71367547982E+01 -0.10957945592E+03  0.20994786524E+03  0.17449493461E+03 0.  0.
        -24    2    3    3    0    0 -0.36596372203E+02  0.63177563046E+02 -0.74745129409E+02  0.13127852849E+03  0.79476529497E+02 0.  0.
          6    2    1    2  501    0  0.39636264748E+02  0.71367547982E+01 -0.44080191020E+02  0.18080115486E+03  0.17065763272E+03 0.  0.
         24    2    5    5    0    0  0.22413277111E+02 -0.36594694521E+02 -0.79345281481E+02  0.12185382610E+03  0.81921636843E+02 0.  0.
          5    1    5    5  501    0  0.17222987637E+02  0.43731449319E+02  0.35265090461E+02  0.58947328760E+02  0.47000000000E+01 0. -1.
        -11    1    6    6    0    0 -0.21030146469E+02 -0.21996062295E+02 -0.68208694094E+02  0.74689488999E+02  0.00000000000E+00 0.  1.
         12    1    6    6    0    0  0.43443423579E+02 -0.14598632226E+02 -0.11136587388E+02  0.47164337097E+02  0.00000000000E+00 0. -1.
         -5    1    3    3    0  503 -0.30398925444E+01 -0.70314317844E+02 -0.34834326516E+02  0.78669336748E+02  0.47000000000E+01 0.  1.
         11    1    4    4    0    0 -0.29275170246E+02  0.11135662745E+02  0.88393419742E+01  0.32544931160E+02  0.00000000000E+00 0. -1.
        -12    1    4    4    0    0 -0.73212019577E+01  0.52041900301E+02 -0.83584471383E+02  0.98733597329E+02  0.00000000000E+00 0.  1.
</event>
<event>
12    1  0.8196217E-002  0.1999857E+03  0.7818608E-02  0.1149975E+00
         21   -1    0    0  503  502  0.00000000000E+00  0.00000000000E+00  0.39211386144E+03  0.39211386144E+03  0.00000000000E+00 0.  1.
         21   -1    0    0  501  503 -0.00000000000E+00 -0.00000000000E+00 -0.13045506597E+03  0.13045506597E+03  0.00000000000E+00 0.  1.
          6    2    1    2  501    0 -0.72875665117E+02  0.68839938254E+02  0.79145649018E+01  0.20014229722E+03  0.17304478939E+03 0.  0.
         24    2    3    3    0    0 -0.29513989727E+02  0.45550872267E+02 -0.63106706940E+02  0.11360486867E+03  0.77315277727E+02 0.  0.
         -6    2    1    2    0  502  0.72875665117E+02 -0.68839938254E+02  0.25374423057E+03  0.32242663018E+03  0.17182257604E+03 0.  0.
        -24    2    5    5    0    0  0.81241368970E+02  0.14492187932E+02  0.14257289698E+03  0.18315932006E+03  0.80063237683E+02 0.  0.
          5    1    3    3  501    0 -0.43361675390E+02  0.23289065988E+02  0.71021271842E+02  0.86537428557E+02  0.47000000000E+01 0. -1.
        -11    1    4    4    0    0  0.24460367051E+02  0.22064079265E+02 -0.10266830663E+02  0.34504216582E+02  0.00000000000E+00 0.  1.
         12    1    4    4    0    0 -0.53974356779E+02  0.23486793001E+02 -0.52839876277E+02  0.79100652084E+02  0.00000000000E+00 0. -1.
         -5    1    5    5    0  502 -0.83657038531E+01 -0.83332126187E+02  0.11117133359E+03  0.13926731012E+03  0.47000000000E+01 0.  1.
         11    1    6    6    0    0  0.56486296630E+02 -0.29160932623E+02  0.66247006385E+02  0.91813547766E+02  0.00000000000E+00 0. -1.
        -12    1    6    6    0    0  0.24755072340E+02  0.43653120556E+02  0.76325890592E+02  0.91345772292E+02  0.00000000000E+00 0.  1.
</event>
<event>
12    1  0.8196217E-002  0.1809895E+03  0.7818608E-02  0.1168369E+00
         21   -1    0    0  501  502  0.00000000000E+00  0.00000000000E+00  0.15982366396E+02  0.15982366396E+02  0.00000000000E+00 0. -1.
         21   -1    0    0  502  503 -0.00000000000E+00 -0.00000000000E+00 -0.24329941896E+04  0.24329941896E+04  0.00000000000E+00 0.  1.
         -6    2    1    2    0  503  0.23096535689E+02  0.27861708551E+02 -0.17197168793E+04  0.17285756716E+04  0.17099117718E+03 0.  0.
        -24    2    3    3    0    0  0.27987236669E+01 -0.46070994008E+02 -0.70701819291E+03  0.71296808738E+03  0.79488358699E+02 0.  0.
          6    2    1    2  501    0 -0.23096535689E+02 -0.27861708551E+02 -0.69729494386E+03  0.72040088437E+03  0.17733434722E+03 0.  0.
         24    2    5    5    0    0  0.41450295320E+02  0.27835786325E+02 -0.31706566221E+03  0.33070240997E+03  0.79627205289E+02 0.  0.
          5    1    5    5  501    0 -0.64546831009E+02 -0.55697494876E+02 -0.38022928164E+03  0.38969847440E+03  0.47000000000E+01 0. -1.
        -11    1    6    6    0    0  0.14843753040E+01  0.13932843398E+02 -0.36990738052E+01  0.14491743933E+02  0.00000000000E+00 0.  1.
         12    1    6    6    0    0  0.39965920016E+02  0.13902942928E+02 -0.31336658841E+03  0.31621066603E+03  0.00000000000E+00 0. -1.
         -5    1    3    3    0  503  0.20297812022E+02  0.73932702558E+02 -0.10126986864E+04  0.10156075843E+04  0.47000000000E+01 0.  1.
         11    1    4    4    0    0  0.29597266422E+02 -0.44144176847E+01 -0.11322930605E+03  0.11711686903E+03  0.00000000000E+00 0. -1.
        -12    1    4    4    0    0 -0.26798542756E+02 -0.41656576323E+02 -0.59378888686E+03  0.59585121835E+03  0.00000000000E+00 0.  1.
</event>
<event>
12    1  0.8196217E-002  0.1845168E+03  0.7818608E-02  0.1163634E+00
         21   -1    0    0  501  502  0.00000000000E+00  0.00000000000E+00  0.68652262830E+03  0.68652262830E+03  0.00000000000E+00 0.  1.
         21   -1    0    0  502  503 -0.00000000000E+00 -0.00000000000E+00 -0.93053834281E+02  0.93053834281E+02  0.00000000000E+00 0. -1.
         -6    2    1    2    0  503 -0.24960022213E+02 -0.61452224444E+02  0.30125745187E+02  0.18695989943E+03  0.17218323052E+03 0.  0.
        -24    2    3    3    0    0  0.38232345570E+02 -0.28347219795E+01 -0.14418881939E+02  0.89822878951E+02  0.79940587502E+02 0.  0.
          6    2    1    2  501    0  0.24960022213E+02  0.61452224444E+02  0.56334304883E+03  0.59261656315E+03  0.17157978220E+03 0.  0.
         24    2    5    5    0    0  0.51972217776E+02  0.65380119577E+02  0.54974963962E+03  0.56176274907E+03  0.79856424442E+02 0.  0.
          5    1    5    5  501    0 -0.27012195563E+02 -0.39278951334E+01  0.13593409206E+02  0.30853814077E+02  0.47000000000E+01 0. -1.
        -13    1    6    6    0    0 -0.17179020545E+01  0.61285015872E+02  0.31583370698E+03  0.32172928810E+03  0.00000000000E+00 0.  1.
         14    1    6    6    0    0  0.53690119831E+02  0.40951037052E+01  0.23391593264E+03  0.24003346097E+03  0.00000000000E+00 0. -1.
         -5    1    3    3    0  503 -0.63192367783E+02 -0.58617502464E+02  0.44544627125E+02  0.97137020476E+02  0.47000000000E+01 0.  1.
         13    1    4    4    0    0  0.60657936990E+02 -0.10129005015E+02  0.12488261731E+01  0.61510500155E+02  0.00000000000E+00 0. -1.
        -14    1    4    4    0    0 -0.22425591421E+02  0.72942830360E+01 -0.15667708112E+02  0.28312378795E+02  0.00000000000E+00 0.  1.
</event>
<event>
12    1  0.8196217E-002  0.3451345E+03  0.7818608E-02  0.1064801E+00
         21   -1    0    0  501  502  0.00000000000E+00  0.00000000000E+00  0.53620812539E+03  0.53620812539E+03  0.00000000000E+00 0.  1.
         21   -1    0    0  502  503 -0.00000000000E+00 -0.00000000000E+00 -0.41654735072E+03  0.41654735072E+03  0.00000000000E+00 0. -1.
         -6    2    1    2    0  503  0.87532699722E+01  0.29628232619E+03 -0.26656122517E+03  0.43479287812E+03  0.17358030865E+03 0.  0.
        -24    2    3    3    0    0  0.48222583118E+02  0.12036553180E+03 -0.17593458549E+03  0.23295179447E+03  0.80624322675E+02 0.  0.
          6    2    1    2  501    0 -0.87532699722E+01 -0.29628232619E+03  0.38622199984E+03  0.51796259799E+03  0.17679927377E+03 0.  0.
         24    2    5    5    0    0 -0.76104945761E+00 -0.18387156825E+03  0.34273785426E+03  0.39707829377E+03  0.79953748104E+02 0.  0.
          5    1    5    5  501    0 -0.79922205145E+01 -0.11241075794E+03  0.43484145585E+02  0.12088430422E+03  0.47000000000E+01 0. -1.
        -13    1    6    6    0    0  0.39675506124E+01 -0.18923254985E+03  0.34053044370E+03  0.38959682040E+03  0.00000000000E+00 0.  1.
         14    1    6    6    0    0 -0.47286000700E+01  0.53609816066E+01  0.22074105637E+01  0.74814733713E+01  0.00000000000E+00 0. -1.
         -5    1    3    3    0  503 -0.39469313146E+02  0.17591679439E+03 -0.90626639678E+02  0.20184108364E+03  0.47000000000E+01 0.  1.
         11    1    4    4    0    0  0.59151361426E+02  0.12658017313E+03 -0.16567430209E+03  0.21672424451E+03  0.00000000000E+00 0. -1.
        -12    1    4    4    0    0 -0.10928778308E+02 -0.62146413265E+01 -0.10260283404E+02  0.16227549958E+02  0.00000000000E+00 0.  1.
</event>
<event>
12    1  0.8196217E-002  0.1808877E+03  0.7818608E-02  0.1167329E+00
         21   -1    0    0  503  502  0.00000000000E+00  0.00000000000E+00  0.51916559775E+02  0.51916559775E+02  0.00000000000E+00 0.  1.
         21   -1    0    0  501  503 -0.00000000000E+00 -0.00000000000E+00 -0.72862775141E+03  0.72862775141E+03  0.00000000000E+00 0.  1.
          6    2    1    2  501    0 -0.42512760531E+02  0.28861356294E+02 -0.18971929981E+03  0.26104316056E+03  0.17178418512E+03 0.  0.
         24    2    3    3    0    0 -0.47409354675E+02 -0.32222395260E+02 -0.17178962746E+03  0.19702156663E+03  0.77587962652E+02 0.  0.
         -6    2    1    2    0  502  0.42512760531E+02 -0.28861356294E+02 -0.48699189183E+03  0.51950115063E+03  0.17343595389E+03 0.  0.
        -24    2    5    5    0    0  0.54566234539E+02  0.41381472497E+02 -0.22006559102E+03  0.24318415640E+03  0.77587172643E+02 0.  0.
          5    1    3    3  501    0  0.48965941437E+01  0.61083751554E+02 -0.17929672347E+02  0.64021593924E+02  0.47000000000E+01 0. -1.
        -11    1    4    4    0    0 -0.50119238542E+02 -0.54048189332E+02 -0.12113789545E+03  0.14180103863E+03  0.00000000000E+00 0.  1.
         12    1    4    4    0    0  0.27098838669E+01  0.21825794072E+02 -0.50651732004E+02  0.55220527999E+02  0.00000000000E+00 0. -1.
         -5    1    5    5    0  502 -0.12053474008E+02 -0.70242828791E+02 -0.26692630081E+03  0.27631699422E+03  0.47000000000E+01 0.  1.
         11    1    6    6    0    0  0.56135886943E+02  0.43350126886E+02 -0.97372554882E+02  0.12046528856E+03  0.00000000000E+00 0. -1.
        -12    1    6    6    0    0 -0.15696524035E+01 -0.19686543891E+01 -0.12269303614E+03  0.12271886784E+03  0.00000000000E+00 0.  1.
</event>
<event>
12    1  0.8196217E-002  0.1801510E+03  0.7818608E-02  0.1168094E+00
         21   -1    0    0  501  502  0.00000000000E+00  0.00000000000E+00  0.29438744846E+03  0.29438744846E+03  0.00000000000E+00 0. -1.
         21   -1    0    0  502  503 -0.00000000000E+00 -0.00000000000E+00 -0.17008602206E+03  0.17008602206E+03  0.00000000000E+00 0. -1.
         -6    2    1    2    0  503 -0.61694587979E+01  0.45589945214E+02 -0.77058255472E+02  0.19428815857E+03  0.17231775444E+03 0.  0.
        -24    2    3    3    0    0  0.49694952315E+02 -0.12247189537E+02 -0.60395276866E+02  0.11203421373E+03  0.79274798271E+02 0.  0.
          6    2    1    2  501    0  0.61694587979E+01 -0.45589945214E+02  0.20135968187E+03  0.27018531195E+03  0.17417771380E+03 0.  0.
         24    2    5    5    0    0  0.76367097541E+01  0.38452956186E+02  0.68379056130E+02  0.11279630686E+03  0.80686816450E+02 0.  0.
          5    1    5    5  501    0 -0.14672509561E+01 -0.84042901400E+02  0.13298062574E+03  0.15738900509E+03  0.47000000000E+01 0. -1.
        -13    1    6    6    0    0  0.24336600441E+02  0.58648065028E+02  0.47897887742E+02  0.79536616112E+02  0.00000000000E+00 0.  1.
         14    1    6    6    0    0 -0.16699890687E+02 -0.20195108842E+02  0.20481168388E+02  0.33259690748E+02  0.00000000000E+00 0. -1.
         -5    1    3    3    0  503 -0.55864411113E+02  0.57837134752E+02 -0.16662978606E+02  0.82253944837E+02  0.47000000000E+01 0.  1.
         13    1    4    4    0    0  0.60564438775E+02  0.15004392671E+02 -0.28188399811E+02  0.68467283628E+02  0.00000000000E+00 0. -1.
        -14    1    4    4    0    0 -0.10869486460E+02 -0.27251582208E+02 -0.32206877055E+02  0.43566930100E+02  0.00000000000E+00 0.  1.
</event>
<event>
12    1  0.8196217E-002  0.2603593E+03  0.7818608E-02  0.1106976E+00
         21   -1    0    0  501  502  0.00000000000E+00  0.00000000000E+00  0.39622780795E+03  0.39622780795E+03  0.00000000000E+00 0.  1.
         21   -1    0    0  502  503 -0.00000000000E+00 -0.00000000000E+00 -0.17095073115E+03  0.17095073115E+03  0.00000000000E+00 0. -1.
         -6    2    1    2    0  503  0.41871136849E+02 -0.18996969582E+03  0.10634865513E+03  0.28094276684E+03  0.17256049479E+03 0.  0.
        -24    2    3    3    0    0  0.63917868246E+02 -0.14265231060E+03  0.15663388786E+02  0.17620069868E+03  0.79788275256E+02 0.  0.
          6    2    1    2  501    0 -0.41871136849E+02  0.18996969582E+03  0.11892842166E+03  0.28623577226E+03  0.17304701792E+03 0.  0.
         24    2    5    5    0    0 -0.76749808988E+02  0.17817305160E+03  0.13111400055E+03  0.24716838282E+03  0.79152756310E+02 0.  0.
          5    1    5    5  501    0  0.34878672139E+02  0.11796644219E+02 -0.12185578881E+02  0.39067389440E+02  0.47000000000E+01 0. -1.
        -11    1    6    6    0    0  0.26592347564E+01  0.32975404829E+02 -0.42650112162E+01  0.33356246399E+02  0.00000000000E+00 0.  1.
         12    1    6    6    0    0 -0.79409043745E+02  0.14519764677E+03  0.13537901176E+03  0.21381213642E+03  0.00000000000E+00 0. -1.
         -5    1    3    3    0  503 -0.22046731396E+02 -0.47317385224E+02  0.90685266349E+02  0.10474206816E+03  0.47000000000E+01 0.  1.
         13    1    4    4    0    0  0.74861752804E+02 -0.90173442946E+02  0.29462715465E+02  0.12084528724E+03  0.00000000000E+00 0. -1.
        -14    1    4    4    0    0 -0.10943884558E+02 -0.52478867653E+02 -0.13799326679E+02  0.55355411444E+02  0.00000000000E+00 0.  1.
</event>
<event>
12    1  0.8196217E-002  0.2230296E+03  0.7818608E-02  0.1131866E+00
         21   -1    0    0  501  502  0.00000000000E+00  0.00000000000E+00  0.52576880410E+02  0.52576880410E+02  0.00000000000E+00 0.  1.
         21   -1    0    0  502  503 -0.00000000000E+00 -0.00000000000E+00 -0.20659144000E+04  0.20659144000E+04  0.00000000000E+00 0. -1.
         -6    2    1    2    0  503 -0.79035218421E+02 -0.11614920104E+03 -0.17895551518E+04  0.18033995210E+04  0.17321948017E+03 0.  0.
        -24    2    3    3    0    0 -0.11474383828E+03 -0.71182875963E+02 -0.10662061387E+04  0.10777598304E+04  0.80855249613E+02 0.  0.
          6    2    1    2  501    0  0.79035218421E+02  0.11614920104E+03 -0.22378236772E+03  0.31509175935E+03  0.17165973918E+03 0.  0.
         24    2    5    5    0    0  0.57978787030E+02  0.14666334880E+03 -0.14995724333E+03  0.23234681686E+03  0.81401418002E+02 0.  0.
          5    1    5    5  501    0  0.21056431391E+02 -0.30514147759E+02 -0.73825124393E+02  0.82744942492E+02  0.47000000000E+01 0. -1.
        -13    1    6    6    0    0 -0.14666196921E+02  0.21171852212E+02 -0.49960024801E+02  0.56208084261E+02  0.00000000000E+00 0.  1.
         14    1    6    6    0    0  0.72644983951E+02  0.12549149659E+03 -0.99997218526E+02  0.17613873260E+03  0.00000000000E+00 0. -1.
         -5    1    3    3    0  503  0.35708619862E+02 -0.44966325076E+02 -0.72334901311E+03  0.72563969068E+03  0.47000000000E+01 0.  1.
         13    1    4    4    0    0 -0.38715175174E+02 -0.71337350553E+02 -0.52384602026E+03  0.53009672260E+03  0.00000000000E+00 0. -1.
        -14    1    4    4    0    0 -0.76028663109E+02  0.15447459078E+00 -0.54236011848E+03  0.54766310775E+03  0.00000000000E+00 0.  1.
</event>
<event>
12    1  0.8196217E-002  0.2930939E+03  0.7818608E-02  0.1088831E+00
         21   -1    0    0  503  502  0.00000000000E+00  0.00000000000E+00  0.80022463944E+03  0.80022463944E+03  0.00000000000E+00 0.  1.
         21   -1    0    0  501  503 -0.00000000000E+00 -0.00000000000E+00 -0.19812035199E+03  0.19812035199E+03  0.00000000000E+00 0. -1.
          6    2    1    2  501    0 -0.22814952107E+03  0.66315838456E+02 -0.37469068646E+02  0.29481239245E+03  0.17047117423E+03 0.  0.
         24    2    3    3    0    0 -0.14275800233E+03 -0.10939414769E+02 -0.65330435753E+02  0.17624413616E+03  0.79337328348E+02 0.  0.
         -6    2    1    2    0  502  0.22814952107E+03 -0.66315838456E+02  0.63957335610E+03  0.70353259898E+03  0.17162180979E+03 0.  0.
        -24    2    5    5    0    0  0.12037552893E+03 -0.72768360636E+02  0.51260370472E+03  0.53679852688E+03  0.74863863782E+02 0.  0.
          5    1    3    3  501    0 -0.85391518738E+02  0.77255253225E+02  0.27861367108E+02  0.11856825629E+03  0.47000000000E+01 0. -1.
        -13    1    4    4    0    0  0.40116317470E+01  0.22493158806E+01  0.98076859286E+01  0.10832511919E+02  0.00000000000E+00 0.  1.
         14    1    4    4    0    0 -0.14676963408E+03 -0.13188730650E+02 -0.75138121682E+02  0.16541162424E+03  0.00000000000E+00 0. -1.
         -5    1    5    5    0  502  0.10777399214E+03  0.64525221802E+01  0.12696965138E+03  0.16673407209E+03  0.47000000000E+01 0.  1.
         11    1    6    6    0    0 -0.33479760979E+01 -0.27151446849E+02  0.96206921378E+02  0.10002090647E+03  0.00000000000E+00 0. -1.
        -12    1    6    6    0    0  0.12372350503E+03 -0.45616913787E+02  0.41639678334E+03  0.43677762041E+03  0.00000000000E+00 0.  1.
</event>
<event>
12    1  0.8196217E-002  0.2435021E+03  0.7818608E-02  0.1117763E+00
         21   -1    0    0  503  502  0.00000000000E+00  0.00000000000E+00  0.37155394904E+03  0.37155394904E+03  0.00000000000E+00 0.  1.
         21   -1    0    0  501  503 -0.00000000000E+00 -0.00000000000E+00 -0.20335098861E+03  0.20335098861E+03  0.00000000000E+00 0.  1.
          6    2    1    2  501    0  0.15581106704E+03 -0.71377058785E+02  0.21938960439E+03  0.32775766211E+03  0.17297836115E+03 0.  0.
         24    2    3    3    0    0  0.70098928259E+02 -0.81329954903E+02  0.62515683308E+02  0.14865671853E+03  0.81622227349E+02 0.  0.
         -6    2    1    2    0  502 -0.15581106704E+03  0.71377058785E+02 -0.51186643960E+02  0.24714727554E+03  0.17055770330E+03 0.  0.
        -24    2    5    5    0    0 -0.31761237747E+02  0.76415428366E+02 -0.41789166877E+02  0.12255133704E+03  0.80152366318E+02 0.  0.
          5    1    3    3  501    0  0.85712138784E+02  0.99528961180E+01  0.15687392108E+03  0.17910094358E+03  0.47000000000E+01 0. -1.
        -13    1    4    4    0    0  0.54799762513E+02 -0.74520417933E+02  0.81542156675E+02  0.12331029955E+03  0.00000000000E+00 0.  1.
         14    1    4    4    0    0  0.15299165746E+02 -0.68095369701E+01 -0.19026473367E+02  0.25346418979E+02  0.00000000000E+00 0. -1.
         -5    1    5    5    0  502 -0.12404982930E+03 -0.50383695806E+01 -0.93974770824E+01  0.12459593850E+03  0.47000000000E+01 0.  1.
         11    1    6    6    0    0 -0.42851315316E+02  0.87792390894E+02 -0.42745907948E+02  0.10663466495E+03  0.00000000000E+00 0. -1.
        -12    1    6    6    0    0  0.11090077570E+02 -0.11376962528E+02  0.95674107093E+00  0.15916672087E+02  0.00000000000E+00 0.  1.
</event>
<event>
12    1  0.8196217E-002  0.2412326E+03  0.7818608E-02  0.1119036E+00
         21   -1    0    0  503  502  0.00000000000E+00  0.00000000000E+00  0.58409752484E+02  0.58409752484E+02  0.00000000000E+00 0. -1.
         21   -1    0    0  501  503 -0.00000000000E+00 -0.00000000000E+00 -0.10402622928E+04  0.10402622928E+04  0.00000000000E+00 0.  1.
          6    2    1    2  501    0 -0.85156715370E+01  0.16816539436E+03 -0.60616725615E+03  0.65240471499E+03  0.17274563147E+03 0.  0.
         24    2    3    3    0    0 -0.32772148086E+02  0.18904917116E+03 -0.49579236280E+03  0.53738638659E+03  0.78488589394E+02 0.  0.
         -6    2    1    2    0  502  0.85156715370E+01 -0.16816539436E+03 -0.37568528419E+03  0.44626733032E+03  0.17222944239E+03 0.  0.
        -24    2    5    5    0    0 -0.41792048247E+02 -0.85605686309E+02 -0.10827396341E+03  0.16187697087E+03  0.73525463078E+02 0.  0.
          5    1    3    3  501    0  0.24256476549E+02 -0.20883776804E+02 -0.11037489334E+03  0.11501832840E+03  0.47000000000E+01 0. -1.
        -13    1    4    4    0    0 -0.76354406438E+01  0.31685035124E+02 -0.18781819596E+03  0.19062506692E+03  0.00000000000E+00 0.  1.
         14    1    4    4    0    0 -0.25136707442E+02  0.15736413604E+03 -0.30797416684E+03  0.34676131966E+03  0.00000000000E+00 0. -1.
         -5    1    5    5    0  502  0.50307719784E+02 -0.82559708053E+02 -0.26741132078E+03  0.28439035944E+03  0.47000000000E+01 0.  1.
         13    1    6    6    0    0 -0.49070246219E+02 -0.66701868262E+02 -0.11393137869E+03  0.14084526029E+03  0.00000000000E+00 0. -1.
        -14    1    6    6    0    0  0.72781979723E+01 -0.18903818047E+02  0.56574152844E+01  0.21031710586E+02  0.00000000000E+00 0.  1.
</event>
<event>
12    1  0.8196217E-002  0.1879070E+03  0.7818608E-02  0.1161414E+00
         21   -1    0    0  501  502  0.00000000000E+00  0.00000000000E+00  0.92573934788E+03  0.92573934788E+03  0.00000000000E+00 0.  1.
         21   -1    0    0  502  503 -0.00000000000E+00 -0.00000000000E+00 -0.49280725978E+02  0.49280725978E+02  0.00000000000E+00 0.  1.
         -6    2    1    2    0  503 -0.60623837757E+02 -0.19445626718E+02  0.19309065623E+03  0.26628824503E+03  0.17196524595E+03 0.  0.
        -24    2    3    3    0    0 -0.39367004269E+02  0.24885190204E+01  0.21693929234E+03  0.22725227235E+03  0.54999863417E+02 0.  0.
          6    2    1    2  501    0  0.60623837757E+02  0.19445626718E+02  0.68336796567E+03  0.70873182883E+03  0.17679266553E+03 0.  0.
         24    2    5    5    0    0  0.61865047451E+02  0.36127621670E+02  0.67856651853E+03  0.69070480878E+03  0.10718266493E+03 0.  0.
          5    1    5    5  501    0 -0.12412096935E+01 -0.16681994952E+02  0.48014471397E+01  0.18027020045E+02  0.47000000000E+01 0. -1.
        -13    1    6    6    0    0  0.74175144817E+02  0.63357516493E+02  0.47079070615E+03  0.48079103153E+03  0.00000000000E+00 0.  1.
         14    1    6    6    0    0 -0.12310097366E+02 -0.27229894823E+02  0.20777581238E+03  0.20991377725E+03  0.00000000000E+00 0. -1.
         -5    1    3    3    0  503 -0.21256833488E+02 -0.21934145738E+02 -0.23848636105E+02  0.39035972683E+02  0.47000000000E+01 0.  1.
         13    1    4    4    0    0 -0.20210532600E+02 -0.26035778727E+02  0.94484143670E+02  0.10006788100E+03  0.00000000000E+00 0. -1.
        -14    1    4    4    0    0 -0.19156471670E+02  0.28524297747E+02  0.12245514867E+03  0.12718439135E+03  0.00000000000E+00 0.  1.
</event>
<event>
12    1  0.8196217E-002  0.1948558E+03  0.7818608E-02  0.1156752E+00
         21   -1    0    0  503  502  0.00000000000E+00  0.00000000000E+00  0.44319435061E+02  0.44319435061E+02  0.00000000000E+00 0. -1.
         21   -1    0    0  501  503 -0.00000000000E+00 -0.00000000000E+00 -0.86433232460E+03  0.86433232460E+03  0.00000000000E+00 0. -1.
          6    2    1    2  501    0 -0.63458991897E+02  0.11258331271E+02 -0.51553339575E+03  0.54715965904E+03  0.17162522155E+03 0.  0.
         24    2    3    3    0    0 -0.86083402983E+02  0.56817903114E+02 -0.37366609125E+03  0.39637517492E+03  0.82754487274E+02 0.  0.
         -6    2    1    2    0  502  0.63458991897E+02 -0.11258331271E+02 -0.30447949379E+03  0.36149210062E+03  0.18388850698E+03 0.  0.
        -24    2    5    5    0    0 -0.13926260450E+02  0.84728999076E+01 -0.54299928147E+02  0.98833189047E+02  0.80955458725E+02 0.  0.
          5    1    3    3  501    0  0.22624411086E+02 -0.45559571842E+02 -0.14186730450E+03  0.15078448412E+03  0.47000000000E+01 0. -1.
        -13    1    4    4    0    0 -0.59532218690E+02  0.76636792511E+02 -0.24519148560E+03  0.26369707552E+03  0.00000000000E+00 0.  1.
         14    1    4    4    0    0 -0.26551184293E+02 -0.19818889397E+02 -0.12847460565E+03  0.13267809940E+03  0.00000000000E+00 0. -1.
         -5    1    5    5    0  502  0.77385252346E+02 -0.19731231179E+02 -0.25017956564E+03  0.26265891157E+03  0.47000000000E+01 0.  1.
         13    1    6    6    0    0  0.12159141149E+02 -0.20620045173E+02  0.80461243790E+01  0.25254130235E+02  0.00000000000E+00 0. -1.
        -14    1    6    6    0    0 -0.26085401599E+02  0.29092945080E+02 -0.62346052526E+02  0.73579058812E+02  0.00000000000E+00 0.  1.
</event>
<event>
12    1  0.8196217E-002  0.2276765E+03  0.7818608E-02  0.1129082E+00
         21   -1    0    0  503  502  0.00000000000E+00  0.00000000000E+00  0.67692059363E+02  0.67692059363E+02  0.00000000000E+00 0.  1.
         21   -1    0    0  501  503 -0.00000000000E+00 -0.00000000000E+00 -0.75727697439E+03  0.75727697439E+03  0.00000000000E+00 0.  1.
          6    2    1    2  501    0  0.86807350989E+02  0.11340605856E+03 -0.31054803604E+03  0.38506711515E+03  0.17731370555E+03 0.  0.
         24    2    3    3    0    0  0.85343119239E+02  0.13294491433E+03 -0.31794445133E+03  0.36360300979E+03  0.78489976113E+02 0.  0.
         -6    2    1    2    0  502 -0.86807350989E+02 -0.11340605856E+03 -0.37903687899E+03  0.43990191861E+03  0.17160504671E+03 0.  0.
        -24    2    5    5    0    0 -0.56287452203E+02 -0.90819576296E+02 -0.12377774957E+03  0.18179161940E+03  0.79440473831E+02 0.  0.
          5    1    3    3  501    0  0.14642317498E+01 -0.19538855770E+02  0.73964152945E+01  0.21464105353E+02  0.47000000000E+01 0. -1.
        -11    1    4    4    0    0  0.99496836484E+01  0.43399045500E+02 -0.16558930330E+03  0.17147096175E+03  0.00000000000E+00 0.  1.
         12    1    4    4    0    0  0.75393435591E+02  0.89545868826E+02 -0.15235514803E+03  0.19213204804E+03  0.00000000000E+00 0. -1.
         -5    1    5    5    0  502 -0.30519898786E+02 -0.22586482260E+02 -0.25525912942E+03  0.25811029921E+03  0.47000000000E+01 0.  1.
         11    1    6    6    0    0  0.19064543983E+01 -0.61431090420E+02 -0.32217894232E+02  0.69393127522E+02  0.00000000000E+00 0. -1.
        -12    1    6    6    0    0 -0.58193906602E+02 -0.29388485876E+02 -0.91559855335E+02  0.11239849188E+03  0.00000000000E+00 0.  1.
</event>
<event>
12    1  0.8196217E-002  0.1830868E+03  0.7818608E-02  0.1165036E+00
         21   -1    0    0  501  502  0.00000000000E+00  0.00000000000E+00  0.10610228168E+03  0.10610228168E+03  0.00000000000E+00 0.  1.
         21   -1    0    0  502  503 -0.00000000000E+00 -0.00000000000E+00 -0.39609727344E+03  0.39609727344E+03  0.00000000000E+00 0.  1.
         -6    2    1    2    0  503 -0.65786276441E+02 -0.40472050479E+01 -0.25866779130E+03  0.31645200269E+03  0.16996655469E+03 0.  0.
        -24    2    3    3    0    0  0.21675594909E+02  0.30160936878E+02 -0.13183689098E+03  0.15856614775E+03  0.79892076333E+02 0.  0.
          6    2    1    2  501    0  0.65786276441E+02  0.40472050479E+01 -0.31327200463E+02  0.18574755244E+03  0.17081143320E+03 0.  0.
         24    2    5    5    0    0  0.86257694717E+02  0.48361723180E+01 -0.74164484906E+02  0.13803147156E+03  0.78029083426E+02 0.  0.
          5    1    5    5  501    0 -0.20471418276E+02 -0.78896727011E+00  0.42837284442E+02  0.47716080874E+02  0.47000000000E+01 0. -1.
        -13    1    6    6    0    0  0.51660673066E+02 -0.19409898117E+02 -0.78068022532E+02  0.95604316998E+02  0.00000000000E+00 0.  1.
         14    1    6    6    0    0  0.34597021651E+02  0.24246070435E+02  0.39035376259E+01  0.42427154567E+02  0.00000000000E+00 0. -1.
         -5    1    3    3    0  503 -0.87461871350E+02 -0.34208141926E+02 -0.12683090032E+03  0.15788585494E+03  0.47000000000E+01 0.  1.
         13    1    4    4    0    0  0.19825913059E+02 -0.21281301267E+02 -0.81643788482E+02  0.86669884100E+02  0.00000000000E+00 0. -1.
        -14    1    4    4    0    0  0.18496818508E+01  0.51442238145E+02 -0.50193102500E+02  0.71896263650E+02  0.00000000000E+00 0.  1.
</event>
<event>
12    1  0.8196217E-002  0.2410926E+03  0.7818608E-02  0.1119091E+00
         21   -1    0    0  503  502  0.00000000000E+00  0.00000000000E+00  0.31241953275E+03  0.31241953275E+03  0.00000000000E+00 0.  1.
         21   -1    0    0  501  503 -0.00000000000E+00 -0.00000000000E+00 -0.46019755797E+03  0.46019755797E+03  0.00000000000E+00 0. -1.
          6    2    1    2  501    0  0.15037041748E+03 -0.76562663150E+02 -0.37212227625E+03  0.44339668426E+03  0.17219909201E+03 0.  0.
         24    2    3    3    0    0  0.20227089930E+02 -0.69739045973E+02 -0.13289862877E+03  0.17093771309E+03  0.79277906927E+02 0.  0.
         -6    2    1    2    0  502 -0.15037041748E+03  0.76562663150E+02  0.22434425104E+03  0.32922040646E+03  0.17199601511E+03 0.  0.
        -24    2    5    5    0    0 -0.16454956645E+03  0.10211495032E+03  0.19172173013E+03  0.28517172299E+03  0.84033724731E+02 0.  0.
          5    1    3    3  501    0  0.13014332755E+03 -0.68236171764E+01 -0.23922364748E+03  0.27245897117E+03  0.47000000000E+01 0. -1.
        -11    1    4    4    0    0  0.12309135133E+02  0.12298166955E+02 -0.38581778972E+01  0.17822605164E+02  0.00000000000E+00 0.  1.
         12    1    4    4    0    0  0.79179547978E+01 -0.82037212928E+02 -0.12904045088E+03  0.15311510793E+03  0.00000000000E+00 0. -1.
         -5    1    5    5    0  502  0.14179148963E+02 -0.25552287174E+02  0.32622520903E+02  0.44048683468E+02  0.47000000000E+01 0.  1.
         13    1    6    6    0    0 -0.19357847158E+02  0.18797504817E+02 -0.43819795772E+01  0.27336316119E+02  0.00000000000E+00 0. -1.
        -14    1    6    6    0    0 -0.14519171929E+03  0.83317445507E+02  0.19610370971E+03  0.25783540687E+03  0.00000000000E+00 0.  1.
</event>
<event>
12    1  0.8196217E-002  0.2071995E+03  0.7818608E-02  0.1144212E+00
         21   -1    0    0  501  502  0.00000000000E+00  0.00000000000E+00  0.95338222210E+02  0.95338222210E+02  0.00000000000E+00 0. -1.
         21   -1    0    0  502  503 -0.00000000000E+00 -0.00000000000E+00 -0.71899942564E+03  0.71899942564E+03  0.00000000000E+00 0.  1.
         -6    2    1    2    0  503 -0.10549948528E+03  0.42192174605E+02 -0.56180819239E+03  0.59810295489E+03  0.17084606703E+03 0.  0.
        -24    2    3    3    0    0 -0.18838770101E+02 -0.30384835447E+02 -0.31376844477E+03  0.32547993982E+03  0.78793507420E+02 0.  0.
          6    2    1    2  501    0  0.10549948528E+03 -0.42192174605E+02 -0.61853011040E+02  0.21623469296E+03  0.17326663404E+03 0.  0.
         24    2    5    5    0    0  0.43127006683E+01 -0.52305851652E+02 -0.43882576520E+02  0.11286120332E+03  0.89763406729E+02 0.  0.
          5    1    5    5  501    0  0.10118678462E+03  0.10113677047E+02 -0.17970434520E+02  0.10337348964E+03  0.47000000000E+01 0. -1.
        -13    1    6    6    0    0  0.13258824933E+02 -0.44157319935E+02  0.18231957166E+02  0.49578922987E+02  0.00000000000E+00 0.  1.
         14    1    6    6    0    0 -0.89461242649E+01 -0.81485317166E+01 -0.62114533686E+02  0.63282280328E+02  0.00000000000E+00 0. -1.
         -5    1    3    3    0  503 -0.86660715183E+02  0.72577010053E+02 -0.24803974762E+03  0.27262301507E+03  0.47000000000E+01 0.  1.
         13    1    4    4    0    0  0.64408175693E+01  0.10960487515E+02 -0.62493885708E+01  0.14165848899E+02  0.00000000000E+00 0. -1.
        -14    1    4    4    0    0 -0.25279587670E+02 -0.41345322963E+02 -0.30751905620E+03  0.31131409092E+03  0.00000000000E+00 0.  1.
</event>
<event>
12    1  0.8196217E-002  0.2052899E+03  0.7818608E-02  0.1145670E+00
         21   -1    0    0  503  502  0.00000000000E+00  0.00000000000E+00  0.31074790091E+03  0.31074790091E+03  0.00000000000E+00 0. -1.
         21   -1    0    0  501  503 -0.00000000000E+00 -0.00000000000E+00 -0.13949634909E+03  0.13949634909E+03  0.00000000000E+00 0.  1.
          6    2    1    2  501    0  0.30561520036E+02 -0.10447477427E+03  0.12751089446E+03  0.24034619769E+03  0.17221579943E+03 0.  0.
         24    2    3    3    0    0 -0.15982157198E+02 -0.10656864256E+03  0.39605570025E+02  0.14074632701E+03  0.81416352568E+02 0.  0.
         -6    2    1    2    0  502 -0.30561520036E+02  0.10447477427E+03  0.43740657352E+02  0.20989805231E+03  0.17405448081E+03 0.  0.
        -24    2    5    5    0    0 -0.78000935046E+02  0.56723424442E+02  0.62078974048E+02  0.13997614325E+03  0.80236082352E+02 0.  0.
          5    1    3    3  501    0  0.46543677234E+02  0.20938682846E+01  0.87905324439E+02  0.99599870681E+02  0.47000000000E+01 0. -1.
        -11    1    4    4    0    0  0.29194552666E+02 -0.35975645042E+02 -0.35688885603E+01  0.46468332304E+02  0.00000000000E+00 0.  1.
         12    1    4    4    0    0 -0.45176709864E+02 -0.70592997514E+02  0.43174458585E+02  0.94277994709E+02  0.00000000000E+00 0. -1.
         -5    1    5    5    0  502  0.47439415009E+02  0.47751349830E+02 -0.18338316697E+02  0.69921909057E+02  0.47000000000E+01 0.  1.
         13    1    6    6    0    0 -0.85747169927E+01 -0.19870259129E+02  0.64462790041E+01  0.22581131113E+02  0.00000000000E+00 0. -1.
        -14    1    6    6    0    0 -0.69426218053E+02  0.76593683571E+02  0.55632695044E+02  0.11739501213E+03  0.00000000000E+00 0.  1.
</event>
<event>
12    1  0.8196217E-002  0.1853840E+03  0.7818608E-02  0.1162897E+00
         21   -1    0    0  501  502  0.00000000000E+00  0.00000000000E+00  0.26992167415E+03  0.26992167415E+03  0.00000000000E+00 0.  1.
         21   -1    0    0  502  503 -0.00000000000E+00 -0.00000000000E+00 -0.14060453640E+03  0.14060453640E+03  0.00000000000E+00 0.  1.
         -6    2    1    2    0  503 -0.63850975086E+02  0.20355296569E+02  0.29516138965E+00  0.18538425969E+03  0.17284661264E+03 0.  0.
        -24    2    3    3    0    0  0.11215154803E+02  0.18129459633E+02  0.49749860885E+02  0.95341294894E+02  0.78488577833E+02 0.  0.
          6    2    1    2  501    0  0.63850975086E+02 -0.20355296569E+02  0.12902197635E+03  0.22514195086E+03  0.17190387587E+03 0.  0.
         24    2    5    5    0    0  0.79581994793E+02 -0.54441995473E+02  0.42925512467E+02  0.13109909299E+03  0.77763409106E+02 0.  0.
          5    1    5    5  501    0 -0.15731019707E+02  0.34086698903E+02  0.86096463886E+02  0.94042857872E+02  0.47000000000E+01 0. -1.
        -13    1    6    6    0    0  0.88313572938E+02 -0.32699778286E+02  0.50001176912E+02  0.10662401398E+03  0.00000000000E+00 0.  1.
         14    1    6    6    0    0 -0.87315781451E+01 -0.21742217186E+02 -0.70756644449E+01  0.24475079007E+02  0.00000000000E+00 0. -1.
         -5    1    3    3    0  503 -0.75066129889E+02  0.22258369357E+01 -0.49454699495E+02  0.90042964793E+02  0.47000000000E+01 0.  1.
         13    1    4    4    0    0  0.75012073270E+01  0.40395420839E+02  0.41585745318E+00  0.41088089193E+02  0.00000000000E+00 0. -1.
        -14    1    4    4    0    0  0.37139474759E+01 -0.22265961206E+02  0.49334003431E+02  0.54253205701E+02  0.00000000000E+00 0.  1.
</event>
<event>
12    1  0.8196217E-002  0.2176979E+03  0.7818608E-02  0.1135628E+00
         21   -1    0    0  503  502  0.00000000000E+00  0.00000000000E+00  0.26020351481E+03  0.26020351481E+03  0.00000000000E+00 0. -1.
         21   -1    0    0  501  503 -0.00000000000E+00 -0.00000000000E+00 -0.20781042752E+03  0.20781042752E+03  0.00000000000E+00 0. -1.
          6    2    1    2  501    0  0.11937149936E+03 -0.58514719648E+02  0.10857192474E+03  0.24326992166E+03  0.17239160266E+03 0.  0.
         24    2    3    3    0    0  0.17368213057E+02 -0.48350180836E+02  0.17696640609E+01  0.95159148413E+02  0.80079566708E+02 0.  0.
         -6    2    1    2    0  502 -0.11937149936E+03  0.58514719648E+02 -0.56178837452E+02  0.22474402067E+03  0.17227967313E+03 0.  0.
        -24    2    5    5    0    0 -0.11790156019E+03  0.16404736109E+01  0.13992929375E+01  0.14366275475E+03  0.82058272184E+02 0.  0.
          5    1    3    3  501    0  0.10200328630E+03 -0.10164538812E+02  0.10680226068E+03  0.14811077324E+03  0.47000000000E+01 0. -1.
        -11    1    4    4    0    0 -0.65911143283E+01  0.20789792996E+02 -0.19096729928E+01  0.21893038434E+02  0.00000000000E+00 0.  1.
         12    1    4    4    0    0  0.23959327385E+02 -0.69139973833E+02  0.36793370538E+01  0.73266109979E+02  0.00000000000E+00 0. -1.
         -5    1    5    5    0  502 -0.14699391676E+01  0.56874246038E+02 -0.57578130389E+02  0.81081265916E+02  0.47000000000E+01 0.  1.
         13    1    6    6    0    0 -0.28137236778E+02  0.20349480319E+01  0.37486133847E+02  0.46915406188E+02  0.00000000000E+00 0. -1.
        -14    1    6    6    0    0 -0.89764323410E+02 -0.39447442096E+00 -0.36086840910E+02  0.96747348564E+02  0.00000000000E+00 0.  1.
</event>
<event>
12    1  0.8196217E-002  0.2263053E+03  0.7818608E-02  0.1130744E+00
         21   -1    0    0  503  502  0.00000000000E+00  0.00000000000E+00  0.13845461286E+03  0.13845461286E+03  0.00000000000E+00 0. -1.
         21   -1    0    0  501  503 -0.00000000000E+00 -0.00000000000E+00 -0.85274546925E+03  0.85274546925E+03  0.00000000000E+00 0. -1.
          6    2    1    2  501    0  0.52457146201E+02 -0.13036496512E+03 -0.73776374816E+03  0.77169257302E+03  0.17739025578E+03 0.  0.
         24    2    3    3    0    0 -0.17420669938E+02 -0.91527508478E+02 -0.60003769009E+03  0.61237586236E+03  0.79235110390E+02 0.  0.
         -6    2    1    2    0  502 -0.52457146201E+02  0.13036496512E+03  0.23472891769E+02  0.21950750908E+03  0.16699039966E+03 0.  0.
        -24    2    5    5    0    0 -0.30201900161E+01  0.13147039475E+03  0.50553905107E+02  0.16293272764E+03  0.81840027937E+02 0.  0.
          5    1    3    3  501    0  0.69877816139E+02 -0.38837456639E+02 -0.13772605807E+03  0.15931671066E+03  0.47000000000E+01 0. -1.
        -13    1    4    4    0    0  0.13298960586E+02 -0.71317010856E+02 -0.50976296777E+03  0.51489927336E+03  0.00000000000E+00 0.  1.
         14    1    4    4    0    0 -0.30719630524E+02 -0.20210497622E+02 -0.90274722320E+02  0.97476589003E+02  0.00000000000E+00 0. -1.
         -5    1    5    5    0  502 -0.49436956185E+02 -0.11054296298E+01 -0.27081013337E+02  0.56574781439E+02  0.47000000000E+01 0.  1.
         13    1    6    6    0    0 -0.79014369323E+01  0.10443816242E+03 -0.74820141576E+00  0.10473930628E+03  0.00000000000E+00 0. -1.
        -14    1    6    6    0    0  0.48812469161E+01  0.27032232329E+02  0.51302106523E+02  0.58193421362E+02  0.00000000000E+00 0.  1.
</event>
<event>
12    1  0.8196217E-002  0.2206071E+03  0.7818608E-02  0.1133804E+00
         21   -1    0    0  503  502  0.00000000000E+00  0.00000000000E+00  0.10226126686E+04  0.10226126686E+04  0.00000000000E+00 0.  1.
         21   -1    0    0  501  503 -0.00000000000E+00 -0.00000000000E+00 -0.47552293432E+02  0.47552293432E+02  0.00000000000E+00 0. -1.
          6    2    1    2  501    0  0.10905793475E+03 -0.81084398558E+02  0.43683777212E+03  0.48848544490E+03  0.17123807377E+03 0.  0.
         24    2    3    3    0    0  0.14358110168E+02 -0.91638091867E+02  0.20324190748E+03  0.23615915774E+03  0.76551810020E+02 0.  0.
         -6    2    1    2    0  502 -0.10905793475E+03  0.81084398558E+02  0.53822260301E+03  0.58167951709E+03  0.17377910518E+03 0.  0.
        -24    2    5    5    0    0 -0.61036445068E+02  0.11116159963E+03  0.28372881355E+03  0.32091165027E+03  0.79999367367E+02 0.  0.
          5    1    3    3  501    0  0.94699824578E+02  0.10553693309E+02  0.23359586464E+03  0.25232628717E+03  0.47000000000E+01 0. -1.
        -13    1    4    4    0    0  0.32057050842E+02 -0.56731635478E+02  0.17808951816E+03  0.18963651930E+03  0.00000000000E+00 0.  1.
         14    1    4    4    0    0 -0.17698940674E+02 -0.34906456389E+02  0.25152389317E+02  0.46522638435E+02  0.00000000000E+00 0. -1.
         -5    1    5    5    0  502 -0.48021489679E+02 -0.30077201077E+02  0.25449378946E+03  0.26076786683E+03  0.47000000000E+01 0.  1.
         13    1    6    6    0    0  0.39890376999E+01  0.55060297355E+02  0.61379757253E+02  0.82553154797E+02  0.00000000000E+00 0. -1.
        -14    1    6    6    0    0 -0.65025482767E+02  0.56101302280E+02  0.22234905629E+03  0.23835849547E+03  0.00000000000E+00 0.  1.
</event>
<event>
12    1  0.8196217E-002  0.2289642E+03  0.7818608E-02  0.1127555E+00
         21   -1    0    0  503  502  0.00000000000E+00  0.00000000000E+00  0.88691446359E+02  0.88691446359E+02  0.00000000000E+00 0.  1.
         21   -1    0    0  501  503 -0.00000000000E+00 -0.00000000000E+00 -0.73021153933E+03  0.73021153933E+03  0.00000000000E+00 0.  1.
          6    2    1    2  501    0  0.14714928112E+03  0.18737873008E+02 -0.50177668452E+03  0.55154733930E+03  0.17441504391E+03 0.  0.
         24    2    3    3    0    0  0.80217787221E+02 -0.47094637631E+02 -0.20414441587E+03  0.23942428396E+03  0.83643570813E+02 0.  0.
         -6    2    1    2    0  502 -0.14714928112E+03 -0.18737873008E+02 -0.13974340846E+03  0.26735564640E+03  0.17305144505E+03 0.  0.
        -24    2    5    5    0    0 -0.17113808914E+03 -0.29003193535E+02 -0.93628996499E+02  0.21416289589E+03  0.83486083893E+02 0.  0.
          5    1    3    3  501    0  0.66931493899E+02  0.65832510638E+02 -0.29763226865E+03  0.31212305534E+03  0.47000000000E+01 0. -1.
        -11    1    4    4    0    0  0.93757535785E+02 -0.31862981290E+02 -0.19108624778E+03  0.21522007152E+03  0.00000000000E+00 0.  1.
         12    1    4    4    0    0 -0.13539748563E+02 -0.15231656341E+02 -0.13058168086E+02  0.24204212439E+02  0.00000000000E+00 0. -1.
         -5    1    5    5    0  502  0.23988808017E+02  0.10265320527E+02 -0.46114411958E+02  0.53192750501E+02  0.47000000000E+01 0.  1.
         11    1    6    6    0    0 -0.27606761484E+02  0.10798991270E+02 -0.51414975926E+02  0.59348557198E+02  0.00000000000E+00 0. -1.
        -12    1    6    6    0    0 -0.14353132765E+03 -0.39802184804E+02 -0.42214020573E+02  0.15481433870E+03  0.00000000000E+00 0.  1.
</event>
<event>
12    1  0.8196217E-002  0.1854793E+03  0.7818608E-02  0.1162979E+00
         21   -1    0    0  501  502  0.00000000000E+00  0.00000000000E+00  0.95446790568E+03  0.95446790568E+03  0.00000000000E+00 0. -1.
         21   -1    0    0  502  503 -0.00000000000E+00 -0.00000000000E+00 -0.52594822783E+02  0.52594822783E+02  0.00000000000E+00 0. -1.
         -6    2    1    2    0  503 -0.32267866567E+02 -0.56765580653E+02  0.16449130319E+03  0.24671119599E+03  0.17188798399E+03 0.  0.
        -24    2    3    3    0    0  0.88749752618E+00 -0.78850868559E+02  0.25842170552E+02  0.10237578768E+03  0.59956125619E+02 0.  0.
          6    2    1    2  501    0  0.32267866567E+02  0.56765580653E+02  0.73738177971E+03  0.76035153248E+03  0.17360592599E+03 0.  0.
         24    2    5    5    0    0  0.43653967031E+02  0.12800062945E+02  0.67789898243E+03  0.68536551243E+03  0.90051900579E+02 0.  0.
          5    1    5    5  501    0 -0.11386100465E+02  0.43965517708E+02  0.59482797276E+02  0.74986020050E+02  0.47000000000E+01 0. -1.
        -11    1    6    6    0    0  0.96254218831E+00 -0.66141655139E+01  0.90012800156E+00  0.67441755114E+01  0.00000000000E+00 0.  1.
         12    1    6    6    0    0  0.42691424843E+02  0.19414228459E+02  0.67699885443E+03  0.67862133692E+03  0.00000000000E+00 0. -1.
         -5    1    3    3    0  503 -0.33155364093E+02  0.22085287906E+02  0.13864913264E+03  0.14433540831E+03  0.47000000000E+01 0.  1.
         11    1    4    4    0    0  0.23368711449E+02 -0.19361843437E+02  0.24106435945E+02  0.38756907901E+02  0.00000000000E+00 0. -1.
        -12    1    4    4    0    0 -0.22481213923E+02 -0.59489025121E+02  0.17357346070E+01  0.63618879776E+02  0.00000000000E+00 0.  1.
</event>
<event>
12    1  0.8196217E-002  0.2134396E+03  0.7818608E-02  0.1139129E+00
         21   -1    0    0  501  502  0.00000000000E+00  0.00000000000E+00  0.15385744390E+03  0.15385744390E+03  0.00000000000E+00 0. -1.
         21   -1    0    0  502  503 -0.00000000000E+00 -0.00000000000E+00 -0.38745060139E+03  0.38745060139E+03  0.00000000000E+00 0. -1.
         -6    2    1    2    0  503  0.10439235401E+03  0.67548334002E+02 -0.24981446469E+03  0.32857833782E+03  0.17348174634E+03 0.  0.
        -24    2    3    3    0    0  0.23683151136E+02  0.61834669016E+02 -0.53952762342E+02  0.11661013774E+03  0.79388952131E+02 0.  0.
          6    2    1    2  501    0 -0.10439235401E+03 -0.67548334002E+02  0.16221307195E+02  0.21272970747E+03  0.17184369826E+03 0.  0.
         24    2    5    5    0    0 -0.41883424573E+02 -0.70484906722E+02 -0.48445823633E+02  0.12261912247E+03  0.77240585438E+02 0.  0.
          5    1    5    5  501    0 -0.62508929436E+02  0.29365727204E+01  0.64667130828E+02  0.90110584995E+02  0.47000000000E+01 0. -1.
        -11    1    6    6    0    0 -0.49054311225E+02 -0.12227767971E+02 -0.37415574935E+02  0.62894904460E+02  0.00000000000E+00 0.  1.
         12    1    6    6    0    0  0.71708866522E+01 -0.58257138751E+02 -0.11030248698E+02  0.59724218012E+02  0.00000000000E+00 0. -1.
         -5    1    3    3    0  503  0.80709202872E+02  0.57136649861E+01 -0.19586170235E+03  0.21196820008E+03  0.47000000000E+01 0.  1.
         11    1    4    4    0    0  0.48574205709E+02  0.18395424842E+02 -0.36925286147E+02  0.63728501256E+02  0.00000000000E+00 0. -1.
        -12    1    4    4    0    0 -0.24891054572E+02  0.43439244174E+02 -0.17027476195E+02  0.52881636488E+02  0.00000000000E+00 0.  1.
</event>
<event>
12    1  0.8196217E-002  0.2128567E+03  0.7818608E-02  0.1140451E+00
         21   -1    0    0  501  502  0.00000000000E+00  0.00000000000E+00  0.26865875134E+03  0.26865875134E+03  0.00000000000E+00 0.  1.
         21   -1    0    0  502  503 -0.00000000000E+00 -0.00000000000E+00 -0.20967604976E+03  0.20967604976E+03  0.00000000000E+00 0.  1.
         -6    2    1    2    0  503  0.10666498259E+03 -0.43979967689E+02  0.14061361865E+03  0.25036202374E+03  0.17203865006E+03 0.  0.
        -24    2    3    3    0    0 -0.69652875089E+01 -0.16924122319E+02  0.75900799174E+02  0.11674430016E+03  0.86794925877E+02 0.  0.
          6    2    1    2  501    0 -0.10666498259E+03  0.43979967689E+02 -0.81630917076E+02  0.22797277736E+03  0.17887516465E+03 0.  0.
         24    2    5    5    0    0 -0.11497174317E+03 -0.21378563153E+02 -0.28900438859E+02  0.14345453579E+03  0.77900088470E+02 0.  0.
          5    1    5    5  501    0  0.83067605785E+01  0.65358530842E+02 -0.52730478217E+02  0.84518241570E+02  0.47000000000E+01 0. -1.
        -13    1    6    6    0    0 -0.97831057403E+02  0.14085147761E+02 -0.32136640339E+02  0.10393301127E+03  0.00000000000E+00 0.  1.
         14    1    6    6    0    0 -0.17140685765E+02 -0.35463710914E+02  0.32362014804E+01  0.39521524519E+02  0.00000000000E+00 0. -1.
         -5    1    3    3    0  503  0.11363027010E+03 -0.27055845370E+02  0.64712819478E+02  0.13361772358E+03  0.47000000000E+01 0.  1.
         11    1    4    4    0    0  0.26099100739E+02 -0.40603448839E+01  0.76840380813E+02  0.81253268140E+02  0.00000000000E+00 0. -1.
        -12    1    4    4    0    0 -0.33064388248E+02 -0.12863777435E+02 -0.93958163910E+00  0.35491032019E+02  0.00000000000E+00 0.  1.
</event>
<event>
12    1  0.8196217E-002  0.2096512E+03  0.7818608E-02  0.1141860E+00
         21   -1    0    0  501  502  0.00000000000E+00  0.00000000000E+00  0.12174785711E+03  0.12174785711E+03  0.00000000000E+00 0.  1.
         21   -1    0    0  502  503 -0.00000000000E+00 -0.00000000000E+00 -0.36759880554E+03  0.36759880554E+03  0.00000000000E+00 0.  1.
         -6    2    1    2    0  503  0.78785520756E+02  0.89907755083E+02 -0.89839629810E+02  0.22808937806E+03  0.17222962171E+03 0.  0.
        -24    2    3    3    0    0  0.97617817096E+02  0.25504895188E+02 -0.18146071074E+02  0.12978149377E+03  0.79587802691E+02 0.  0.
          6    2    1    2  501    0 -0.78785520756E+02 -0.89907755083E+02 -0.15601131862E+03  0.26125728459E+03  0.17211994222E+03 0.  0.
         24    2    5    5    0    0 -0.66700604413E+02 -0.29176118349E+00 -0.60056752024E+02  0.12932381493E+03  0.93106282768E+02 0.  0.
          5    1    5    5  501    0 -0.12084916342E+02 -0.89615993899E+02 -0.95954566596E+02  0.13193346966E+03  0.47000000000E+01 0. -1.
        -13    1    6    6    0    0 -0.47502059049E+01 -0.28959847306E+02  0.10482924916E+02  0.31162941564E+02  0.00000000000E+00 0.  1.
         14    1    6    6    0    0 -0.61950398509E+02  0.28668086122E+02 -0.70539676940E+02  0.98160873367E+02  0.00000000000E+00 0. -1.
         -5    1    3    3    0  503 -0.18832296340E+02  0.64402859895E+02 -0.71693558735E+02  0.98307884283E+02  0.47000000000E+01 0.  1.
         13    1    4    4    0    0  0.23857474217E+02  0.91008172443E-01 -0.41911633387E+02  0.48226262261E+02  0.00000000000E+00 0. -1.
        -14    1    4    4    0    0  0.73760342879E+02  0.25413887016E+02  0.23765562313E+02  0.81555231511E+02  0.00000000000E+00 0.  1.
</event>
<event>
12    1  0.8196217E-002  0.2439138E+03  0.7818608E-02  0.1117588E+00
         21   -1    0    0  501  502  0.00000000000E+00  0.00000000000E+00  0.13653743196E+03  0.13653743196E+03  0.00000000000E+00 0. -1.
         21   -1    0    0  502  503 -0.00000000000E+00 -0.00000000000E+00 -0.46286745611E+03  0.46286745611E+03  0.00000000000E+00 0. -1.
         -6    2    1    2    0  503 -0.77706804802E+02  0.14964751706E+03 -0.86051093944E+02  0.25864785741E+03  0.17624186931E+03 0.  0.
        -24    2    3    3    0    0 -0.68801423131E+02  0.47419449918E+02  0.13155652797E+02  0.11584046218E+03  0.79143549465E+02 0.  0.
          6    2    1    2  501    0  0.77706804802E+02 -0.14964751706E+03 -0.24027893020E+03  0.34075703066E+03  0.17305681949E+03 0.  0.
         24    2    5    5    0    0  0.98990447522E+01 -0.87924803376E+01 -0.10783011351E+03  0.13581115309E+03  0.81498694011E+02 0.  0.
          5    1    5    5  501    0  0.67807760050E+02 -0.14085503672E+03 -0.13244881669E+03  0.20494587757E+03  0.47000000000E+01 0. -1.
        -11    1    6    6    0    0  0.31327165015E+02 -0.20868637882E+01 -0.65505883147E+01  0.32072674906E+02  0.00000000000E+00 0.  1.
         12    1    6    6    0    0 -0.21428120263E+02 -0.67056165494E+01 -0.10127952520E+03  0.10373847818E+03  0.00000000000E+00 0. -1.
         -5    1    3    3    0  503 -0.89053816717E+01  0.10222806714E+03 -0.99206746740E+02  0.14280739523E+03  0.47000000000E+01 0.  1.
         11    1    4    4    0    0 -0.74253682736E+02  0.15593173142E+02 -0.93990367248E+01  0.76453242834E+02  0.00000000000E+00 0. -1.
        -12    1    4    4    0    0  0.54522596058E+01  0.31826276776E+02  0.22554689522E+02  0.39387219344E+02  0.00000000000E+00 0.  1.
</event>
<event>
12    1  0.8196217E-002  0.2040318E+03  0.7818608E-02  0.1146424E+00
         21   -1    0    0  503  502  0.00000000000E+00  0.00000000000E+00  0.92164053288E+03  0.92164053288E+03  0.00000000000E+00 0.  1.
         21   -1    0    0  501  503 -0.00000000000E+00 -0.00000000000E+00 -0.83518386460E+02  0.83518386460E+02  0.00000000000E+00 0.  1.
          6    2    1    2  501    0  0.10081810846E+02  0.10902370399E+03  0.78410015143E+02  0.21857978514E+03  0.17216614376E+03 0.  0.
         24    2    3    3    0    0  0.20728919864E+01 -0.13094808671E+02  0.38851092195E+02  0.89878299916E+02  0.79955803641E+02 0.  0.
         -6    2    1    2    0  502 -0.10081810846E+02 -0.10902370399E+03  0.75971213127E+03  0.78657913419E+03  0.17191975164E+03 0.  0.
        -24    2    5    5    0    0 -0.53128297388E+01  0.10547417096E+02  0.36790126187E+03  0.37687455336E+03  0.80892622122E+02 0.  0.
          5    1    3    3  501    0  0.80089188599E+01  0.12211851266E+03  0.39558922948E+02  0.12870148523E+03  0.47000000000E+01 0. -1.
        -13    1    4    4    0    0 -0.36478733849E+02  0.50428509845E+01  0.26976312510E+02  0.45649203782E+02  0.00000000000E+00 0.  1.
         14    1    4    4    0    0  0.38551625835E+02 -0.18137659655E+02  0.11874779685E+02  0.44229096135E+02  0.00000000000E+00 0. -1.
         -5    1    5    5    0  502 -0.47689811075E+01 -0.11957112108E+03  0.39181086940E+03  0.40970458084E+03  0.47000000000E+01 0.  1.
         13    1    6    6    0    0  0.25088878594E+02 -0.16714130437E+02  0.70388596798E+02  0.76572635743E+02  0.00000000000E+00 0. -1.
        -14    1    6    6    0    0 -0.30401708333E+02  0.27261547533E+02  0.29751266507E+03  0.30030191761E+03  0.00000000000E+00 0.  1.
</event>
<event>
12    1  0.8196217E-002  0.2378984E+03  0.7818608E-02  0.1122364E+00
         21   -1    0    0  503  502  0.00000000000E+00  0.00000000000E+00  0.45351355296E+02  0.45351355296E+02  0.00000000000E+00 0. -1.
         21   -1    0    0  501  503 -0.00000000000E+00 -0.00000000000E+00 -0.12210447585E+04  0.12210447585E+04  0.00000000000E+00 0.  1.
          6    2    1    2  501    0 -0.14688673995E+03  0.59585293026E+02 -0.63229381359E+03  0.67320241056E+03  0.16816627890E+03 0.  0.
         24    2    3    3    0    0 -0.14047945601E+03  0.51940206976E+02 -0.33515763892E+03  0.37586170207E+03  0.80679077167E+02 0.  0.
         -6    2    1    2    0  502  0.14688673995E+03 -0.59585293026E+02 -0.54339958964E+03  0.59319370326E+03  0.17739654465E+03 0.  0.
        -24    2    5    5    0    0  0.96151253424E+02  0.29785177577E+02 -0.36423341960E+03  0.38659317786E+03  0.81584807895E+02 0.  0.
          5    1    3    3  501    0 -0.64072839336E+01  0.76450860503E+01 -0.29713617467E+03  0.29734070849E+03  0.47000000000E+01 0. -1.
        -13    1    4    4    0    0 -0.12424030836E+03  0.30262735753E+02 -0.32049281886E+03  0.34506105885E+03  0.00000000000E+00 0.  1.
         14    1    4    4    0    0 -0.16239147649E+02  0.21677471222E+02 -0.14664820062E+02  0.30800643215E+02  0.00000000000E+00 0. -1.
         -5    1    5    5    0  502  0.50735486522E+02 -0.89370470603E+02 -0.17916617004E+03  0.20660052540E+03  0.47000000000E+01 0.  1.
         11    1    6    6    0    0 -0.12479798465E+02  0.12957126714E+02 -0.76231732060E+02  0.78325662942E+02  0.00000000000E+00 0. -1.
        -12    1    6    6    0    0  0.10863105189E+03  0.16828050863E+02 -0.28800168754E+03  0.30826751492E+03  0.00000000000E+00 0.  1.
</event>
<event>
12    1  0.8196217E-002  0.1786960E+03  0.7818608E-02  0.1169296E+00
         21   -1    0    0  501  502  0.00000000000E+00  0.00000000000E+00  0.60781645942E+03  0.60781645942E+03  0.00000000000E+00 0. -1.
         21   -1    0    0  502  503 -0.00000000000E+00 -0.00000000000E+00 -0.59977924369E+02  0.59977924369E+02  0.00000000000E+00 0.  1.
         -6    2    1    2    0  503  0.43929497068E+02  0.14816571768E+02  0.15480726597E+03  0.23642661214E+03  0.17257729231E+03 0.  0.
        -24    2    3    3    0    0  0.66347094561E+02  0.44083666665E+02  0.16227297061E+03  0.19851964356E+03  0.82050138729E+02 0.  0.
          6    2    1    2  501    0 -0.43929497068E+02 -0.14816571768E+02  0.39303126908E+03  0.43136777165E+03  0.17162530241E+03 0.  0.
         24    2    5    5    0    0 -0.89689409723E+02  0.17200436478E+02  0.26397439278E+03  0.29066657853E+03  0.80402329563E+02 0.  0.
          5    1    5    5  501    0  0.45759912655E+02 -0.32017008247E+02  0.12905687630E+03  0.14070119312E+03  0.47000000000E+01 0. -1.
        -13    1    6    6    0    0 -0.11347191747E+02  0.37559996324E+02  0.10862101121E+03  0.11549041589E+03  0.00000000000E+00 0.  1.
         14    1    6    6    0    0 -0.78342217976E+02 -0.20359559846E+02  0.15535338157E+03  0.17517616264E+03  0.00000000000E+00 0. -1.
         -5    1    3    3    0  503 -0.22417597494E+02 -0.29267094897E+02 -0.74657046455E+01  0.37906968580E+02  0.47000000000E+01 0.  1.
         11    1    4    4    0    0  0.45874907252E+02  0.13166160063E+02  0.15303585282E+03  0.16030541830E+03  0.00000000000E+00 0. -1.
        -12    1    4    4    0    0  0.20472187309E+02  0.30917506601E+02  0.92371177920E+01  0.38214225267E+02  0.00000000000E+00 0.  1.
</event>
<event>
12    1  0.8196217E-002  0.1866322E+03  0.7818608E-02  0.1161754E+00
         21   -1    0    0  501  502  0.00000000000E+00  0.00000000000E+00  0.48979252943E+03  0.48979252943E+03  0.00000000000E+00 0. -1.
         21   -1    0    0  502  503 -0.00000000000E+00 -0.00000000000E+00 -0.10823122364E+03  0.10823122364E+03  0.00000000000E+00 0. -1.
         -6    2    1    2    0  503 -0.73680328959E+02 -0.51995297683E+01  0.14508608661E+02  0.18624799416E+03  0.17035841516E+03 0.  0.
        -24    2    3    3    0    0 -0.98006602200E+02 -0.34368717596E+02 -0.22052368706E+02  0.13331970159E+03  0.80630844236E+02 0.  0.
          6    2    1    2  501    0  0.73680328959E+02  0.51995297683E+01  0.36705269713E+03  0.41177575891E+03  0.17139360307E+03 0.  0.
         24    2    5    5    0    0 -0.25698548050E+01 -0.22829517877E+02  0.28273872336E+03  0.29459788468E+03  0.79491741287E+02 0.  0.
          5    1    5    5  501    0  0.76250183764E+02  0.28029047645E+02  0.84313973774E+02  0.11717787423E+03  0.47000000000E+01 0. -1.
        -13    1    6    6    0    0 -0.12906489894E+01 -0.25534640597E+02  0.21679186268E+02  0.33521198703E+02  0.00000000000E+00 0.  1.
         14    1    6    6    0    0 -0.12792058156E+01  0.27051227202E+01  0.26105953709E+03  0.26107668598E+03  0.00000000000E+00 0. -1.
         -5    1    3    3    0  503  0.24326273241E+02  0.29169187828E+02  0.36560977367E+02  0.52928292570E+02  0.47000000000E+01 0.  1.
         13    1    4    4    0    0 -0.99943308381E+02 -0.47402609436E+02 -0.36360122374E+01  0.11067471643E+03  0.00000000000E+00 0. -1.
        -14    1    4    4    0    0  0.19367061814E+01  0.13033891840E+02 -0.18416356469E+02  0.22644985160E+02  0.00000000000E+00 0.  1.
</event>
<event>
12    1  0.8196217E-002  0.2698221E+03  0.7818608E-02  0.1101637E+00
         21   -1    0    0  501  502  0.00000000000E+00  0.00000000000E+00  0.43209911362E+03  0.43209911362E+03  0.00000000000E+00 0.  1.
         21   -1    0    0  502  503 -0.00000000000E+00 -0.00000000000E+00 -0.19874727457E+03  0.19874727457E+03  0.00000000000E+00 0.  1.
         -6    2    1    2    0  503  0.87576874171E+02  0.18752261560E+03 -0.89600194293E+01  0.26819087917E+03  0.17032799381E+03 0.  0.
        -24    2    3    3    0    0  0.92227180849E+02  0.12828745451E+03 -0.61415034080E+02  0.18879284253E+03  0.83110812211E+02 0.  0.
          6    2    1    2  501    0 -0.87576874171E+02 -0.18752261560E+03  0.24231185847E+03  0.36265550901E+03  0.17311713148E+03 0.  0.
         24    2    5    5    0    0 -0.75972365100E+02 -0.20768906269E+03  0.17998672874E+03  0.29596321549E+03  0.79324998470E+02 0.  0.
          5    1    5    5  501    0 -0.11604509071E+02  0.20166447090E+02  0.62325129733E+02  0.66692293523E+02  0.47000000000E+01 0. -1.
        -13    1    6    6    0    0 -0.87016149648E+02 -0.18144116271E+03  0.17575267155E+03  0.26717355293E+03  0.00000000000E+00 0.  1.
         14    1    6    6    0    0  0.11043784548E+02 -0.26247899975E+02  0.42340571869E+01  0.28789662563E+02  0.00000000000E+00 0. -1.
         -5    1    3    3    0  503 -0.46503066788E+01  0.59235161089E+02  0.52455014651E+02  0.79398036648E+02  0.47000000000E+01 0.  1.
         13    1    4    4    0    0  0.33882709667E+02  0.33192255994E+02 -0.60941995379E+02  0.77224935565E+02  0.00000000000E+00 0. -1.
        -14    1    4    4    0    0  0.58344471183E+02  0.95095198513E+02 -0.47303870160E+00  0.11156790696E+03  0.00000000000E+00 0.  1.
</event>
<event>
12    1  0.8196217E-002  0.2618877E+03  0.7818608E-02  0.1106133E+00
         21   -1    0    0  503  502  0.00000000000E+00  0.00000000000E+00  0.40144906743E+02  0.40144906743E+02  0.00000000000E+00 0.  1.
         21   -1    0    0  501  503 -0.00000000000E+00 -0.00000000000E+00 -0.17764591333E+04  0.17764591333E+04  0.00000000000E+00 0.  1.
          6    2    1    2  501    0 -0.47890548877E+02  0.18995186233E+03 -0.10538080506E+04  0.10858621256E+04  0.17381005033E+03 0.  0.
         24    2    3    3    0    0 -0.41465481485E+00  0.81358891313E+02 -0.76436399971E+03  0.77305812550E+03  0.82140734225E+02 0.  0.
         -6    2    1    2    0  502  0.47890548877E+02 -0.18995186233E+03 -0.68250617602E+03  0.73074191451E+03  0.17260895299E+03 0.  0.
        -24    2    5    5    0    0  0.67688413670E+02 -0.11683989062E+03 -0.59293735640E+03  0.61334523949E+03  0.79902395519E+02 0.  0.
          5    1    3    3  501    0 -0.47475894063E+02  0.10859297102E+03 -0.28944405088E+03  0.31280400007E+03  0.47000000000E+01 0. -1.
        -11    1    4    4    0    0 -0.18732653562E+02  0.91638696012E+02 -0.57876228240E+03  0.58627156033E+03  0.00000000000E+00 0.  1.
         12    1    4    4    0    0  0.18317998748E+02 -0.10279804699E+02 -0.18560171730E+03  0.18678656517E+03  0.00000000000E+00 0. -1.
         -5    1    5    5    0  502 -0.19797864792E+02 -0.73111971717E+02 -0.89568819613E+02  0.11739667502E+03  0.47000000000E+01 0.  1.
         13    1    6    6    0    0  0.59014270660E+02 -0.83758770693E+02 -0.27315586419E+03  0.29174019598E+03  0.00000000000E+00 0. -1.
        -14    1    6    6    0    0  0.86741430099E+01 -0.33081119924E+02 -0.31978149222E+03  0.32160504352E+03  0.00000000000E+00 0.  1.
</event>
<event>
12    1  0.8196217E-002  0.1746039E+03  0.7818608E-02  0.1173153E+00
         21   -1    0    0  503  502  0.00000000000E+00  0.00000000000E+00  0.15756615156E+03  0.15756615156E+03  0.00000000000E+00 0.  1.
         21   -1    0    0  501  503 -0.00000000000E+00 -0.00000000000E+00 -0.20039412947E+03  0.20039412947E+03  0.00000000000E+00 0.  1.
          6    2    1    2  501    0  0.18136040178E+02  0.25810248047E+02 -0.54884510301E+02  0.18294060329E+03  0.17163877768E+03 0.  0.
         24    2    3    3    0    0  0.78560622546E+02  0.15142583188E+02 -0.18189747204E+01  0.10168194040E+03  0.62728295806E+02 0.  0.
         -6    2    1    2    0  502 -0.18136040178E+02 -0.25810248047E+02  0.12056532384E+02  0.17501967774E+03  0.17173072749E+03 0.  0.
        -24    2    5    5    0    0 -0.18038187975E+02  0.52274935217E+02  0.31501713386E+01  0.96287735762E+02  0.78761408071E+02 0.  0.
          5    1    3    3  501    0 -0.60424582368E+02  0.10667664860E+02 -0.53065535580E+02  0.81258662888E+02  0.47000000000E+01 0. -1.
        -11    1    4    4    0    0  0.15242821039E+02  0.18108140771E+02 -0.24776446147E+02  0.34265443804E+02  0.00000000000E+00 0.  1.
         12    1    4    4    0    0  0.63317801507E+02 -0.29655575829E+01  0.22957471426E+02  0.67416496600E+02  0.00000000000E+00 0. -1.
         -5    1    5    5    0  502 -0.97852203492E-01 -0.78085183265E+02  0.89063610452E+01  0.78731941978E+02  0.47000000000E+01 0.  1.
         13    1    6    6    0    0  0.29205117065E+02  0.35689867216E+02  0.30620555388E+01  0.46217763563E+02  0.00000000000E+00 0. -1.
        -14    1    6    6    0    0 -0.47243305039E+02  0.16585068001E+02  0.88115799813E-01  0.50069972199E+02  0.00000000000E+00 0.  1.
</event>
<event>
12    1  0.8196217E-002  0.2915364E+03  0.7818608E-02  0.1089737E+00
         21   -1    0    0  503  502  0.00000000000E+00  0.00000000000E+00  0.51786851012E+02  0.51786851012E+02  0.00000000000E+00 0.  1.
         21   -1    0    0  501  503 -0.00000000000E+00 -0.00000000000E+00 -0.21327889797E+04  0.21327889797E+04  0.00000000000E+00 0. -1.
          6    2    1    2  501    0  0.91346470375E+02  0.21593415416E+03 -0.15711808137E+04  0.15979995655E+04  0.17326778583E+03 0.  0.
         24    2    3    3    0    0  0.10877299342E+03  0.21400437044E+03 -0.11984173676E+04  0.12247944149E+04  0.79295252133E+02 0.  0.
         -6    2    1    2    0  502 -0.91346470375E+02 -0.21593415416E+03 -0.50982131505E+03  0.58657626522E+03  0.17082799844E+03 0.  0.
        -24    2    5    5    0    0 -0.47279263678E+02 -0.29447607192E+02 -0.20172418479E+03  0.22371943039E+03  0.79090116078E+02 0.  0.
          5    1    3    3  501    0 -0.17426523041E+02  0.19297837172E+01 -0.37276344605E+03  0.37320515066E+03  0.47000000000E+01 0. -1.
        -13    1    4    4    0    0 -0.10185828198E+02  0.92481303871E+01 -0.11371304031E+03  0.11454228280E+03  0.00000000000E+00 0.  1.
         14    1    4    4    0    0  0.11895882161E+03  0.20475624005E+03 -0.10847043273E+04  0.11102521321E+04  0.00000000000E+00 0. -1.
         -5    1    5    5    0  502 -0.44067206697E+02 -0.18648654697E+03 -0.30809713027E+03  0.36285683483E+03  0.47000000000E+01 0.  1.
         13    1    6    6    0    0 -0.23455368584E+02  0.23402231850E+02 -0.40126261048E+02  0.52037828516E+02  0.00000000000E+00 0. -1.
        -14    1    6    6    0    0 -0.23823895094E+02 -0.52849839041E+02 -0.16159792374E+03  0.17168160187E+03  0.00000000000E+00 0.  1.
</event>
<event>
12    1  0.8196217E-002  0.2274304E+03  0.7818608E-02  0.1128538E+00
         21   -1    0    0  501  502  0.00000000000E+00  0.00000000000E+00  0.82442503328E+03  0.82442503328E+03  0.00000000000E+00 0. -1.
         21   -1    0    0  502  503 -0.00000000000E+00 -0.00000000000E+00 -0.68916448514E+02  0.68916448514E+02  0.00000000000E+00 0.  1.
         -6    2    1    2    0  503 -0.11533060243E+03  0.94746673267E+02  0.24244643171E+03  0.33213088062E+03  0.17103382606E+03 0.  0.
        -24    2    3    3    0    0 -0.14896890895E+03  0.92992110503E+02  0.19949514822E+03  0.27734477919E+03  0.79262500173E+02 0.  0.
          6    2    1    2  501    0  0.11533060243E+03 -0.94746673267E+02  0.51306215305E+03  0.56121060117E+03  0.17159978446E+03 0.  0.
         24    2    5    5    0    0 -0.43924414706E+01 -0.24115586930E+02  0.16409923277E+03  0.18555175684E+03  0.83066486590E+02 0.  0.
          5    1    5    5  501    0  0.11972304390E+03 -0.70631086337E+02  0.34896292028E+03  0.37565884433E+03  0.47000000000E+01 0. -1.
        -11    1    6    6    0    0  0.53541884331E+01 -0.18579985860E+02 -0.16662666895E+01  0.19407721479E+02  0.00000000000E+00 0.  1.
         12    1    6    6    0    0 -0.97466299037E+01 -0.55356010702E+01  0.16576549946E+03  0.16614403536E+03  0.00000000000E+00 0. -1.
         -5    1    3    3    0  503  0.33638306513E+02  0.17545627641E+01  0.42951283496E+02  0.54786101426E+02  0.47000000000E+01 0.  1.
         11    1    4    4    0    0 -0.26524441475E+02  0.54106999451E+02  0.91252269402E+02  0.10935305234E+03  0.00000000000E+00 0. -1.
        -12    1    4    4    0    0 -0.12244446747E+03  0.38885111052E+02  0.10824287881E+03  0.16799172685E+03  0.00000000000E+00 0.  1.
</event>
<event>
12    1  0.8196217E-002  0.2256292E+03  0.7818608E-02  0.1130086E+00
         21   -1    0    0  503  502  0.00000000000E+00  0.00000000000E+00  0.64733935329E+03  0.64733935329E+03  0.00000000000E+00 0.  1.
         21   -1    0    0  501  503 -0.00000000000E+00 -0.00000000000E+00 -0.98267564350E+02  0.98267564350E+02  0.00000000000E+00 0.  1.
          6    2    1    2  501    0 -0.13619715532E+03 -0.50588309744E+02  0.10614078664E+03  0.24934791510E+03  0.17262582072E+03 0.  0.
         24    2    3    3    0    0 -0.15758560063E+03 -0.33998571540E+02  0.50458533554E+02  0.18725694704E+03  0.80808268232E+02 0.  0.
         -6    2    1    2    0  502  0.13619715532E+03  0.50588309744E+02  0.44293100229E+03  0.49625900253E+03  0.17022421273E+03 0.  0.
        -24    2    5    5    0    0  0.11714188342E+03 -0.16203991571E+02  0.21555535848E+03  0.25846478834E+03  0.79719157350E+02 0.  0.
          5    1    3    3  501    0  0.21388445307E+02 -0.16589738204E+02  0.55682253088E+02  0.62090968065E+02  0.47000000000E+01 0. -1.
        -13    1    4    4    0    0 -0.69966337721E+02  0.13060429240E+02 -0.84317319124E+01  0.71672570270E+02  0.00000000000E+00 0.  1.
         14    1    4    4    0    0 -0.87619262905E+02 -0.47059000781E+02  0.58890265466E+02  0.11558437677E+03  0.00000000000E+00 0. -1.
         -5    1    5    5    0  502  0.19055271896E+02  0.66792301315E+02  0.22737564382E+03  0.23779421419E+03  0.47000000000E+01 0.  1.
         11    1    6    6    0    0  0.66676959978E+02  0.31955919017E+01  0.47504521156E+02  0.81931119422E+02  0.00000000000E+00 0. -1.
        -12    1    6    6    0    0  0.50464923445E+02 -0.19399583472E+02  0.16805083732E+03  0.17653366892E+03  0.00000000000E+00 0.  1.
</event>
<event>
12    1  0.8196217E-002  0.1862446E+03  0.7818608E-02  0.1162427E+00
         21   -1    0    0  501  502  0.00000000000E+00  0.00000000000E+00  0.18653107714E+03  0.18653107714E+03  0.00000000000E+00 0. -1.
         21   -1    0    0  502  503 -0.00000000000E+00 -0.00000000000E+00 -0.23541301519E+03  0.23541301519E+03  0.00000000000E+00 0. -1.
         -6    2    1    2    0  503  0.57800000604E+02  0.10707462041E+02 -0.12322556216E+03  0.22140978437E+03  0.17430508780E+03 0.  0.
        -24    2    3    3    0    0 -0.64309220750E+01  0.32925493336E+02 -0.29905407378E+01  0.83214984471E+02  0.76094319344E+02 0.  0.
          6    2    1    2  501    0 -0.57800000604E+02 -0.10707462041E+02  0.74343624110E+02  0.20053430797E+03  0.17672448730E+03 0.  0.
         24    2    5    5    0    0 -0.43109487869E+01  0.53353837579E+02  0.14938525372E+02  0.97986833450E+02  0.80703430692E+02 0.  0.
          5    1    5    5  501    0 -0.53489051817E+02 -0.64061299620E+02  0.59405098738E+02  0.10254747452E+03  0.47000000000E+01 0. -1.
        -11    1    6    6    0    0  0.23054937263E+02  0.26716438667E+02  0.39198657981E+02  0.52743084995E+02  0.00000000000E+00 0.  1.
         12    1    6    6    0    0 -0.27365886049E+02  0.26637398912E+02 -0.24260132610E+02  0.45243748455E+02  0.00000000000E+00 0. -1.
         -5    1    3    3    0  503  0.64230922679E+02 -0.22218031295E+02 -0.12023502142E+03  0.13819479990E+03  0.47000000000E+01 0.  1.
         13    1    4    4    0    0 -0.10188747896E+02 -0.62560458920E+01 -0.32103143102E+02  0.34257269169E+02  0.00000000000E+00 0. -1.
        -14    1    4    4    0    0  0.37578258208E+01  0.39181539228E+02  0.29112602364E+02  0.48957715302E+02  0.00000000000E+00 0.  1.
</event>
<event>
12    1  0.8196217E-002  0.1939151E+03  0.7818608E-02  0.1155020E+00
         21   -1    0    0  501  502  0.00000000000E+00  0.00000000000E+00  0.11693140283E+03  0.11693140283E+03  0.00000000000E+00 0.  1.
         21   -1    0    0  502  503 -0.00000000000E+00 -0.00000000000E+00 -0.44807435660E+03  0.44807435660E+03  0.00000000000E+00 0.  1.
         -6    2    1    2    0  503  0.86302847895E+02  0.24699909356E+02 -0.31580452523E+03  0.37048498344E+03  0.17166350142E+03 0.  0.
        -24    2    3    3    0    0  0.39567342086E+02  0.78543668642E+02 -0.16322605567E+03  0.20200460686E+03  0.80177512444E+02 0.  0.
          6    2    1    2  501    0 -0.86302847895E+02 -0.24699909356E+02 -0.15338428550E+02  0.19452077599E+03  0.17188600241E+03 0.  0.
         24    2    5    5    0    0 -0.72890385111E+02  0.26873926360E+00 -0.74177454126E+02  0.12904216496E+03  0.76397023336E+02 0.  0.
          5    1    5    5  501    0 -0.13412462784E+02 -0.24968648619E+02  0.58839025576E+02  0.65478611031E+02  0.47000000000E+01 0. -1.
        -13    1    6    6    0    0 -0.47672586704E+02 -0.73218431853E+01  0.21698749950E+01  0.48280361103E+02  0.00000000000E+00 0.  1.
         14    1    6    6    0    0 -0.25217798406E+02  0.75905824489E+01 -0.76347329121E+02  0.80761803857E+02  0.00000000000E+00 0. -1.
         -5    1    3    3    0  503  0.46735505808E+02 -0.53843759286E+02 -0.15257846956E+03  0.16848037657E+03  0.47000000000E+01 0.  1.
         13    1    4    4    0    0  0.14304546230E+01  0.79793419099E+02 -0.97411173976E+02  0.12592844296E+03  0.00000000000E+00 0. -1.
        -14    1    4    4    0    0  0.38136887463E+02 -0.12497504570E+01 -0.65814881692E+02  0.76076163900E+02  0.00000000000E+00 0.  1.
</event>
<event>
12    1  0.8196217E-002  0.1782628E+03  0.7818608E-02  0.1169844E+00
         21   -1    0    0  501  502  0.00000000000E+00  0.00000000000E+00  0.70683106320E+02  0.70683106320E+02  0.00000000000E+00 0. -1.
         21   -1    0    0  502  503 -0.00000000000E+00 -0.00000000000E+00 -0.11738661756E+04  0.11738661756E+04  0.00000000000E+00 0. -1.
         -6    2    1    2    0  503  0.30062865955E+02  0.31492341905E+02 -0.10424255797E+04  0.10575579082E+04  0.17286438770E+03 0.  0.
        -24    2    3    3    0    0 -0.42594887749E+02  0.22013286190E+02 -0.38828308441E+03  0.39930757909E+03  0.79899185512E+02 0.  0.
          6    2    1    2  501    0 -0.30062865955E+02 -0.31492341905E+02 -0.60757489602E+02  0.18699137371E+03  0.17140232727E+03 0.  0.
         24    2    5    5    0    0 -0.13697107097E+02 -0.23774801441E+02 -0.10768537712E+03  0.13647686965E+03  0.79227164387E+02 0.  0.
          5    1    5    5  501    0 -0.16365758859E+02 -0.77175404645E+01  0.46927887520E+02  0.50514504065E+02  0.47000000000E+01 0. -1.
        -11    1    6    6    0    0 -0.20755017254E+02  0.15952782680E+02 -0.87554743581E+02  0.91384326555E+02  0.00000000000E+00 0.  1.
         12    1    6    6    0    0  0.70579101568E+01 -0.39727584121E+02 -0.20130633542E+02  0.45092543094E+02  0.00000000000E+00 0. -1.
         -5    1    3    3    0  503  0.72657753704E+02  0.94790557153E+01 -0.65414249529E+03  0.65825032915E+03  0.47000000000E+01 0.  1.
         13    1    4    4    0    0 -0.25724428707E+02  0.46039704881E+02 -0.32848311983E+03  0.33268988663E+03  0.00000000000E+00 0. -1.
        -14    1    4    4    0    0 -0.16870459042E+02 -0.24026418691E+02 -0.59799964585E+02  0.66617692454E+02  0.00000000000E+00 0.  1.
</event>
<event>
12    1  0.8196217E-002  0.3439535E+03  0.7818608E-02  0.1065264E+00
         21   -1    0    0  501  502  0.00000000000E+00  0.00000000000E+00  0.19083332708E+03  0.19083332708E+03  0.00000000000E+00 0. -1.
         21   -1    0    0  502  503 -0.00000000000E+00 -0.00000000000E+00 -0.72764821716E+03  0.72764821716E+03  0.00000000000E+00 0.  1.
         -6    2    1    2    0  503 -0.29152341262E+03  0.56326454942E+02 -0.44748701289E+03  0.56440115035E+03  0.17362448609E+03 0.  0.
        -24    2    3    3    0    0 -0.27394069378E+03  0.71208055746E+02 -0.32393213375E+03  0.43862948341E+03  0.85730423590E+02 0.  0.
          6    2    1    2  501    0  0.29152341262E+03 -0.56326454942E+02 -0.89327877187E+02  0.35408039389E+03  0.17098212205E+03 0.  0.
         24    2    5    5    0    0  0.14716354759E+03  0.36498596164E+02 -0.46337180327E+02  0.17708731278E+03  0.78889319966E+02 0.  0.
          5    1    5    5  501    0  0.14435986503E+03 -0.92825051106E+02 -0.42990696860E+02  0.17699308111E+03  0.47000000000E+01 0. -1.
        -11    1    6    6    0    0  0.11626108746E+03  0.24057635680E+02 -0.68507213980E+02  0.13707169167E+03  0.00000000000E+00 0.  1.
         12    1    6    6    0    0  0.30902460133E+02  0.12440960485E+02  0.22170033653E+02  0.40015621102E+02  0.00000000000E+00 0. -1.
         -5    1    3    3    0  503 -0.17582718847E+02 -0.14881600804E+02 -0.12355487914E+03  0.12577166694E+03  0.47000000000E+01 0.  1.
         13    1    4    4    0    0 -0.65997425334E+02  0.27513675428E+02 -0.34009723175E+02  0.79179061353E+02  0.00000000000E+00 0. -1.
        -14    1    4    4    0    0 -0.20794326844E+03  0.43694380318E+02 -0.28992241057E+03  0.35945042206E+03  0.00000000000E+00 0.  1.
</event>
<event>
12    1  0.8196217E-002  0.2302842E+03  0.7818608E-02  0.1126658E+00
         21   -1    0    0  503  502  0.00000000000E+00  0.00000000000E+00  0.12631322702E+03  0.12631322702E+03  0.00000000000E+00 0.  1.
         21   -1    0    0  501  503 -0.00000000000E+00 -0.00000000000E+00 -0.44148653821E+03  0.44148653821E+03  0.00000000000E+00 0.  1.
          6    2    1    2  501    0 -0.80464964479E+02  0.12985292596E+03 -0.22324405238E+03  0.31984449178E+03  0.17066399476E+03 0.  0.
         24    2    3    3    0    0 -0.11563111802E+03  0.72587005112E+02 -0.17337137426E+03  0.23602672476E+03  0.83735014318E+02 0.  0.
         -6    2    1    2    0  502  0.80464964479E+02 -0.12985292596E+03 -0.91929258811E+02  0.24795527345E+03  0.17232073618E+03 0.  0.
        -24    2    5    5    0    0  0.12099925370E+01 -0.55190200426E+02 -0.10674719418E+03  0.13796648143E+03  0.67766984791E+02 0.  0.
          5    1    3    3  501    0  0.35166153540E+02  0.57265920843E+02 -0.49872678124E+02  0.83817767019E+02  0.47000000000E+01 0. -1.
        -13    1    4    4    0    0 -0.32162197622E+02  0.62461334599E+02 -0.48060001704E+02  0.85121025838E+02  0.00000000000E+00 0.  1.
         14    1    4    4    0    0 -0.83468920397E+02  0.10125670512E+02 -0.12531137255E+03  0.15090569892E+03  0.00000000000E+00 0. -1.
         -5    1    5    5    0  502  0.79254971942E+02 -0.74662725529E+02  0.14817935372E+02  0.10998879202E+03  0.47000000000E+01 0.  1.
         11    1    6    6    0    0 -0.20995708635E+02 -0.22074832891E+02 -0.80360967576E+01  0.31507092525E+02  0.00000000000E+00 0. -1.
        -12    1    6    6    0    0  0.22205701172E+02 -0.33115367535E+02 -0.98711097425E+02  0.10645938891E+03  0.00000000000E+00 0.  1.
</event>
<event>
12    1  0.8196217E-002  0.1883539E+03  0.7818608E-02  0.1160247E+00
         21   -1    0    0  503  502  0.00000000000E+00  0.00000000000E+00  0.16756704258E+03  0.16756704258E+03  0.00000000000E+00 0.  1.
         21   -1    0    0  501  503 -0.00000000000E+00 -0.00000000000E+00 -0.32645833590E+03  0.32645833590E+03  0.00000000000E+00 0.  1.
          6    2    1    2  501    0  0.75450372737E+02 -0.19209430640E+01 -0.22697278020E+03  0.29494716560E+03  0.17257096735E+03 0.  0.
         24    2    3    3    0    0  0.11342812219E+03 -0.19273234378E+02 -0.20283911343E+03  0.24649166705E+03  0.79856368068E+02 0.  0.
         -6    2    1    2    0  502 -0.75450372737E+02  0.19209430640E+01  0.68081486874E+02  0.19907821289E+03  0.17117417218E+03 0.  0.
        -24    2    5    5    0    0 -0.33372605964E+02  0.57513922075E+01 -0.32484841910E+02  0.89895397011E+02  0.76675342247E+02 0.  0.
          5    1    3    3  501    0 -0.37977749455E+02  0.17352291314E+02 -0.24133666770E+02  0.48455498545E+02  0.47000000000E+01 0. -1.
        -13    1    4    4    0    0  0.24827690768E+02 -0.41316025158E+02 -0.59964453897E+02  0.76936102676E+02  0.00000000000E+00 0.  1.
         14    1    4    4    0    0  0.88600431423E+02  0.22042790780E+02 -0.14287465953E+03  0.16955556437E+03  0.00000000000E+00 0. -1.
         -5    1    5    5    0  502 -0.42077766773E+02 -0.38304491435E+01  0.10056632878E+03  0.10918281588E+03  0.47000000000E+01 0.  1.
         11    1    6    6    0    0 -0.18273463113E+02 -0.35481009747E+02 -0.15622169204E+02  0.42858764302E+02  0.00000000000E+00 0. -1.
        -12    1    6    6    0    0 -0.15099142851E+02  0.41232401955E+02 -0.16862672706E+02  0.47036632709E+02  0.00000000000E+00 0.  1.
</event>
<event>
12    1  0.8196217E-002  0.1852090E+03  0.7818608E-02  0.1164626E+00
         21   -1    0    0  503  502  0.00000000000E+00  0.00000000000E+00  0.11768788001E+04  0.11768788001E+04  0.00000000000E+00 0. -1.
         21   -1    0    0  501  503 -0.00000000000E+00 -0.00000000000E+00 -0.89270784802E+02  0.89270784802E+02  0.00000000000E+00 0.  1.
          6    2    1    2  501    0 -0.27676247203E+02 -0.36228134015E+02  0.22804737808E+02  0.18660766809E+03  0.17951020408E+03 0.  0.
         24    2    3    3    0    0  0.78926205794E+01 -0.11915388541E+02 -0.53971920590E+02  0.98443053741E+02  0.81078953336E+02 0.  0.
         -6    2    1    2    0  502  0.27676247203E+02  0.36228134015E+02  0.10648032775E+04  0.10795419169E+04  0.17183212172E+03 0.  0.
        -24    2    5    5    0    0  0.58577153014E+02  0.73187998307E+02  0.87206788968E+03  0.88082121518E+03  0.80968159990E+02 0.  0.
          5    1    3    3  501    0 -0.35568867782E+02 -0.24312745475E+02  0.76776658398E+02  0.88164614345E+02  0.47000000000E+01 0. -1.
        -11    1    4    4    0    0 -0.35580376394E+01 -0.46062191391E+02 -0.32889270277E+02  0.56710574031E+02  0.00000000000E+00 0.  1.
         12    1    4    4    0    0  0.11450658219E+02  0.34146802850E+02 -0.21082650313E+02  0.41732479710E+02  0.00000000000E+00 0. -1.
         -5    1    5    5    0  502 -0.30900905811E+02 -0.36959864292E+02  0.19273538784E+03  0.19872070168E+03  0.47000000000E+01 0.  1.
         11    1    6    6    0    0  0.61772687287E+02  0.22189798436E+02  0.33798215859E+03  0.34429666216E+03  0.00000000000E+00 0. -1.
        -12    1    6    6    0    0 -0.31955342729E+01  0.50998199871E+02  0.53408573109E+03  0.53652455301E+03  0.00000000000E+00 0.  1.
</event>
<event>
12    1  0.8196217E-002  0.2018066E+03  0.7818608E-02  0.1149790E+00
         21   -1    0    0  503  502  0.00000000000E+00  0.00000000000E+00  0.95008132469E+03  0.95008132469E+03  0.00000000000E+00 0. -1.
         21   -1    0    0  501  503 -0.00000000000E+00 -0.00000000000E+00 -0.55975430156E+02  0.55975430156E+02  0.00000000000E+00 0. -1.
          6    2    1    2  501    0 -0.32490650527E+00  0.91830816337E+02  0.18352586147E+03  0.26737558305E+03  0.17139123721E+03 0.  0.
         24    2    3    3    0    0 -0.11388049073E+02 -0.91608016167E+01  0.12837270985E+03  0.15167916931E+03  0.79456968356E+02 0.  0.
         -6    2    1    2    0  502  0.32490650527E+00 -0.91830816337E+02  0.71058003307E+03  0.73868117179E+03  0.17970221415E+03 0.  0.
        -24    2    5    5    0    0 -0.59895250067E+01 -0.79040582971E+02  0.71426161950E+03  0.72321811279E+03  0.81187988169E+02 0.  0.
          5    1    3    3  501    0  0.11063142568E+02  0.10099161795E+03  0.55153151619E+02  0.11569641375E+03  0.47000000000E+01 0. -1.
        -11    1    4    4    0    0 -0.25389849701E+02  0.21548663575E+02  0.10619453263E+03  0.11129361226E+03  0.00000000000E+00 0.  1.
         12    1    4    4    0    0  0.14001800627E+02 -0.30709465192E+02  0.22178177215E+02  0.40385557044E+02  0.00000000000E+00 0. -1.
         -5    1    5    5    0  502  0.63144315120E+01 -0.12790233366E+02 -0.36815864284E+01  0.15463058996E+02  0.47000000000E+01 0.  1.
         11    1    6    6    0    0  0.13896772660E+02 -0.89664757404E+02  0.55488230285E+03  0.56225195334E+03  0.00000000000E+00 0. -1.
        -12    1    6    6    0    0 -0.19886297666E+02  0.10624174433E+02  0.15937931664E+03  0.16096615946E+03  0.00000000000E+00 0.  1.
</event>
<event>
12    1  0.8196217E-002  0.2139793E+03  0.7818608E-02  0.1138516E+00
         21   -1    0    0  503  502  0.00000000000E+00  0.00000000000E+00  0.38119585124E+03  0.38119585124E+03  0.00000000000E+00 0.  1.
         21   -1    0    0  501  503 -0.00000000000E+00 -0.00000000000E+00 -0.37054895847E+03  0.37054895847E+03  0.00000000000E+00 0.  1.
          6    2    1    2  501    0  0.56047220254E+02 -0.11532827487E+03 -0.30379453010E+03  0.37140212436E+03  0.17089915031E+03 0.  0.
         24    2    3    3    0    0 -0.96838221577E+01 -0.11667578403E+03 -0.16326311775E+03  0.21618114132E+03  0.79827471804E+02 0.  0.
         -6    2    1    2    0  502 -0.56047220254E+02  0.11532827487E+03  0.31444142288E+03  0.38034268535E+03  0.17130454750E+03 0.  0.
        -24    2    5    5    0    0  0.63556081224E+00  0.18329692460E+02  0.21500125754E+03  0.23023572634E+03  0.80290518603E+02 0.  0.
          5    1    3    3  501    0  0.65731042412E+02  0.13475091631E+01 -0.14053141236E+03  0.15522098304E+03  0.47000000000E+01 0. -1.
        -13    1    4    4    0    0  0.32881525930E+02 -0.46662397826E+02 -0.88187119285E+02  0.10505018861E+03  0.00000000000E+00 0.  1.
         14    1    4    4    0    0 -0.42565348088E+02 -0.70013386209E+02 -0.75075998465E+02  0.11113095272E+03  0.00000000000E+00 0. -1.
         -5    1    5    5    0  502 -0.56682781066E+02  0.96998582411E+02  0.99440165336E+02  0.15010695900E+03  0.47000000000E+01 0.  1.
         11    1    6    6    0    0 -0.17070219187E+02 -0.23028847596E+02  0.13893137681E+03  0.14185784317E+03  0.00000000000E+00 0. -1.
        -12    1    6    6    0    0  0.17705779999E+02  0.41358540056E+02  0.76069880728E+02  0.88377883177E+02  0.00000000000E+00 0.  1.
</event>
<event>
12    1  0.8196217E-002  0.2765158E+03  0.7818608E-02  0.1097777E+00
         21   -1    0    0  501  502  0.00000000000E+00  0.00000000000E+00  0.97566294522E+02  0.97566294522E+02  0.00000000000E+00 0.  1.
         21   -1    0    0  502  503 -0.00000000000E+00 -0.00000000000E+00 -0.18474927217E+04  0.18474927217E+04  0.00000000000E+00 0. -1.
         -6    2    1    2    0  503  0.21489054082E+03  0.24057815034E+02 -0.16133197083E+04  0.16366398876E+04  0.17039048534E+03 0.  0.
        -24    2    3    3    0    0  0.13632911187E+03  0.80453847739E+02 -0.11153210064E+04  0.11293163146E+04  0.79724166683E+02 0.  0.
          6    2    1    2  501    0 -0.21489054082E+03 -0.24057815034E+02 -0.13660671886E+03  0.30841912860E+03  0.17234918117E+03 0.  0.
         24    2    5    5    0    0 -0.22097015302E+03 -0.17016134775E+02 -0.76916667951E+02  0.24782590190E+03  0.79900854019E+02 0.  0.
          5    1    5    5  501    0  0.60796121960E+01 -0.70416802596E+01 -0.59690050910E+02  0.60593226709E+02  0.47000000000E+01 0. -1.
        -11    1    6    6    0    0 -0.90954368824E+02 -0.45955248997E+02 -0.25481549840E+02  0.10504233195E+03  0.00000000000E+00 0.  1.
         12    1    6    6    0    0 -0.13001578420E+03  0.28939114222E+02 -0.51435118111E+02  0.14278356995E+03  0.00000000000E+00 0. -1.
         -5    1    3    3    0  503  0.78561428959E+02 -0.56396032705E+02 -0.49799870194E+03  0.50732357304E+03  0.47000000000E+01 0.  1.
         13    1    4    4    0    0  0.12917739249E+03  0.53146957302E+02 -0.10304459325E+04  0.10398702889E+04  0.00000000000E+00 0. -1.
        -14    1    4    4    0    0  0.71517193746E+01  0.27306890437E+02 -0.84875073849E+02  0.89446025715E+02  0.00000000000E+00 0.  1.
</event>
<event>
12    1  0.8196217E-002  0.2006908E+03  0.7818608E-02  0.1149395E+00
         21   -1    0    0  501  502  0.00000000000E+00  0.00000000000E+00  0.99732571388E+03  0.99732571388E+03  0.00000000000E+00 0.  1.
         21   -1    0    0  502  503 -0.00000000000E+00 -0.00000000000E+00 -0.16518279941E+03  0.16518279941E+03  0.00000000000E+00 0.  1.
         -6    2    1    2    0  503  0.32872005493E+01 -0.10093893976E+03 -0.89329721286E+02  0.21967386691E+03  0.17342817952E+03 0.  0.
        -24    2    3    3    0    0 -0.49683655350E+02 -0.30274191088E+02 -0.65914194700E+01  0.98565919745E+02  0.79289352813E+02 0.  0.
          6    2    1    2  501    0 -0.32872005493E+01  0.10093893976E+03  0.92147263575E+03  0.94283464639E+03  0.17212169166E+03 0.  0.
         24    2    5    5    0    0 -0.16892284618E+01  0.13402084550E+03  0.84065881859E+03  0.85537077358E+03  0.83591091017E+02 0.  0.
          5    1    5    5  501    0 -0.15979720875E+01 -0.33081905744E+02  0.80813817167E+02  0.87463872813E+02  0.47000000000E+01 0. -1.
        -13    1    6    6    0    0 -0.64810633922E+01  0.12167254186E+03  0.50650119314E+03  0.52095073690E+03  0.00000000000E+00 0.  1.
         14    1    6    6    0    0  0.47918349304E+01  0.12348303638E+02  0.33415762545E+03  0.33442003668E+03  0.00000000000E+00 0. -1.
         -5    1    3    3    0  503  0.52970855899E+02 -0.70664748667E+02 -0.82738301816E+02  0.12110794716E+03  0.47000000000E+01 0.  1.
         13    1    4    4    0    0 -0.35594723699E+02 -0.26789103386E+02 -0.41422855758E+02  0.60831680846E+02  0.00000000000E+00 0. -1.
        -14    1    4    4    0    0 -0.14088931651E+02 -0.34850877023E+01  0.34831436288E+02  0.37734238899E+02  0.00000000000E+00 0.  1.
</event>
<event>
12    1  0.8196217E-002  0.2054948E+03  0.7818608E-02  0.1145302E+00
         21   -1    0    0  503  502  0.00000000000E+00  0.00000000000E+00  0.35876518798E+03  0.35876518798E+03  0.00000000000E+00 0. -1.
         21   -1    0    0  501  503 -0.00000000000E+00 -0.00000000000E+00 -0.11744085726E+03  0.11744085726E+03  0.00000000000E+00 0.  1.
          6    2    1    2  501    0 -0.11027831926E+03 -0.26678393845E+02  0.12649445966E+03  0.24130677422E+03  0.17133320333E+03 0.  0.
         24    2    3    3    0    0 -0.10366634084E+03 -0.77493729198E+02  0.10855041644E+03  0.18680911140E+03  0.79765048147E+02 0.  0.
         -6    2    1    2    0  502  0.11027831926E+03  0.26678393845E+02  0.11482987106E+03  0.23489927103E+03  0.17064209282E+03 0.  0.
        -24    2    5    5    0    0  0.60790383093E+02  0.67307502322E+02  0.23967243991E+02  0.12364331712E+03  0.80544835575E+02 0.  0.
          5    1    3    3  501    0 -0.66119784275E+01  0.50815335354E+02  0.17944043222E+02  0.54497662821E+02  0.47000000000E+01 0. -1.
        -13    1    4    4    0    0 -0.57737275865E+02 -0.64504003775E+02  0.24197093866E+02  0.89888035238E+02  0.00000000000E+00 0.  1.
         14    1    4    4    0    0 -0.45929064971E+02 -0.12989725424E+02  0.84353322570E+02  0.96921076162E+02  0.00000000000E+00 0. -1.
         -5    1    5    5    0  502  0.49487936171E+02 -0.40629108477E+02  0.90862627072E+02  0.11125595391E+03  0.47000000000E+01 0.  1.
         13    1    6    6    0    0  0.33697653866E+02  0.76930801758E+02  0.37364824970E+02  0.91923937471E+02  0.00000000000E+00 0. -1.
        -14    1    6    6    0    0  0.27092729227E+02 -0.96232994360E+01 -0.13397580980E+02  0.31719379646E+02  0.00000000000E+00 0.  1.
</event>
<event>
12    1  0.8196217E-002  0.2341169E+03  0.7818608E-02  0.1123894E+00
         21   -1    0    0  503  502  0.00000000000E+00  0.00000000000E+00  0.10014906852E+03  0.10014906852E+03  0.00000000000E+00 0. -1.
         21   -1    0    0  501  503 -0.00000000000E+00 -0.00000000000E+00 -0.66655045545E+03  0.66655045545E+03  0.00000000000E+00 0. -1.
          6    2    1    2  501    0  0.15770998906E+03 -0.71966400619E+01 -0.44678743479E+03  0.50441028927E+03  0.17287711172E+03 0.  0.
         24    2    3    3    0    0  0.15958494190E+03 -0.51404010360E+02 -0.39447579494E+03  0.43573420391E+03  0.78379957264E+02 0.  0.
         -6    2    1    2    0  502 -0.15770998906E+03  0.71966400619E+01 -0.11961395214E+03  0.26228923470E+03  0.17194159710E+03 0.  0.
        -24    2    5    5    0    0 -0.14396892518E+03  0.13292134214E+01 -0.15360341753E+03  0.22486441285E+03  0.79001114322E+02 0.  0.
          5    1    3    3  501    0 -0.18749528343E+01  0.44207370298E+02 -0.52311639845E+02  0.68676085358E+02  0.47000000000E+01 0. -1.
        -11    1    4    4    0    0  0.88497520443E+02 -0.68560040985E+02 -0.23851453959E+03  0.26347955507E+03  0.00000000000E+00 0.  1.
         12    1    4    4    0    0  0.71087421454E+02  0.17156030625E+02 -0.15596125536E+03  0.17225464884E+03  0.00000000000E+00 0. -1.
         -5    1    5    5    0  502 -0.13741063883E+02  0.58674266405E+01  0.33989465398E+02  0.37424821844E+02  0.47000000000E+01 0.  1.
         11    1    6    6    0    0 -0.65113859619E+02 -0.25610457532E+02 -0.11116051659E+03  0.13134828015E+03  0.00000000000E+00 0. -1.
        -12    1    6    6    0    0 -0.78855065561E+02  0.26939670954E+02 -0.42442900947E+02  0.93516132707E+02  0.00000000000E+00 0.  1.
</event>
<event>
12    1  0.8196217E-002  0.1909334E+03  0.7818608E-02  0.1159019E+00
         21   -1    0    0  501  502  0.00000000000E+00  0.00000000000E+00  0.13613456198E+03  0.13613456198E+03  0.00000000000E+00 0.  1.
         21   -1    0    0  502  503 -0.00000000000E+00 -0.00000000000E+00 -0.26075357645E+03  0.26075357645E+03  0.00000000000E+00 0.  1.
         -6    2    1    2    0  503  0.55775110574E+02 -0.37481553001E+02 -0.76271405076E+02  0.19992858495E+03  0.17215801484E+03 0.  0.
        -24    2    3    3    0    0 -0.31169062668E+02  0.71154612436E+01 -0.49831706823E+02  0.98590879316E+02  0.78834143764E+02 0.  0.
          6    2    1    2  501    0 -0.55775110574E+02  0.37481553001E+02 -0.48347609385E+02  0.19695955348E+03  0.17871721964E+03 0.  0.
         24    2    5    5    0    0 -0.69414653091E+02  0.10082499777E+02 -0.94652806923E+02  0.14125491671E+03  0.77934246466E+02 0.  0.
          5    1    5    5  501    0  0.13639542517E+02  0.27399053225E+02  0.46305197538E+02  0.55704636761E+02  0.47000000000E+01 0. -1.
        -13    1    6    6    0    0 -0.69954051872E+02 -0.21087915915E+02 -0.73112596505E+02  0.10336208850E+03  0.00000000000E+00 0.  1.
         14    1    6    6    0    0  0.53939878044E+00  0.31170415692E+02 -0.21540210417E+02  0.37892828217E+02  0.00000000000E+00 0. -1.
         -5    1    3    3    0  503  0.86944173242E+02 -0.44597014245E+02 -0.26439698253E+02  0.10133770564E+03  0.47000000000E+01 0.  1.
         11    1    4    4    0    0 -0.47927490013E+02  0.25275225772E+02 -0.15623858416E+02  0.56391367146E+02  0.00000000000E+00 0. -1.
        -12    1    4    4    0    0  0.16758427345E+02 -0.18159764528E+02 -0.34207848406E+02  0.42199512170E+02  0.00000000000E+00 0.  1.
</event>
<event>
12    1  0.8196217E-002  0.1839400E+03  0.7818608E-02  0.1164284E+00
         21   -1    0    0  501  502  0.00000000000E+00  0.00000000000E+00  0.12675117749E+03  0.12675117749E+03  0.00000000000E+00 0.  1.
         21   -1    0    0  502  503 -0.00000000000E+00 -0.00000000000E+00 -0.50861983341E+03  0.50861983341E+03  0.00000000000E+00 0. -1.
         -6    2    1    2    0  503  0.63249942491E+02  0.62837174785E+01 -0.41087027381E+03  0.45016475847E+03  0.17260905982E+03 0.  0.
        -24    2    3    3    0    0  0.60439321874E+02 -0.43578670229E+02 -0.36931775050E+03  0.38502752265E+03  0.79363595150E+02 0.  0.
          6    2    1    2  501    0 -0.63249942491E+02 -0.62837174785E+01  0.29001617890E+02  0.18520625243E+03  0.17152323974E+03 0.  0.
         24    2    5    5    0    0 -0.67549888682E+02  0.41769086201E+02  0.59690524097E+02  0.12783500142E+03  0.80443675314E+02 0.  0.
          5    1    5    5  501    0  0.42999461912E+01 -0.48052803679E+02 -0.30688906206E+02  0.57371251013E+02  0.47000000000E+01 0. -1.
        -11    1    6    6    0    0 -0.25552057658E+02  0.61496714753E+02  0.37028427397E+02  0.76196181082E+02  0.00000000000E+00 0.  1.
         12    1    6    6    0    0 -0.41997831024E+02 -0.19727628552E+02  0.22662096699E+02  0.51638820338E+02  0.00000000000E+00 0. -1.
         -5    1    3    3    0  503  0.28106206176E+01  0.49862387707E+02 -0.41552523311E+02  0.65137235815E+02  0.47000000000E+01 0.  1.
         11    1    4    4    0    0  0.70275448464E+02 -0.67317642602E+01 -0.24849938702E+03  0.25833292600E+03  0.00000000000E+00 0. -1.
        -12    1    4    4    0    0 -0.98361265906E+01 -0.36846905969E+02 -0.12081836349E+03  0.12669459665E+03  0.00000000000E+00 0.  1.
</event>
<event>
12    1  0.8196217E-002  0.1978809E+03  0.7818608E-02  0.1152632E+00
         21   -1    0    0  503  502  0.00000000000E+00  0.00000000000E+00  0.30954427145E+03  0.30954427145E+03  0.00000000000E+00 0.  1.
         21   -1    0    0  501  503 -0.00000000000E+00 -0.00000000000E+00 -0.16675632855E+03  0.16675632855E+03  0.00000000000E+00 0. -1.
          6    2    1    2  501    0 -0.11753935426E+02  0.86420625180E+02 -0.49492743712E+02  0.20397641973E+03  0.17762367148E+03 0.  0.
         24    2    3    3    0    0  0.54988331599E+02  0.32608949400E+02 -0.57747788003E+02  0.11771830467E+03  0.80223014411E+02 0.  0.
         -6    2    1    2    0  502  0.11753935426E+02 -0.86420625180E+02  0.19228068661E+03  0.27232418027E+03  0.17199394542E+03 0.  0.
        -24    2    5    5    0    0 -0.75301044243E+01 -0.83286399792E+02  0.45641867253E+02  0.12431495453E+03  0.79860509709E+02 0.  0.
          5    1    3    3  501    0 -0.66742267025E+02  0.53811675780E+02  0.82550442912E+01  0.86258115062E+02  0.47000000000E+01 0. -1.
        -13    1    4    4    0    0  0.22386222274E+02 -0.23798457493E+02 -0.33519061987E+01  0.32844250667E+02  0.00000000000E+00 0.  1.
         14    1    4    4    0    0  0.32602109325E+02  0.56407406893E+02 -0.54395881804E+02  0.84874053998E+02  0.00000000000E+00 0. -1.
         -5    1    5    5    0  502  0.19284039850E+02 -0.31342253882E+01  0.14663881935E+03  0.14800922574E+03  0.47000000000E+01 0.  1.
         11    1    6    6    0    0 -0.28519035434E+02  0.10336498921E+01  0.81512557887E+01  0.29679063077E+02  0.00000000000E+00 0. -1.
        -12    1    6    6    0    0  0.20988931009E+02 -0.84320049684E+02  0.37490611464E+02  0.94635891456E+02  0.00000000000E+00 0.  1.
</event>
<event>
12    1  0.8196217E-002  0.2069152E+03  0.7818608E-02  0.1144099E+00
         21   -1    0    0  503  502  0.00000000000E+00  0.00000000000E+00  0.87930500906E+03  0.87930500906E+03  0.00000000000E+00 0.  1.
         21   -1    0    0  501  503 -0.00000000000E+00 -0.00000000000E+00 -0.10965690519E+03  0.10965690519E+03  0.00000000000E+00 0. -1.
          6    2    1    2  501    0 -0.60942815762E+02 -0.96932433368E+02  0.16022414186E+02  0.20753466224E+03  0.17234846923E+03 0.  0.
         24    2    3    3    0    0 -0.47261636630E+02 -0.36640839900E+02  0.72379766788E+02  0.12374628538E+03  0.80610787488E+02 0.  0.
         -6    2    1    2    0  502  0.60942815762E+02  0.96932433368E+02  0.75362568969E+03  0.78142725200E+03  0.17195041896E+03 0.  0.
        -24    2    5    5    0    0 -0.16186932077E+01  0.24164156161E+02  0.54938309712E+03  0.55571440082E+03  0.80063607587E+02 0.  0.
          5    1    3    3  501    0 -0.13681179133E+02 -0.60291593468E+02 -0.56357352601E+02  0.83788376864E+02  0.47000000000E+01 0. -1.
        -11    1    4    4    0    0  0.10202779246E+02 -0.23540052974E+01  0.53079726318E+02  0.54102637563E+02  0.00000000000E+00 0.  1.
         12    1    4    4    0    0 -0.57464415876E+02 -0.34286834603E+02  0.19300040470E+02  0.69643647816E+02  0.00000000000E+00 0. -1.
         -5    1    5    5    0  502  0.62561508970E+02  0.72768277206E+02  0.20424259257E+03  0.22571285118E+03  0.47000000000E+01 0.  1.
         11    1    6    6    0    0 -0.32447145585E+02 -0.11923670569E+02  0.17948083511E+03  0.18277954303E+03  0.00000000000E+00 0. -1.
        -12    1    6    6    0    0  0.30828452378E+02  0.36087826730E+02  0.36990226201E+03  0.37293485779E+03  0.00000000000E+00 0.  1.
</event>
<event>
12    1  0.8196217E-002  0.1919177E+03  0.7818608E-02  0.1157063E+00
         21   -1    0    0  501  502  0.00000000000E+00  0.00000000000E+00  0.35769233258E+04  0.35769233258E+04  0.00000000000E+00 0. -1.
         21   -1    0    0  502  503 -0.00000000000E+00 -0.00000000000E+00 -0.40472044123E+02  0.40472044123E+02  0.00000000000E+00 0.  1.
         -6    2    1    2    0  503 -0.11923228203E+02  0.85793926943E+02  0.20282249682E+03  0.27824678596E+03  0.16965125230E+03 0.  0.
        -24    2    3    3    0    0  0.11794640367E+02  0.96082510513E+02  0.21508822420E+03  0.24924798754E+03  0.80564587340E+02 0.  0.
          6    2    1    2  501    0  0.11923228203E+02 -0.85793926943E+02  0.33336287849E+04  0.33391485840E+04  0.17125895392E+03 0.  0.
         24    2    5    5    0    0 -0.39343320766E+02  0.38551919848E+01  0.15317589905E+04  0.15343156085E+04  0.79221348546E+02 0.  0.
          5    1    5    5  501    0  0.51266548969E+02 -0.89649118928E+02  0.18018697944E+04  0.18048329755E+04  0.47000000000E+01 0. -1.
        -11    1    6    6    0    0 -0.27432861726E+02 -0.36906494734E+02  0.82995339612E+03  0.83122637770E+03  0.00000000000E+00 0.  1.
         12    1    6    6    0    0 -0.11910459040E+02  0.40761686719E+02  0.70180559436E+03  0.70308923076E+03  0.00000000000E+00 0. -1.
         -5    1    3    3    0  503 -0.23717868570E+02 -0.10288583570E+02 -0.12265727385E+02  0.28998798418E+02  0.47000000000E+01 0.  1.
         11    1    4    4    0    0  0.42733308304E+02  0.35314238743E+02  0.73188985972E+02  0.91814262314E+02  0.00000000000E+00 0. -1.
        -12    1    4    4    0    0 -0.30938667936E+02  0.60768271770E+02  0.14189923823E+03  0.15743372523E+03  0.00000000000E+00 0.  1.
</event>
<event>
12    1  0.8196217E-002  0.2160542E+03  0.7818608E-02  0.1137260E+00
         21   -1    0    0  501  502  0.00000000000E+00  0.00000000000E+00  0.33364963527E+02  0.33364963527E+02  0.00000000000E+00 0. -1.
         21   -1    0    0  502  503 -0.00000000000E+00 -0.00000000000E+00 -0.14513038590E+04  0.14513038590E+04  0.00000000000E+00 0. -1.
         -6    2    1    2    0  503  0.17133944932E+02  0.12984121080E+03 -0.87023542051E+03  0.89665439859E+03  0.17183454632E+03 0.  0.
        -24    2    3    3    0    0  0.68146297441E+02  0.10946977123E+03 -0.49373389984E+03  0.51613798537E+03  0.77444867023E+02 0.  0.
          6    2    1    2  501    0 -0.17133944932E+02 -0.12984121080E+03 -0.54770347496E+03  0.58801442393E+03  0.16920270145E+03 0.  0.
         24    2    5    5    0    0  0.32717396670E+02 -0.17274225989E+02 -0.18251267491E+03  0.20260179729E+03  0.79798401216E+02 0.  0.
          5    1    5    5  501    0 -0.49851341602E+02 -0.11256698482E+03 -0.36519080005E+03  0.38541262664E+03  0.47000000000E+01 0. -1.
        -11    1    6    6    0    0  0.16994507980E+01  0.10391706330E+01 -0.16023769728E+03  0.16025007844E+03  0.00000000000E+00 0.  1.
         12    1    6    6    0    0  0.31017945872E+02 -0.18313396622E+02 -0.22274977624E+02  0.42351718856E+02  0.00000000000E+00 0. -1.
         -5    1    3    3    0  503 -0.51012352509E+02  0.20371439578E+02 -0.37650152068E+03  0.38051641322E+03  0.47000000000E+01 0.  1.
         11    1    4    4    0    0 -0.13036761573E+02  0.44043548179E+02 -0.13843646913E+03  0.14585762672E+03  0.00000000000E+00 0. -1.
        -12    1    4    4    0    0  0.81183059014E+02  0.65426223048E+02 -0.35529743071E+03  0.37028035865E+03  0.00000000000E+00 0.  1.
</event>
<event>
12    1  0.8196217E-002  0.1744773E+03  0.7818608E-02  0.1173642E+00
         21   -1    0    0  503  502  0.00000000000E+00  0.00000000000E+00  0.30773925765E+03  0.30773925765E+03  0.00000000000E+00 0.  1.
         21   -1    0    0  501  503 -0.00000000000E+00 -0.00000000000E+00 -0.31159353645E+03  0.31159353645E+03  0.00000000000E+00 0.  1.
          6    2    1    2  501    0 -0.10995818260E+02 -0.90814924647E+01 -0.25827105977E+03  0.31083605527E+03  0.17237091233E+03 0.  0.
         24    2    3    3    0    0 -0.22547138319E+02 -0.56386135530E+02 -0.23664575118E+03  0.25734861542E+03  0.80866115157E+02 0.  0.
         -6    2    1    2    0  502  0.10995818260E+02  0.90814924647E+01  0.25441678097E+03  0.30849673883E+03  0.17389352461E+03 0.  0.
        -24    2    5    5    0    0  0.76635481829E+01  0.69656962920E+02  0.20408058417E+03  0.22952640038E+03  0.78247435650E+02 0.  0.
          5    1    3    3  501    0  0.11551320059E+02  0.47304643065E+02 -0.21625308594E+02  0.53487439856E+02  0.47000000000E+01 0. -1.
        -11    1    4    4    0    0  0.11503622422E+02 -0.44907741751E+02 -0.20264145711E+03  0.20787640255E+03  0.00000000000E+00 0.  1.
         12    1    4    4    0    0 -0.34050760742E+02 -0.11478393778E+02 -0.34004294067E+02  0.49472212866E+02  0.00000000000E+00 0. -1.
         -5    1    5    5    0  502  0.33322700771E+01 -0.60575470455E+02  0.50336196804E+02  0.78970338441E+02  0.47000000000E+01 0.  1.
         13    1    6    6    0    0 -0.62569199131E+01  0.31810516462E+02  0.14169556934E+02  0.35381271148E+02  0.00000000000E+00 0. -1.
        -14    1    6    6    0    0  0.13920468096E+02  0.37846446458E+02  0.18991102723E+03  0.19414512924E+03  0.00000000000E+00 0.  1.
</event>
<event>
12    1  0.8196217E-002  0.1979605E+03  0.7818608E-02  0.1151549E+00
         21   -1    0    0  503  502  0.00000000000E+00  0.00000000000E+00  0.15603019782E+03  0.15603019782E+03  0.00000000000E+00 0.  1.
         21   -1    0    0  501  503 -0.00000000000E+00 -0.00000000000E+00 -0.49872315833E+03  0.49872315833E+03  0.00000000000E+00 0. -1.
          6    2    1    2  501    0  0.59609498946E+02  0.77673776080E+02 -0.40229399821E+03  0.44836236997E+03  0.17205186993E+03 0.  0.
         24    2    3    3    0    0 -0.21095096266E+02 -0.54174542122E+01 -0.11484840779E+03  0.13841972738E+03  0.74131722352E+02 0.  0.
         -6    2    1    2    0  502 -0.59609498946E+02 -0.77673776080E+02  0.59601037711E+02  0.20639098618E+03  0.17163463411E+03 0.  0.
        -24    2    5    5    0    0 -0.89915009567E+02 -0.75103301998E+02  0.82445367944E+02  0.16806364953E+03  0.87880240564E+02 0.  0.
          5    1    3    3  501    0  0.80704595212E+02  0.83091230292E+02 -0.28744559042E+03  0.30994264258E+03  0.47000000000E+01 0. -1.
        -11    1    4    4    0    0 -0.43249135179E+02  0.81666971096E+00 -0.10466763390E+03  0.11325399873E+03  0.00000000000E+00 0.  1.
         12    1    4    4    0    0  0.22154038913E+02 -0.62341239232E+01 -0.10180773894E+02  0.25165728647E+02  0.00000000000E+00 0. -1.
         -5    1    5    5    0  502  0.30305510621E+02 -0.25704740818E+01 -0.22844330233E+02  0.38327336651E+02  0.47000000000E+01 0.  1.
         13    1    6    6    0    0 -0.53787380847E+02 -0.62164091226E+02  0.58727903232E+01  0.82413264967E+02  0.00000000000E+00 0. -1.
        -14    1    6    6    0    0 -0.36127628719E+02 -0.12939210772E+02  0.76572577621E+02  0.85650384563E+02  0.00000000000E+00 0.  1.
</event>
<event>
12    1  0.8196217E-002  0.1854798E+03  0.7818608E-02  0.1162782E+00
         21   -1    0    0  501  502  0.00000000000E+00  0.00000000000E+00  0.87417254674E+02  0.87417254674E+02  0.00000000000E+00 0. -1.
         21   -1    0    0  502  503 -0.00000000000E+00 -0.00000000000E+00 -0.66224963873E+03  0.66224963873E+03  0.00000000000E+00 0. -1.
         -6    2    1    2    0  503 -0.69183031174E+02 -0.66714963389E+01 -0.52654743199E+03  0.55800518896E+03  0.17113384268E+03 0.  0.
        -24    2    3    3    0    0 -0.63045925976E+02  0.34370719998E+02 -0.49270080247E+03  0.50424821814E+03  0.79724836593E+02 0.  0.
          6    2    1    2  501    0  0.69183031174E+02  0.66714963389E+01 -0.48284952063E+02  0.19166170444E+03  0.17196503042E+03 0.  0.
         24    2    5    5    0    0  0.10855294757E+03 -0.19391849972E+02 -0.26758342185E+02  0.13955821827E+03  0.81244699158E+02 0.  0.
          5    1    5    5  501    0 -0.39369916391E+02  0.26063346311E+02 -0.21526609879E+02  0.52103486164E+02  0.47000000000E+01 0. -1.
        -11    1    6    6    0    0 -0.10124688969E+01 -0.14475462732E+02 -0.26120722567E+02  0.29880700493E+02  0.00000000000E+00 0.  1.
         12    1    6    6    0    0  0.10956541646E+03 -0.49163872399E+01 -0.63761961796E+00  0.10967751778E+03  0.00000000000E+00 0. -1.
         -5    1    3    3    0  503 -0.61371051985E+01 -0.41042216337E+02 -0.33846629521E+02  0.53756970823E+02  0.47000000000E+01 0.  1.
         13    1    4    4    0    0 -0.68364059433E+02 -0.30579742717E+01 -0.34982538595E+03  0.35645588294E+03  0.00000000000E+00 0. -1.
        -14    1    4    4    0    0  0.53181334578E+01  0.37428694270E+02 -0.14287541652E+03  0.14779233520E+03  0.00000000000E+00 0.  1.
</event>
<event>
12    1  0.8196217E-002  0.1722907E+03  0.7818608E-02  0.1177003E+00
         21   -1    0    0  503  502  0.00000000000E+00  0.00000000000E+00  0.21969874607E+03  0.21969874607E+03  0.00000000000E+00 0.  1.
         21   -1    0    0  501  503 -0.00000000000E+00 -0.00000000000E+00 -0.13251920145E+03  0.13251920145E+03  0.00000000000E+00 0.  1.
          6    2    1    2  501    0 -0.88277544165E+01 -0.12321255875E+02  0.21511542479E+02  0.16783687186E+03  0.16576105242E+03 0.  0.
         24    2    3    3    0    0 -0.65427103690E+02 -0.29029156837E+02  0.69777903046E+01  0.10687819532E+03  0.79062388239E+02 0.  0.
         -6    2    1    2    0  502  0.88277544165E+01  0.12321255875E+02  0.65668002138E+02  0.18438107566E+03  0.17162270236E+03 0.  0.
        -24    2    5    5    0    0  0.70422784360E+02 -0.43384253498E+01  0.59004051484E+02  0.12005385801E+03  0.77157373212E+02 0.  0.
          5    1    3    3  501    0  0.56599349273E+02  0.16707900962E+02  0.14533752174E+02  0.60958676535E+02  0.47000000000E+01 0. -1.
        -13    1    4    4    0    0 -0.51196880603E+01  0.19205421452E+02  0.20416255021E+02  0.28493558712E+02  0.00000000000E+00 0.  1.
         14    1    4    4    0    0 -0.60307415629E+02 -0.48234578289E+02 -0.13438464717E+02  0.78384636611E+02  0.00000000000E+00 0. -1.
         -5    1    5    5    0  502 -0.61595029944E+02  0.16659681225E+02  0.66639506541E+01  0.64327217650E+02  0.47000000000E+01 0.  1.
         13    1    6    6    0    0 -0.76183287260E+01  0.10529514509E+02 -0.87278517338E+01  0.15655190969E+02  0.00000000000E+00 0. -1.
        -14    1    6    6    0    0  0.78041113086E+02 -0.14867939859E+02  0.67731903218E+02  0.10439866705E+03  0.00000000000E+00 0.  1.
</event>
<event>
12    1  0.8196217E-002  0.2452008E+03  0.7818608E-02  0.1116589E+00
         21   -1    0    0  501  502  0.00000000000E+00  0.00000000000E+00  0.12178263760E+03  0.12178263760E+03  0.00000000000E+00 0.  1.
         21   -1    0    0  502  503 -0.00000000000E+00 -0.00000000000E+00 -0.51436050987E+03  0.51436050987E+03  0.00000000000E+00 0.  1.
         -6    2    1    2    0  503 -0.13401748901E+03 -0.10972780073E+03 -0.12908527919E+03  0.27710367376E+03  0.17355851777E+03 0.  0.
        -24    2    3    3    0    0 -0.14366333990E+03 -0.49963173396E+02 -0.54998372122E+02  0.18131321015E+03  0.81940132488E+02 0.  0.
          6    2    1    2  501    0  0.13401748901E+03  0.10972780073E+03 -0.26349259308E+03  0.35903947371E+03  0.17169775613E+03 0.  0.
         24    2    5    5    0    0  0.16367079313E+03  0.10936889721E+03 -0.21609526656E+03  0.30293204267E+03  0.79504553640E+02 0.  0.
          5    1    5    5  501    0 -0.29653304111E+02  0.35890352045E+00 -0.47397326524E+02  0.56107431041E+02  0.47000000000E+01 0. -1.
        -11    1    6    6    0    0  0.14402349946E+03  0.12200523236E+03 -0.19610859398E+03  0.27218858491E+03  0.00000000000E+00 0.  1.
         12    1    6    6    0    0  0.19647293669E+02 -0.12636335156E+02 -0.19986672574E+02  0.30743457764E+02  0.00000000000E+00 0. -1.
         -5    1    3    3    0  503  0.96458508825E+01 -0.59764627330E+02 -0.74086907070E+02  0.95790463609E+02  0.47000000000E+01 0.  1.
         13    1    4    4    0    0  0.17000958945E+00 -0.26934371474E+02 -0.56956985174E+01  0.27530533078E+02  0.00000000000E+00 0. -1.
        -14    1    4    4    0    0 -0.14383334949E+03 -0.23028801922E+02 -0.49302673605E+02  0.15378267707E+03  0.00000000000E+00 0.  1.
</event>
<event>
12    1  0.8196217E-002  0.1751896E+03  0.7818608E-02  0.1172555E+00
         21   -1    0    0  501  502  0.00000000000E+00  0.00000000000E+00  0.39481510747E+03  0.39481510747E+03  0.00000000000E+00 0. -1.
         21   -1    0    0  502  503 -0.00000000000E+00 -0.00000000000E+00 -0.17806041510E+03  0.17806041510E+03  0.00000000000E+00 0.  1.
         -6    2    1    2    0  503 -0.20224626347E+02 -0.26145341711E+02 -0.10666140020E+03  0.20505847468E+03  0.17198752671E+03 0.  0.
        -24    2    3    3    0    0 -0.17541396394E+02  0.28560969953E+02 -0.11617238416E+03  0.14926843010E+03  0.87530633438E+02 0.  0.
          6    2    1    2  501    0  0.20224626347E+02  0.26145341711E+02  0.32341609257E+03  0.36781704789E+03  0.17204301027E+03 0.  0.
         24    2    5    5    0    0 -0.18421366100E+02 -0.10542648414E+02  0.71255972088E+02  0.11004517644E+03  0.81129730272E+02 0.  0.
          5    1    5    5  501    0  0.38645992447E+02  0.36687990126E+02  0.25216012048E+03  0.25777187145E+03  0.47000000000E+01 0. -1.
        -13    1    6    6    0    0  0.29965390933E+02 -0.39647746428E+01  0.10281952062E+02  0.31927458870E+02  0.00000000000E+00 0.  1.
         14    1    6    6    0    0 -0.48386757033E+02 -0.65778737717E+01  0.60974020027E+02  0.78117717566E+02  0.00000000000E+00 0. -1.
         -5    1    3    3    0  503 -0.26832299525E+01 -0.54706311665E+02  0.95109839620E+01  0.55790044586E+02  0.47000000000E+01 0.  1.
         13    1    4    4    0    0  0.23366642477E+01  0.44282909735E+02 -0.17968038830E+02  0.47846489043E+02  0.00000000000E+00 0. -1.
        -14    1    4    4    0    0 -0.19878060642E+02 -0.15721939781E+02 -0.98204345329E+02  0.10142194105E+03  0.00000000000E+00 0.  1.
</event>
<event>
12    1  0.8196217E-002  0.1979723E+03  0.7818608E-02  0.1152310E+00
         21   -1    0    0  503  502  0.00000000000E+00  0.00000000000E+00  0.47712434990E+02  0.47712434990E+02  0.00000000000E+00 0.  1.
         21   -1    0    0  501  503 -0.00000000000E+00 -0.00000000000E+00 -0.10591824369E+04  0.10591824369E+04  0.00000000000E+00 0. -1.
          6    2    1    2  501    0  0.90343030695E+02  0.96253566467E+01 -0.78057590070E+03  0.80528987568E+03  0.17589353722E+03 0.  0.
         24    2    3    3    0    0  0.93925954738E+02  0.20240273752E+02 -0.30744527511E+03  0.33200328947E+03  0.80447705875E+02 0.  0.
         -6    2    1    2    0  502 -0.90343030695E+02 -0.96253566467E+01 -0.23089410123E+03  0.30160499623E+03  0.17146129908E+03 0.  0.
        -24    2    5    5    0    0 -0.12201103390E+03  0.23705643856E+02 -0.16893045389E+03  0.22430427429E+03  0.79537785148E+02 0.  0.
          5    1    3    3  501    0 -0.35829240426E+01 -0.10614917105E+02 -0.47313062559E+03  0.47328658620E+03  0.47000000000E+01 0. -1.
        -13    1    4    4    0    0  0.49858942081E+02 -0.28584424477E+02 -0.11371522952E+03  0.12741325227E+03  0.00000000000E+00 0.  1.
         14    1    4    4    0    0  0.44067012657E+02  0.48824698229E+02 -0.19373004559E+03  0.20459003721E+03  0.00000000000E+00 0. -1.
         -5    1    5    5    0  502  0.31668003207E+02 -0.33331000502E+02 -0.61963647335E+02  0.77300721942E+02  0.47000000000E+01 0.  1.
         11    1    6    6    0    0 -0.20162369576E+02  0.31346901136E+02 -0.16360931661E+02  0.40704169843E+02  0.00000000000E+00 0. -1.
        -12    1    6    6    0    0 -0.10184866433E+03 -0.76412572806E+01 -0.15256952223E+03  0.18360010444E+03  0.00000000000E+00 0.  1.
</event>
<event>
12    1  0.8196217E-002  0.2050998E+03  0.7818608E-02  0.1145809E+00
         21   -1    0    0  501  502  0.00000000000E+00  0.00000000000E+00  0.29293392937E+03  0.29293392937E+03  0.00000000000E+00 0.  1.
         21   -1    0    0  502  503 -0.00000000000E+00 -0.00000000000E+00 -0.15331347268E+03  0.15331347268E+03  0.00000000000E+00 0.  1.
         -6    2    1    2    0  503 -0.57412325791E+02  0.92655593924E+02  0.10513955175E+02  0.20389558863E+03  0.17199312071E+03 0.  0.
        -24    2    3    3    0    0  0.64505246464E+01 -0.64182374370E+01 -0.19952114460E+02  0.82058159551E+02  0.79073710153E+02 0.  0.
          6    2    1    2  501    0  0.57412325791E+02 -0.92655593924E+02  0.12910650151E+03  0.24235181342E+03  0.17373738370E+03 0.  0.
         24    2    5    5    0    0 -0.24791459478E+02 -0.61785576543E+02  0.27864472727E+02  0.10825312335E+03  0.80686033131E+02 0.  0.
          5    1    5    5  501    0  0.82203785269E+02 -0.30870017382E+02  0.10124202878E+03  0.13409869007E+03  0.47000000000E+01 0. -1.
        -11    1    6    6    0    0  0.12503963175E+02 -0.49641998055E+02  0.42351681203E+02  0.66440514498E+02  0.00000000000E+00 0.  1.
         12    1    6    6    0    0 -0.37295422653E+02 -0.12143578488E+02 -0.14487208477E+02  0.41812608850E+02  0.00000000000E+00 0. -1.
         -5    1    3    3    0  503 -0.63862850437E+02  0.99073831361E+02  0.30466069635E+02  0.12183742908E+03  0.47000000000E+01 0.  1.
         11    1    4    4    0    0  0.35823350320E+02  0.15187773968E+02  0.29128217128E+01  0.39018783125E+02  0.00000000000E+00 0. -1.
        -12    1    4    4    0    0 -0.29372825674E+02 -0.21606011405E+02 -0.22864936173E+02  0.43039376425E+02  0.00000000000E+00 0.  1.
</event>
<event>
12    1  0.8196217E-002  0.1828025E+03  0.7818608E-02  0.1165628E+00
         21   -1    0    0  501  502  0.00000000000E+00  0.00000000000E+00  0.48328153220E+03  0.48328153220E+03  0.00000000000E+00 0. -1.
         21   -1    0    0  502  503 -0.00000000000E+00 -0.00000000000E+00 -0.17223490384E+03  0.17223490384E+03  0.00000000000E+00 0. -1.
         -6    2    1    2    0  503 -0.46420108444E+02  0.31723710846E+02 -0.98672728824E+02  0.20773312472E+03  0.17394114923E+03 0.  0.
        -24    2    3    3    0    0 -0.69083476728E+02  0.41388383152E+01 -0.12579957244E+03  0.16264976749E+03  0.76418307360E+02 0.  0.
          6    2    1    2  501    0  0.46420108444E+02 -0.31723710846E+02  0.40971935718E+03  0.44778331132E+03  0.17169368641E+03 0.  0.
         24    2    5    5    0    0  0.66172768322E+02  0.31533937158E+02  0.30669428712E+03  0.32519476102E+03  0.79479697951E+02 0.  0.
          5    1    5    5  501    0 -0.19752659878E+02 -0.63257648004E+02  0.10302507006E+03  0.12258855030E+03  0.47000000000E+01 0. -1.
        -13    1    6    6    0    0  0.71463899806E+02  0.15364775677E+02  0.29646476996E+03  0.30534329063E+03  0.00000000000E+00 0.  1.
         14    1    6    6    0    0 -0.52911314835E+01  0.16169161481E+02  0.10229517157E+02  0.19851470390E+02  0.00000000000E+00 0. -1.
         -5    1    3    3    0  503  0.22663368284E+02  0.27584872531E+02  0.27126843615E+02  0.45083357229E+02  0.47000000000E+01 0.  1.
         11    1    4    4    0    0 -0.27665326938E+02  0.36675728168E+02 -0.35286754319E+02  0.57927837709E+02  0.00000000000E+00 0. -1.
        -12    1    4    4    0    0 -0.41418149790E+02 -0.32536889853E+02 -0.90512818120E+02  0.10472192978E+03  0.00000000000E+00 0.  1.
</event>
<event>
12    1  0.8196217E-002  0.2115900E+03  0.7818608E-02  0.1140475E+00
         21   -1    0    0  501  502  0.00000000000E+00  0.00000000000E+00  0.50833511279E+03  0.50833511279E+03  0.00000000000E+00 0.  1.
         21   -1    0    0  502  503 -0.00000000000E+00 -0.00000000000E+00 -0.20807089054E+03  0.20807089054E+03  0.00000000000E+00 0.  1.
         -6    2    1    2    0  503 -0.13108252629E+02  0.12164356566E+03 -0.12215956206E+03  0.24432209410E+03  0.17263065692E+03 0.  0.
        -24    2    3    3    0    0  0.19556811206E+02  0.33166579261E+02 -0.68520605531E+01  0.95281517673E+02  0.86885706718E+02 0.  0.
          6    2    1    2  501    0  0.13108252629E+02 -0.12164356566E+03  0.42242378431E+03  0.47208390922E+03  0.17161695851E+03 0.  0.
         24    2    5    5    0    0 -0.28212584522E+02 -0.14184290117E+03  0.31099956849E+03  0.35144862994E+03  0.76681479819E+02 0.  0.
          5    1    5    5  501    0  0.41320837151E+02  0.20199335509E+02  0.11142421582E+03  0.12063527929E+03  0.47000000000E+01 0. -1.
        -13    1    6    6    0    0 -0.24201176318E+01 -0.12004569166E+03  0.28357023962E+03  0.30794302371E+03  0.00000000000E+00 0.  1.
         14    1    6    6    0    0 -0.25792466891E+02 -0.21797209515E+02  0.27429328868E+02  0.43505606226E+02  0.00000000000E+00 0. -1.
         -5    1    3    3    0  503 -0.32665063835E+02  0.88476986400E+02 -0.11530750151E+03  0.14904057643E+03  0.47000000000E+01 0.  1.
         13    1    4    4    0    0  0.42732663055E+02  0.47325062529E+02  0.81058420735E+01  0.64276330876E+02  0.00000000000E+00 0. -1.
        -14    1    4    4    0    0 -0.23175851849E+02 -0.14158483268E+02 -0.14957902627E+02  0.31005186798E+02  0.00000000000E+00 0.  1.
</event>
<event>
12    1  0.8196217E-002  0.2088026E+03  0.7818608E-02  0.1142607E+00
         21   -1    0    0  501  502  0.00000000000E+00  0.00000000000E+00  0.30806374909E+03  0.30806374909E+03  0.00000000000E+00 0. -1.
         21   -1    0    0  502  503 -0.00000000000E+00 -0.00000000000E+00 -0.13841960929E+04  0.13841960929E+04  0.00000000000E+00 0. -1.
         -6    2    1    2    0  503 -0.95680083114E+02 -0.68917255502E+02 -0.13399319350E+04  0.13561032797E+04  0.17232019113E+03 0.  0.
        -24    2    3    3    0    0  0.19020463480E+02 -0.28965150501E+02 -0.54906764679E+03  0.55595279479E+03  0.80046682040E+02 0.  0.
          6    2    1    2  501    0  0.95680083114E+02  0.68917255502E+02  0.26379959120E+03  0.33615656232E+03  0.17177527081E+03 0.  0.
         24    2    5    5    0    0  0.12067127632E+02  0.79289065130E+02  0.18359107149E+03  0.21973406710E+03  0.90249694146E+02 0.  0.
          5    1    5    5  501    0  0.83612955483E+02 -0.10371809627E+02  0.80208519705E+02  0.11642249522E+03  0.47000000000E+01 0. -1.
        -13    1    6    6    0    0  0.26318732019E+02  0.31873349164E+02  0.15931820335E+03  0.16459306170E+03  0.00000000000E+00 0.  1.
         14    1    6    6    0    0 -0.14251604388E+02  0.47415715966E+02  0.24272868142E+02  0.55141005395E+02  0.00000000000E+00 0. -1.
         -5    1    3    3    0  503 -0.11470054659E+03 -0.39952105001E+02 -0.79086428822E+03  0.80015048489E+03  0.47000000000E+01 0.  1.
         13    1    4    4    0    0 -0.22217465143E+02 -0.29785053925E+02 -0.14129440338E+03  0.14609884880E+03  0.00000000000E+00 0. -1.
        -14    1    4    4    0    0  0.41237928623E+02  0.81990342392E+00 -0.40777324341E+03  0.40985394599E+03  0.00000000000E+00 0.  1.
</event>
<event>
12    1  0.8196217E-002  0.2106636E+03  0.7818608E-02  0.1141223E+00
         21   -1    0    0  503  502  0.00000000000E+00  0.00000000000E+00  0.23617165477E+03  0.23617165477E+03  0.00000000000E+00 0. -1.
         21   -1    0    0  501  503 -0.00000000000E+00 -0.00000000000E+00 -0.87951923346E+03  0.87951923346E+03  0.00000000000E+00 0. -1.
          6    2    1    2  501    0 -0.10515357859E+03  0.60814402285E+02 -0.81649329236E+03  0.84300317713E+03  0.17098945455E+03 0.  0.
         24    2    3    3    0    0 -0.13193845388E+03  0.65029633918E+02 -0.54723386583E+03  0.57234116188E+03  0.80454289971E+02 0.  0.
         -6    2    1    2    0  502  0.10515357859E+03 -0.60814402285E+02  0.17314571366E+03  0.27268771110E+03  0.17211473793E+03 0.  0.
        -24    2    5    5    0    0  0.44058995920E+02  0.13778036972E+02  0.14521656750E+03  0.17219538686E+03  0.80202059555E+02 0.  0.
          5    1    3    3  501    0  0.26784875291E+02 -0.42152316322E+01 -0.26925942653E+03  0.27066201524E+03  0.47000000000E+01 0. -1.
        -11    1    4    4    0    0 -0.54002723812E+02  0.34035779255E+02 -0.11037993144E+03  0.12750865741E+03  0.00000000000E+00 0.  1.
         12    1    4    4    0    0 -0.77935730067E+02  0.30993854663E+02 -0.43685393439E+03  0.44483250448E+03  0.00000000000E+00 0. -1.
         -5    1    5    5    0  502  0.61094582668E+02 -0.74592439258E+02  0.27929146167E+02  0.10049232424E+03  0.47000000000E+01 0.  1.
         11    1    6    6    0    0  0.14590320938E+02  0.26024361931E+02  0.74094395824E+01  0.30741578910E+02  0.00000000000E+00 0. -1.
        -12    1    6    6    0    0  0.29468674983E+02 -0.12246324959E+02  0.13780712791E+03  0.14145380795E+03  0.00000000000E+00 0.  1.
</event>
<event>
12    1  0.8196217E-002  0.2743044E+03  0.7818608E-02  0.1098984E+00
         21   -1    0    0  503  502  0.00000000000E+00  0.00000000000E+00  0.99356705793E+03  0.99356705793E+03  0.00000000000E+00 0.  1.
         21   -1    0    0  501  503 -0.00000000000E+00 -0.00000000000E+00 -0.77028933337E+02  0.77028933337E+02  0.00000000000E+00 0.  1.
          6    2    1    2  501    0 -0.15790469670E+03 -0.14248823964E+03  0.38244644352E+03  0.47064655940E+03  0.17322271801E+03 0.  0.
         24    2    3    3    0    0 -0.22930164045E+02 -0.87718507233E+02  0.23020858896E+03  0.25989480397E+03  0.79554922950E+02 0.  0.
         -6    2    1    2    0  502  0.15790469670E+03  0.14248823964E+03  0.53409168107E+03  0.59994943187E+03  0.17160595948E+03 0.  0.
        -24    2    5    5    0    0  0.41774263348E+02  0.34461716657E+01  0.13789251521E+03  0.16427197864E+03  0.78828751346E+02 0.  0.
          5    1    3    3  501    0 -0.13497453266E+03 -0.54769732410E+02  0.15223785456E+03  0.21075175542E+03  0.47000000000E+01 0. -1.
        -11    1    4    4    0    0 -0.50284351042E+02 -0.41755972680E+02  0.10417917615E+03  0.12298527537E+03  0.00000000000E+00 0.  1.
         12    1    4    4    0    0  0.27354186997E+02 -0.45962534554E+02  0.12602941281E+03  0.13690952860E+03  0.00000000000E+00 0. -1.
         -5    1    5    5    0  502  0.11613043335E+03  0.13904206798E+03  0.39619916586E+03  0.43567745322E+03  0.47000000000E+01 0.  1.
         11    1    6    6    0    0  0.61049609883E+02  0.19380338382E+02  0.10419867919E+03  0.12231114883E+03  0.00000000000E+00 0. -1.
        -12    1    6    6    0    0 -0.19275346535E+02 -0.15934166716E+02  0.33693836026E+02  0.41960829820E+02  0.00000000000E+00 0.  1.
</event>
<event>
12    1  0.8196217E-002  0.2077058E+03  0.7818608E-02  0.1143746E+00
         21   -1    0    0  503  502  0.00000000000E+00  0.00000000000E+00  0.34815571907E+03  0.34815571907E+03  0.00000000000E+00 0. -1.
         21   -1    0    0  501  503 -0.00000000000E+00 -0.00000000000E+00 -0.14166245081E+03  0.14166245081E+03  0.00000000000E+00 0. -1.
          6    2    1    2  501    0  0.14445816985E+02 -0.11310684263E+03  0.13694332353E+02  0.20642245762E+03  0.17152509086E+03 0.  0.
         24    2    3    3    0    0  0.33134323306E+02 -0.98485338170E+02  0.65846637162E+02  0.14893331466E+03  0.83953006949E+02 0.  0.
         -6    2    1    2    0  502 -0.14445816985E+02  0.11310684263E+03  0.19279893591E+03  0.28339571226E+03  0.17360835395E+03 0.  0.
        -24    2    5    5    0    0 -0.25223921435E+02  0.13576443276E+03  0.10463177244E+03  0.19160751781E+03  0.81837678740E+02 0.  0.
          5    1    3    3  501    0 -0.18688506321E+02 -0.14621504458E+02 -0.52152304809E+02  0.57489142958E+02  0.47000000000E+01 0. -1.
        -13    1    4    4    0    0 -0.21528998247E+02 -0.14201466537E+01  0.16156122157E+02  0.26954310697E+02  0.00000000000E+00 0.  1.
         14    1    4    4    0    0  0.54663321553E+02 -0.97065191516E+02  0.49690515005E+02  0.12197900397E+03  0.00000000000E+00 0. -1.
         -5    1    5    5    0  502  0.10778104450E+02 -0.22657590130E+02  0.88167163476E+02  0.91788194456E+02  0.47000000000E+01 0.  1.
         13    1    6    6    0    0  0.13132676905E+02  0.10647988246E+03  0.92961407323E+02  0.14195864124E+03  0.00000000000E+00 0. -1.
        -14    1    6    6    0    0 -0.38356598340E+02  0.29284550301E+02  0.11670365115E+02  0.49648876568E+02  0.00000000000E+00 0.  1.
</event>
<event>
12    1  0.8196217E-002  0.2186621E+03  0.7818608E-02  0.1135199E+00
         21   -1    0    0  503  502  0.00000000000E+00  0.00000000000E+00  0.43256499311E+03  0.43256499311E+03  0.00000000000E+00 0. -1.
         21   -1    0    0  501  503 -0.00000000000E+00 -0.00000000000E+00 -0.17848880356E+03  0.17848880356E+03  0.00000000000E+00 0.  1.
          6    2    1    2  501    0  0.87490627859E+02  0.99172916025E+02 -0.62943719550E+02  0.22593724829E+03  0.17203444741E+03 0.  0.
         24    2    3    3    0    0  0.60345851066E+02  0.45085401440E+02  0.31078264922E+02  0.11402423874E+03  0.79758092420E+02 0.  0.
         -6    2    1    2    0  502 -0.87490627859E+02 -0.99172916025E+02  0.31701990910E+03  0.38511654839E+03  0.17413573971E+03 0.  0.
        -24    2    5    5    0    0 -0.12650399726E+03 -0.85380770350E+02  0.28462803485E+03  0.33235681193E+03  0.78452501200E+02 0.  0.
          5    1    3    3  501    0  0.27144776793E+02  0.54087514585E+02 -0.94021984472E+02  0.11191300954E+03  0.47000000000E+01 0. -1.
        -13    1    4    4    0    0 -0.19503465378E+02  0.65365662272E+01  0.10068133290E+02  0.22901510162E+02  0.00000000000E+00 0.  1.
         14    1    4    4    0    0  0.79849316443E+02  0.38548835213E+02  0.21010131632E+02  0.91122728580E+02  0.00000000000E+00 0. -1.
         -5    1    5    5    0  502  0.39013369401E+02 -0.13792145676E+02  0.32391874250E+02  0.52759736464E+02  0.47000000000E+01 0.  1.
         11    1    6    6    0    0 -0.10516855676E+03 -0.26231723813E+02  0.16999135680E+03  0.20160751487E+03  0.00000000000E+00 0. -1.
        -12    1    6    6    0    0 -0.21335440504E+02 -0.59149046536E+02  0.11463667805E+03  0.13074929706E+03  0.00000000000E+00 0.  1.
</event>
<event>
12    1  0.8196217E-002  0.1780601E+03  0.7818608E-02  0.1170009E+00
         21   -1    0    0  503  502  0.00000000000E+00  0.00000000000E+00  0.15541382880E+04  0.15541382880E+04  0.00000000000E+00 0.  1.
         21   -1    0    0  501  503 -0.00000000000E+00 -0.00000000000E+00 -0.23137393796E+02  0.23137393796E+02  0.00000000000E+00 0.  1.
          6    2    1    2  501    0 -0.44425496447E+02  0.10204397850E+02  0.48470962286E+03  0.51594122818E+03  0.17080450221E+03 0.  0.
         24    2    3    3    0    0  0.15101859464E+02  0.47522069316E+02  0.38537866505E+03  0.39418391266E+03  0.66165159170E+02 0.  0.
         -6    2    1    2    0  502  0.44425496447E+02 -0.10204397850E+02  0.10462912714E+04  0.10613344536E+04  0.17212682378E+03 0.  0.
        -24    2    5    5    0    0  0.73679101255E+01 -0.62924034371E+02  0.80832125764E+03  0.81474888591E+03  0.80117234930E+02 0.  0.
          5    1    3    3  501    0 -0.59527355911E+02 -0.37317671466E+02  0.99330957805E+02  0.12175731553E+03  0.47000000000E+01 0. -1.
        -13    1    4    4    0    0  0.30298483766E+02  0.41328624184E+02  0.15562691356E+03  0.16384684775E+03  0.00000000000E+00 0.  1.
         14    1    4    4    0    0 -0.15196624302E+02  0.61934451323E+01  0.22975175150E+03  0.23033706490E+03  0.00000000000E+00 0. -1.
         -5    1    5    5    0  502  0.37057586322E+02  0.52719636521E+02  0.23797001373E+03  0.24658556773E+03  0.47000000000E+01 0.  1.
         13    1    6    6    0    0 -0.18091892218E+02 -0.79518526462E+01  0.46533962136E+02  0.50556484813E+02  0.00000000000E+00 0. -1.
        -14    1    6    6    0    0  0.25459802344E+02 -0.54972181725E+02  0.76178729551E+03  0.76419240110E+03  0.00000000000E+00 0.  1.
</event>
<event>
12    1  0.8196217E-002  0.2044335E+03  0.7818608E-02  0.1146373E+00
         21   -1    0    0  501  502  0.00000000000E+00  0.00000000000E+00  0.24781878098E+02  0.24781878098E+02  0.00000000000E+00 0.  1.
         21   -1    0    0  502  503 -0.00000000000E+00 -0.00000000000E+00 -0.18692303954E+04  0.18692303954E+04  0.00000000000E+00 0.  1.
         -6    2    1    2    0  503  0.28746148030E+02  0.10383253915E+03 -0.12317713094E+04  0.12486206852E+04  0.17373980385E+03 0.  0.
        -24    2    3    3    0    0  0.66139385348E+02  0.15222525042E+02 -0.52759750859E+03  0.53789371888E+03  0.79777052943E+02 0.  0.
          6    2    1    2  501    0 -0.28746148030E+02 -0.10383253915E+03 -0.61267720784E+03  0.64539158832E+03  0.17189940095E+03 0.  0.
         24    2    5    5    0    0 -0.53077845439E+02 -0.12688159183E+02 -0.19712633276E+03  0.21924143956E+03  0.78928896455E+02 0.  0.
          5    1    5    5  501    0  0.24331697410E+02 -0.91144379967E+02 -0.41555087508E+03  0.42615014875E+03  0.47000000000E+01 0. -1.
        -11    1    6    6    0    0 -0.45437378072E+02 -0.39947468788E+02 -0.90055590080E+02  0.10849131252E+03  0.00000000000E+00 0.  1.
         12    1    6    6    0    0 -0.76404673675E+01  0.27259309605E+02 -0.10707074268E+03  0.11075012704E+03  0.00000000000E+00 0. -1.
         -5    1    3    3    0  503 -0.37393237318E+02  0.88610014108E+02 -0.70417380085E+03  0.71072696628E+03  0.47000000000E+01 0.  1.
         13    1    4    4    0    0 -0.55588169072E+01 -0.17391588915E+02 -0.20531448805E+03  0.20612473606E+03  0.00000000000E+00 0. -1.
        -14    1    4    4    0    0  0.71698202255E+02  0.32614113957E+02 -0.32228302054E+03  0.33176898282E+03  0.00000000000E+00 0.  1.
</event>
<event>
12    1  0.8196217E-002  0.1790933E+03  0.7818608E-02  0.1169408E+00
         21   -1    0    0  503  502  0.00000000000E+00  0.00000000000E+00  0.18263349128E+03  0.18263349128E+03  0.00000000000E+00 0. -1.
         21   -1    0    0  501  503 -0.00000000000E+00 -0.00000000000E+00 -0.17331358809E+03  0.17331358809E+03  0.00000000000E+00 0.  1.
          6    2    1    2  501    0 -0.64572701992E+01  0.38643333385E+02 -0.55839204970E+01  0.17623472345E+03  0.17173378826E+03 0.  0.
         24    2    3    3    0    0 -0.71810524754E+01  0.85474082508E+02  0.26676143316E+02  0.11916945695E+03  0.78309364392E+02 0.  0.
         -6    2    1    2    0  502  0.64572701992E+01 -0.38643333385E+02  0.14903823690E+02  0.17971235592E+03  0.17475526703E+03 0.  0.
        -24    2    5    5    0    0  0.16054870150E+02  0.31834089680E+02  0.57720885838E+02  0.96558451032E+02  0.68707100670E+02 0.  0.
          5    1    3    3  501    0  0.72378227616E+00 -0.46830749123E+02 -0.32260063813E+02  0.57065266506E+02  0.47000000000E+01 0. -1.
        -11    1    4    4    0    0 -0.34780535435E+02  0.15203910031E+02  0.21194755486E+02  0.43474845434E+02  0.00000000000E+00 0.  1.
         12    1    4    4    0    0  0.27599482959E+02  0.70270172477E+02  0.54813878300E+01  0.75694611513E+02  0.00000000000E+00 0. -1.
         -5    1    5    5    0  502 -0.95975999513E+01 -0.70477423065E+02 -0.42817062148E+02  0.83153904886E+02  0.47000000000E+01 0.  1.
         11    1    6    6    0    0  0.12958074098E+02 -0.14050352219E+02  0.44926119616E+02  0.48822948554E+02  0.00000000000E+00 0. -1.
        -12    1    6    6    0    0  0.30967960522E+01  0.45884441898E+02  0.12794766222E+02  0.47735502478E+02  0.00000000000E+00 0.  1.
</event>
<event>
12    1  0.8196217E-002  0.2008618E+03  0.7818608E-02  0.1149570E+00
         21   -1    0    0  501  502  0.00000000000E+00  0.00000000000E+00  0.15066070217E+03  0.15066070217E+03  0.00000000000E+00 0.  1.
         21   -1    0    0  502  503 -0.00000000000E+00 -0.00000000000E+00 -0.34997249982E+03  0.34997249982E+03  0.00000000000E+00 0.  1.
         -6    2    1    2    0  503  0.41554245966E+02  0.95924063369E+02 -0.22400414239E+03  0.30087095900E+03  0.17151471329E+03 0.  0.
        -24    2    3    3    0    0  0.64664360234E+02  0.78478043404E+02 -0.75621514023E+02  0.14961642058E+03  0.79537268894E+02 0.  0.
          6    2    1    2  501    0 -0.41554245966E+02 -0.95924063369E+02  0.24692344730E+02  0.19976224298E+03  0.16842523725E+03 0.  0.
         24    2    5    5    0    0 -0.29068936368E+02  0.87249091547E+01 -0.16398133279E+02  0.86546485296E+02  0.79374229071E+02 0.  0.
          5    1    5    5  501    0 -0.12485309598E+02 -0.10464897252E+03  0.41090478010E+02  0.11321575769E+03  0.47000000000E+01 0. -1.
        -11    1    6    6    0    0 -0.20665162463E+02 -0.34875627504E+02 -0.65440662570E+01  0.41063160333E+02  0.00000000000E+00 0.  1.
         12    1    6    6    0    0 -0.84037739053E+01  0.43600536658E+02 -0.98540670221E+01  0.45483324962E+02  0.00000000000E+00 0. -1.
         -5    1    3    3    0  503 -0.23110114267E+02  0.17446019965E+02 -0.14838262836E+03  0.15125453842E+03  0.47000000000E+01 0.  1.
         11    1    4    4    0    0  0.54750656870E+01  0.68926515662E+02 -0.40506393437E+02  0.80134941286E+02  0.00000000000E+00 0. -1.
        -12    1    4    4    0    0  0.59189294547E+02  0.95515277411E+01 -0.35115120586E+02  0.69481479294E+02  0.00000000000E+00 0.  1.
</event>
<event>
12    1  0.8196217E-002  0.3111775E+03  0.7818608E-02  0.1079857E+00
         21   -1    0    0  501  502  0.00000000000E+00  0.00000000000E+00  0.80721971881E+03  0.80721971881E+03  0.00000000000E+00 0. -1.
         21   -1    0    0  502  503 -0.00000000000E+00 -0.00000000000E+00 -0.12008368168E+03  0.12008368168E+03  0.00000000000E+00 0. -1.
         -6    2    1    2    0  503 -0.13270443340E+03 -0.22091774657E+03  0.31756507642E+03  0.44417386985E+03  0.17328511623E+03 0.  0.
        -24    2    3    3    0    0 -0.21478937011E+02 -0.58162731436E+02  0.17170659672E+03  0.19890444229E+03  0.78965649123E+02 0.  0.
          6    2    1    2  501    0  0.13270443340E+03  0.22091774657E+03  0.36957096071E+03  0.48312953063E+03  0.17440278373E+03 0.  0.
         24    2    5    5    0    0  0.12955036515E+01  0.86875006365E+02  0.19237715745E+03  0.22495227188E+03  0.77753513472E+02 0.  0.
          5    1    5    5  501    0  0.13140892975E+03  0.13404274020E+03  0.17719380327E+03  0.25817725875E+03  0.47000000000E+01 0. -1.
        -11    1    6    6    0    0 -0.72762638916E+01  0.29538426632E+02  0.15022442437E+03  0.15327374316E+03  0.00000000000E+00 0.  1.
         12    1    6    6    0    0  0.85717675431E+01  0.57336579733E+02  0.42152733074E+02  0.71678528723E+02  0.00000000000E+00 0. -1.
         -5    1    3    3    0  503 -0.11122549639E+03 -0.16275501513E+03  0.14585847970E+03  0.24526942756E+03  0.47000000000E+01 0.  1.
         13    1    4    4    0    0 -0.20279709969E+02 -0.74257656438E+02  0.10452380726E+03  0.12981021709E+03  0.00000000000E+00 0. -1.
        -14    1    4    4    0    0 -0.11992270417E+01  0.16094925002E+02  0.67182789464E+02  0.69094225204E+02  0.00000000000E+00 0.  1.
</event>
<event>
12    1  0.8196217E-002  0.2353943E+03  0.7818608E-02  0.1123483E+00
         21   -1    0    0  501  502  0.00000000000E+00  0.00000000000E+00  0.65149219817E+02  0.65149219817E+02  0.00000000000E+00 0. -1.
         21   -1    0    0  502  503 -0.00000000000E+00 -0.00000000000E+00 -0.84306290541E+03  0.84306290541E+03  0.00000000000E+00 0.  1.
         -6    2    1    2    0  503 -0.78786339156E+02 -0.13420206527E+03 -0.42582661151E+03  0.48655810108E+03  0.17661540447E+03 0.  0.
        -24    2    3    3    0    0 -0.37077081812E+02 -0.82737537504E+02 -0.11322324245E+03  0.16697835186E+03  0.82716728961E+02 0.  0.
          6    2    1    2  501    0  0.78786339156E+02  0.13420206527E+03 -0.35208707409E+03  0.42165402415E+03  0.17207360862E+03 0.  0.
         24    2    5    5    0    0  0.69534973621E+02  0.12442333639E+03 -0.36739978392E+03  0.40073082207E+03  0.72707023983E+02 0.  0.
          5    1    5    5  501    0  0.92513655345E+01  0.97787288831E+01  0.15312709835E+02  0.20923202081E+02  0.47000000000E+01 0. -1.
        -13    1    6    6    0    0  0.57418179746E+02  0.12285984196E+03 -0.26578348073E+03  0.29838271861E+03  0.00000000000E+00 0.  1.
         14    1    6    6    0    0  0.12116793875E+02  0.15634944233E+01 -0.10161630319E+03  0.10234810346E+03  0.00000000000E+00 0. -1.
         -5    1    3    3    0  503 -0.41709257343E+02 -0.51464527765E+02 -0.31260336906E+03  0.31957974923E+03  0.47000000000E+01 0.  1.
         11    1    4    4    0    0  0.11315290072E+02 -0.70486781079E+02 -0.53931377505E+02  0.89470752628E+02  0.00000000000E+00 0. -1.
        -12    1    4    4    0    0 -0.48392371884E+02 -0.12250756425E+02 -0.59291864943E+02  0.77507599227E+02  0.00000000000E+00 0.  1.
</event>
<event>
12    1  0.8196217E-002  0.1806227E+03  0.7818608E-02  0.1167744E+00
         21   -1    0    0  501  502  0.00000000000E+00  0.00000000000E+00  0.24774658064E+02  0.24774658064E+02  0.00000000000E+00 0. -1.
         21   -1    0    0  502  503 -0.00000000000E+00 -0.00000000000E+00 -0.13832720709E+04  0.13832720709E+04  0.00000000000E+00 0. -1.
         -6    2    1    2    0  503 -0.47131317063E+02  0.13383653434E+02 -0.51112765376E+03  0.54210333603E+03  0.17385069821E+03 0.  0.
        -24    2    3    3    0    0 -0.33456188390E+01 -0.33372279515E+02 -0.43075811592E+03  0.43922157259E+03  0.78981853591E+02 0.  0.
          6    2    1    2  501    0  0.47131317063E+02 -0.13383653434E+02 -0.84736975906E+03  0.86594339292E+03  0.17152832986E+03 0.  0.
         24    2    5    5    0    0  0.33460455046E+02  0.59773948240E+02 -0.48436581136E+03  0.49535887733E+03  0.77959291889E+02 0.  0.
          5    1    5    5  501    0  0.13670862017E+02 -0.73157601675E+02 -0.36300394770E+03  0.37058451559E+03  0.47000000000E+01 0. -1.
        -13    1    6    6    0    0 -0.56572899106E+01  0.59596234430E+02 -0.36128887720E+03  0.36621492170E+03  0.00000000000E+00 0.  1.
         14    1    6    6    0    0  0.39117744956E+02  0.17771381003E+00 -0.12307693416E+03  0.12914395563E+03  0.00000000000E+00 0. -1.
         -5    1    3    3    0  503 -0.43785698224E+02  0.46755932949E+02 -0.80369537844E+02  0.10288176344E+03  0.47000000000E+01 0.  1.
         11    1    4    4    0    0 -0.34617355808E+02  0.63977788059E+01 -0.17310732787E+03  0.17665061522E+03  0.00000000000E+00 0. -1.
        -12    1    4    4    0    0  0.31271736969E+02 -0.39770058321E+02 -0.25765078805E+03  0.26257095737E+03  0.00000000000E+00 0.  1.
</event>
<event>
12    1  0.8196217E-002  0.1807966E+03  0.7818608E-02  0.1167239E+00
         21   -1    0    0  501  502  0.00000000000E+00  0.00000000000E+00  0.96705579161E+03  0.96705579161E+03  0.00000000000E+00 0. -1.
         21   -1    0    0  502  503 -0.00000000000E+00 -0.00000000000E+00 -0.59326932186E+02  0.59326932186E+02  0.00000000000E+00 0. -1.
         -6    2    1    2    0  503  0.14846638970E+02  0.35438304172E+02  0.11559428472E+03  0.21387758854E+03  0.17579899923E+03 0.  0.
        -24    2    3    3    0    0 -0.13424116684E+02  0.49481003564E+02 -0.10868338317E+01  0.92910624221E+02  0.77476617523E+02 0.  0.
          6    2    1    2  501    0 -0.14846638970E+02 -0.35438304172E+02  0.79213457471E+03  0.81250513526E+03  0.17666667563E+03 0.  0.
         24    2    5    5    0    0 -0.76645588284E+02 -0.10126758385E+02  0.43110750485E+03  0.44532340959E+03  0.80511868436E+02 0.  0.
          5    1    5    5  501    0  0.61798949314E+02 -0.25311545787E+02  0.36102706987E+03  0.36718172566E+03  0.47000000000E+01 0. -1.
        -11    1    6    6    0    0 -0.12285587061E+01  0.22882286332E+02  0.17020913572E+03  0.17174474742E+03  0.00000000000E+00 0.  1.
         12    1    6    6    0    0 -0.75417029578E+02 -0.33009044717E+02  0.26089836912E+03  0.27357866217E+03  0.00000000000E+00 0. -1.
         -5    1    3    3    0  503  0.28270755653E+02 -0.14042699392E+02  0.11668111855E+03  0.12096696432E+03  0.47000000000E+01 0.  1.
         11    1    4    4    0    0  0.14029631460E+02  0.40587096990E+02  0.28531636608E+02  0.51557708333E+02  0.00000000000E+00 0. -1.
        -12    1    4    4    0    0 -0.27453748143E+02  0.88939065741E+01 -0.29618470439E+02  0.41352915888E+02  0.00000000000E+00 0.  1.
</event>
<event>
12    1  0.8196217E-002  0.2307758E+03  0.7818608E-02  0.1126552E+00
         21   -1    0    0  501  502  0.00000000000E+00  0.00000000000E+00  0.35534302076E+03  0.35534302076E+03  0.00000000000E+00 0.  1.
         21   -1    0    0  502  503 -0.00000000000E+00 -0.00000000000E+00 -0.44317835532E+03  0.44317835532E+03  0.00000000000E+00 0.  1.
         -6    2    1    2    0  503 -0.84461145660E+02  0.12511311150E+03 -0.36956735896E+03  0.43433679359E+03  0.17111820964E+03 0.  0.
        -24    2    3    3    0    0 -0.11198921769E+03  0.92217072536E+02 -0.35549620235E+03  0.38894922286E+03  0.62115817119E+02 0.  0.
          6    2    1    2  501    0  0.84461145660E+02 -0.12511311150E+03  0.28173202440E+03  0.36418458249E+03  0.17455801546E+03 0.  0.
         24    2    5    5    0    0  0.32065009661E+02 -0.94410588376E+00  0.16561244412E+03  0.18622631788E+03  0.78890453426E+02 0.  0.
          5    1    5    5  501    0  0.52396135999E+02 -0.12416900561E+03  0.11611958027E+03  0.17795826461E+03  0.47000000000E+01 0. -1.
        -13    1    6    6    0    0  0.25602455672E+01 -0.27694127593E+02  0.12954183673E+03  0.13249379995E+03  0.00000000000E+00 0.  1.
         14    1    6    6    0    0  0.29504764094E+02  0.26750021709E+02  0.36070607390E+02  0.53732517930E+02  0.00000000000E+00 0. -1.
         -5    1    3    3    0  503  0.27528072027E+02  0.32896038960E+02 -0.14071156611E+02  0.45387570734E+02  0.47000000000E+01 0.  1.
         11    1    4    4    0    0 -0.56990450606E+02  0.10225844619E+02 -0.15503653790E+03  0.16549564176E+03  0.00000000000E+00 0. -1.
        -12    1    4    4    0    0 -0.54998767081E+02  0.81991227917E+02 -0.20045966445E+03  0.22345358110E+03  0.00000000000E+00 0.  1.
</event>
<event>
12    1  0.8196217E-002  0.2324544E+03  0.7818608E-02  0.1126777E+00
         21   -1    0    0  503  502  0.00000000000E+00  0.00000000000E+00  0.46142879136E+03  0.46142879136E+03  0.00000000000E+00 0. -1.
         21   -1    0    0  501  503 -0.00000000000E+00 -0.00000000000E+00 -0.29302550132E+03  0.29302550132E+03  0.00000000000E+00 0. -1.
          6    2    1    2  501    0  0.11813597438E+03 -0.93830243564E+02 -0.21307153912E+03  0.30773504459E+03  0.16291455992E+03 0.  0.
         24    2    3    3    0    0  0.95101682547E+02 -0.25906030558E+02 -0.61499684590E+02  0.13998405533E+03  0.78088873082E+02 0.  0.
         -6    2    1    2    0  502 -0.11813597438E+03  0.93830243564E+02  0.38147482915E+03  0.44671924809E+03  0.17684687808E+03 0.  0.
        -24    2    5    5    0    0 -0.29604659539E+02 -0.67474520263E+01  0.22458565192E+03  0.24034587168E+03  0.80034111542E+02 0.  0.
          5    1    3    3  501    0  0.23034291837E+02 -0.67924213006E+02 -0.15157185453E+03  0.16775098926E+03  0.47000000000E+01 0. -1.
        -11    1    4    4    0    0  0.10829606602E+02 -0.18393282790E+02  0.14865405854E+02  0.26011026934E+02  0.00000000000E+00 0.  1.
         12    1    4    4    0    0  0.84272075945E+02 -0.75127477682E+01 -0.76365090445E+02  0.11397302840E+03  0.00000000000E+00 0. -1.
         -5    1    5    5    0  502 -0.88531314846E+02  0.10057769559E+03  0.15688917724E+03  0.20637337641E+03  0.47000000000E+01 0.  1.
         13    1    6    6    0    0  0.21117022682E+02  0.57345914086E+01  0.21599571837E+02  0.30746637037E+02  0.00000000000E+00 0. -1.
        -14    1    6    6    0    0 -0.50721682220E+02 -0.12482043435E+02  0.20298608008E+03  0.20959923464E+03  0.00000000000E+00 0.  1.
</event>
<event>
12    1  0.8196217E-002  0.1801520E+03  0.7818608E-02  0.1168055E+00
         21   -1    0    0  503  502  0.00000000000E+00  0.00000000000E+00  0.25178130189E+04  0.25178130189E+04  0.00000000000E+00 0. -1.
         21   -1    0    0  501  503 -0.00000000000E+00 -0.00000000000E+00 -0.27460718079E+02  0.27460718079E+02  0.00000000000E+00 0. -1.
          6    2    1    2  501    0  0.16111123152E+02 -0.45535722635E+02  0.31709274588E+03  0.36469514386E+03  0.17355595102E+03 0.  0.
         24    2    3    3    0    0 -0.60745932803E+01 -0.93931657062E+02  0.18691808613E+03  0.22397590380E+03  0.79792090302E+02 0.  0.
         -6    2    1    2    0  502 -0.16111123152E+02  0.45535722635E+02  0.21732595549E+04  0.21805785931E+04  0.17185120696E+03 0.  0.
        -24    2    5    5    0    0 -0.64701807150E+02 -0.59054809230E+01  0.13631502778E+04  0.13673711271E+04  0.85462978138E+02 0.  0.
          5    1    3    3  501    0  0.22185716432E+02  0.48395934427E+02  0.13017465975E+03  0.14071924006E+03  0.47000000000E+01 0. -1.
        -13    1    4    4    0    0 -0.41053711785E+02 -0.61673214680E+02  0.95021525525E+02  0.12049100785E+03  0.00000000000E+00 0.  1.
         14    1    4    4    0    0  0.34979118505E+02 -0.32258442381E+02  0.91896560610E+02  0.10348489594E+03  0.00000000000E+00 0. -1.
         -5    1    5    5    0  502  0.48590683998E+02  0.51441203558E+02  0.81010927711E+03  0.81320746606E+03  0.47000000000E+01 0.  1.
         13    1    6    6    0    0 -0.58097594086E+02  0.20804940626E+02  0.12224005720E+04  0.12239572437E+04  0.00000000000E+00 0. -1.
        -14    1    6    6    0    0 -0.66042130637E+01 -0.26710421549E+02  0.14074970587E+03  0.14341388340E+03  0.00000000000E+00 0.  1.
</event>
<event>
12    1  0.8196217E-002  0.2005836E+03  0.7818608E-02  0.1150347E+00
         21   -1    0    0  501  502  0.00000000000E+00  0.00000000000E+00  0.84138862321E+03  0.84138862321E+03  0.00000000000E+00 0. -1.
         21   -1    0    0  502  503 -0.00000000000E+00 -0.00000000000E+00 -0.46596253202E+02  0.46596253202E+02  0.00000000000E+00 0. -1.
         -6    2    1    2    0  503  0.22728322640E+02 -0.98749585923E+02  0.40223368316E+03  0.44947269719E+03  0.17310607234E+03 0.  0.
        -24    2    3    3    0    0  0.56866414719E+02 -0.12284274576E+03  0.35370630916E+03  0.38526299614E+03  0.70677392043E+02 0.  0.
          6    2    1    2  501    0 -0.22728322640E+02  0.98749585923E+02  0.39255868685E+03  0.43851217922E+03  0.16710042291E+03 0.  0.
         24    2    5    5    0    0 -0.40620654320E+02  0.11776659869E+03  0.26879375734E+03  0.31193560128E+03  0.97645921756E+02 0.  0.
          5    1    5    5  501    0  0.17892331680E+02 -0.19017012772E+02  0.12376492951E+03  0.12657657795E+03  0.47000000000E+01 0. -1.
        -11    1    6    6    0    0  0.21973878705E+02  0.46737056709E+02  0.15786736471E+03  0.16610029698E+03  0.00000000000E+00 0.  1.
         12    1    6    6    0    0 -0.62594533026E+02  0.71029541986E+02  0.11092639263E+03  0.14583530430E+03  0.00000000000E+00 0. -1.
         -5    1    3    3    0  503 -0.34138092079E+02  0.24093159834E+02  0.48527373998E+02  0.64209701048E+02  0.47000000000E+01 0.  1.
         11    1    4    4    0    0  0.66427725678E+02 -0.67259634348E+02  0.19215046354E+03  0.21414551546E+03  0.00000000000E+00 0. -1.
        -12    1    4    4    0    0 -0.95613109586E+01 -0.55583111408E+02  0.16155584562E+03  0.17111748068E+03  0.00000000000E+00 0.  1.
</event>
<event>
12    1  0.8196217E-002  0.2992742E+03  0.7818608E-02  0.1085896E+00
         21   -1    0    0  503  502  0.00000000000E+00  0.00000000000E+00  0.56754404070E+03  0.56754404070E+03  0.00000000000E+00 0. -1.
         21   -1    0    0  501  503 -0.00000000000E+00 -0.00000000000E+00 -0.15721009012E+03  0.15721009012E+03  0.00000000000E+00 0.  1.
          6    2    1    2  501    0 -0.23075542150E+03 -0.75999239693E+02  0.22873344513E+03  0.37667496107E+03  0.17476008808E+03 0.  0.
         24    2    3    3    0    0 -0.14469232494E+03 -0.50247903035E+02  0.53676399368E+02  0.17985766711E+03  0.77504218676E+02 0.  0.
         -6    2    1    2    0  502  0.23075542150E+03  0.75999239693E+02  0.18160050544E+03  0.34807916975E+03  0.17075249881E+03 0.  0.
        -24    2    5    5    0    0  0.10144747421E+03  0.63974927495E+02  0.15700854064E+03  0.21582190511E+03  0.86850627622E+02 0.  0.
          5    1    3    3  501    0 -0.86063096560E+02 -0.25751336658E+02  0.17505704577E+03  0.19681729396E+03  0.47000000000E+01 0. -1.
        -13    1    4    4    0    0 -0.17525830451E+02 -0.10501917567E+02 -0.19164424426E+02  0.28012857212E+02  0.00000000000E+00 0.  1.
         14    1    4    4    0    0 -0.12716649449E+03 -0.39745985468E+02  0.72840823794E+02  0.15184480990E+03  0.00000000000E+00 0. -1.
         -5    1    5    5    0  502  0.12930794729E+03  0.12024312199E+02  0.24591964797E+02  0.13225726464E+03  0.47000000000E+01 0.  1.
         13    1    6    6    0    0  0.79240190880E+02 -0.10951059430E+01  0.87515752140E+02  0.11806444842E+03  0.00000000000E+00 0. -1.
        -14    1    6    6    0    0  0.22207283328E+02  0.65070033438E+02  0.69492788503E+02  0.97757456689E+02  0.00000000000E+00 0.  1.
</event>
<event>
12    1  0.8196217E-002  0.1865166E+03  0.7818608E-02  0.1162302E+00
         21   -1    0    0  503  502  0.00000000000E+00  0.00000000000E+00  0.78933315841E+03  0.78933315841E+03  0.00000000000E+00 0. -1.
         21   -1    0    0  501  503 -0.00000000000E+00 -0.00000000000E+00 -0.43420893854E+02  0.43420893854E+02  0.00000000000E+00 0. -1.
          6    2    1    2  501    0  0.53600629227E+02  0.51561837187E+02  0.37808954455E+03  0.42034406279E+03  0.16794575588E+03 0.  0.
         24    2    3    3    0    0 -0.30718715671E+02  0.40093820148E+02  0.16863855111E+03  0.19421782374E+03  0.82039309044E+02 0.  0.
         -6    2    1    2    0  502 -0.53600629227E+02 -0.51561837187E+02  0.36782272001E+03  0.41240998948E+03  0.17104617960E+03 0.  0.
        -24    2    5    5    0    0 -0.17533024990E+02  0.25140794951E+01  0.58069377976E+02  0.95875157678E+02  0.74204215784E+02 0.  0.
          5    1    3    3  501    0  0.84319344898E+02  0.11468017038E+02  0.20945099343E+03  0.22612623906E+03  0.47000000000E+01 0. -1.
        -13    1    4    4    0    0 -0.87339735287E+00 -0.15004185742E+02  0.10061525353E+03  0.10173159615E+03  0.00000000000E+00 0.  1.
         14    1    4    4    0    0 -0.29845318318E+02  0.55098005891E+02  0.68023297586E+02  0.92486227586E+02  0.00000000000E+00 0. -1.
         -5    1    5    5    0  502 -0.36067604237E+02 -0.54075916682E+02  0.30975334203E+03  0.31653483180E+03  0.47000000000E+01 0.  1.
         11    1    6    6    0    0 -0.16283283379E+02 -0.32882638284E+02  0.45134995262E+02  0.58168556931E+02  0.00000000000E+00 0. -1.
        -12    1    6    6    0    0 -0.12497416111E+01  0.35396717779E+02  0.12934382714E+02  0.37706600746E+02  0.00000000000E+00 0.  1.
</event>
<event>
12    1  0.8196217E-002  0.2107973E+03  0.7818608E-02  0.1140975E+00
         21   -1    0    0  503  502  0.00000000000E+00  0.00000000000E+00  0.34273853003E+03  0.34273853003E+03  0.00000000000E+00 0.  1.
         21   -1    0    0  501  503 -0.00000000000E+00 -0.00000000000E+00 -0.22386783700E+03  0.22386783700E+03  0.00000000000E+00 0.  1.
          6    2    1    2  501    0  0.21989611877E+01  0.12029438819E+03 -0.12449012417E+03  0.24464364714E+03  0.17285007322E+03 0.  0.
         24    2    3    3    0    0  0.29184749069E+02  0.46762106124E+02 -0.13391309123E+03  0.16561130211E+03  0.80348884481E+02 0.  0.
         -6    2    1    2    0  502 -0.21989611877E+01 -0.12029438819E+03  0.24336081721E+03  0.32196271989E+03  0.17308937111E+03 0.  0.
        -24    2    5    5    0    0 -0.63898056156E+02 -0.98504227163E+02  0.13938636755E+03  0.19902222364E+03  0.79970255065E+02 0.  0.
          5    1    3    3  501    0 -0.26985787881E+02  0.73532282067E+02  0.94229670529E+01  0.79032345034E+02  0.47000000000E+01 0. -1.
        -11    1    4    4    0    0 -0.15876241027E+02  0.49100176067E+02 -0.61391007302E+02  0.80198117787E+02  0.00000000000E+00 0.  1.
         12    1    4    4    0    0  0.45060990096E+02 -0.23380699430E+01 -0.72522083923E+02  0.85413184322E+02  0.00000000000E+00 0. -1.
         -5    1    5    5    0  502  0.61699094968E+02 -0.21790161028E+02  0.10397444966E+03  0.12294049625E+03  0.47000000000E+01 0.  1.
         11    1    6    6    0    0 -0.41165066491E+02 -0.67990952591E+02  0.33043277900E+02  0.86076655068E+02  0.00000000000E+00 0. -1.
        -12    1    6    6    0    0 -0.22732989665E+02 -0.30513274572E+02  0.10634308965E+03  0.11294556857E+03  0.00000000000E+00 0.  1.
</event>
<event>
12    1  0.8196217E-002  0.1751822E+03  0.7818608E-02  0.1172737E+00
         21   -1    0    0  501  502  0.00000000000E+00  0.00000000000E+00  0.52990010064E+03  0.52990010064E+03  0.00000000000E+00 0.  1.
         21   -1    0    0  502  503 -0.00000000000E+00 -0.00000000000E+00 -0.65007064299E+02  0.65007064299E+02  0.00000000000E+00 0.  1.
         -6    2    1    2    0  503 -0.29742592333E+02 -0.11145214332E+02  0.33195668749E+03  0.37499609476E+03  0.17151673713E+03 0.  0.
        -24    2    3    3    0    0  0.81190383199E+01 -0.62153759244E+02  0.14288099365E+03  0.17547897085E+03  0.80304933191E+02 0.  0.
          6    2    1    2  501    0  0.29742592333E+02  0.11145214332E+02  0.13293634886E+03  0.21991107019E+03  0.17227875186E+03 0.  0.
         24    2    5    5    0    0  0.22360659066E+02 -0.34361426825E+02  0.14579428356E+03  0.17181986711E+03  0.81150396722E+02 0.  0.
          5    1    5    5  501    0  0.73819332677E+01  0.45506641157E+02 -0.12857934704E+02  0.48091203073E+02  0.47000000000E+01 0. -1.
        -13    1    6    6    0    0  0.19675104792E+02 -0.64863099911E+01 -0.25340420939E+01  0.20871112457E+02  0.00000000000E+00 0.  1.
         14    1    6    6    0    0  0.26855542739E+01 -0.27875116834E+02  0.14832832566E+03  0.15094875466E+03  0.00000000000E+00 0. -1.
         -5    1    3    3    0  503 -0.37861630653E+02  0.51008544912E+02  0.18907569384E+03  0.19951712390E+03  0.47000000000E+01 0.  1.
         11    1    4    4    0    0  0.28998516636E+02  0.67270531169E+01  0.37883767150E+02  0.48180359320E+02  0.00000000000E+00 0. -1.
        -12    1    4    4    0    0 -0.20879478316E+02 -0.68880812361E+02  0.10499722650E+03  0.12729861153E+03  0.00000000000E+00 0.  1.
</event>
<event>
12    1  0.8196217E-002  0.2210426E+03  0.7818608E-02  0.1134268E+00
         21   -1    0    0  503  502  0.00000000000E+00  0.00000000000E+00  0.10411091923E+03  0.10411091923E+03  0.00000000000E+00 0.  1.
         21   -1    0    0  501  503 -0.00000000000E+00 -0.00000000000E+00 -0.47126067583E+03  0.47126067583E+03  0.00000000000E+00 0.  1.
          6    2    1    2  501    0 -0.12796196294E+03 -0.29793255740E+01 -0.13484983021E+03  0.25892916555E+03  0.18021291775E+03 0.  0.
         24    2    3    3    0    0 -0.11170912320E+03 -0.49529144366E+02 -0.38779475281E+02  0.15084288739E+03  0.79483738126E+02 0.  0.
         -6    2    1    2    0  502  0.12796196294E+03  0.29793255740E+01 -0.23229992638E+03  0.31644242951E+03  0.17259610383E+03 0.  0.
        -24    2    5    5    0    0  0.20373839932E+02  0.45653642637E+02 -0.14297827150E+03  0.17016615126E+03  0.77552462713E+02 0.  0.
          5    1    3    3  501    0 -0.16252839740E+02  0.46549818792E+02 -0.96070354932E+02  0.10808627816E+03  0.47000000000E+01 0. -1.
        -13    1    4    4    0    0 -0.58440525571E+02 -0.67185058774E+02 -0.17043246988E+02  0.90662006482E+02  0.00000000000E+00 0.  1.
         14    1    4    4    0    0 -0.53268597628E+02  0.17655914408E+02 -0.21736228293E+02  0.60180880911E+02  0.00000000000E+00 0. -1.
         -5    1    5    5    0  502  0.10758812301E+03 -0.42674317063E+02 -0.89321654883E+02  0.14627627825E+03  0.47000000000E+01 0.  1.
         13    1    6    6    0    0  0.27709916279E+02  0.33422935524E+01 -0.87716563646E+01  0.29256663203E+02  0.00000000000E+00 0. -1.
        -14    1    6    6    0    0 -0.73360763470E+01  0.42311349085E+02 -0.13420661514E+03  0.14090948806E+03  0.00000000000E+00 0.  1.
</event>
<event>
12    1  0.8196217E-002  0.1903287E+03  0.7818608E-02  0.1158521E+00
         21   -1    0    0  503  502  0.00000000000E+00  0.00000000000E+00  0.81062539120E+02  0.81062539120E+02  0.00000000000E+00 0.  1.
         21   -1    0    0  501  503 -0.00000000000E+00 -0.00000000000E+00 -0.51853973442E+03  0.51853973442E+03  0.00000000000E+00 0. -1.
          6    2    1    2  501    0  0.24515573596E+02  0.75569827254E+02 -0.10367374364E+03  0.21535006770E+03  0.17121797335E+03 0.  0.
         24    2    3    3    0    0  0.51707069852E+02  0.66134427475E+02 -0.91691921645E+01  0.11644807334E+03  0.80179150224E+02 0.  0.
         -6    2    1    2    0  502 -0.24515573596E+02 -0.75569827254E+02 -0.33380345166E+03  0.38425220584E+03  0.17295433274E+03 0.  0.
        -24    2    5    5    0    0 -0.60902635995E+02 -0.57138518923E+01 -0.12963244333E+03  0.16536464054E+03  0.82456745026E+02 0.  0.
          5    1    3    3  501    0 -0.27191496256E+02  0.94353997789E+01 -0.94504551476E+02  0.98901994354E+02  0.47000000000E+01 0. -1.
        -13    1    4    4    0    0  0.32208553937E+02  0.59489676514E+02  0.28584293183E+02  0.73440277608E+02  0.00000000000E+00 0.  1.
         14    1    4    4    0    0  0.19498515916E+02  0.66447509616E+01 -0.37753485347E+02  0.43007795737E+02  0.00000000000E+00 0. -1.
         -5    1    5    5    0  502  0.36387062399E+02 -0.69855975362E+02 -0.20417100833E+03  0.21888756530E+03  0.47000000000E+01 0.  1.
         13    1    6    6    0    0 -0.10252920708E+01  0.52102490624E+01 -0.95370634208E+02  0.95518353150E+02  0.00000000000E+00 0. -1.
        -14    1    6    6    0    0 -0.59877343924E+02 -0.10924100955E+02 -0.34261809125E+02  0.69846287385E+02  0.00000000000E+00 0.  1.
</event>
<event>
12    1  0.8196217E-002  0.1865592E+03  0.7818608E-02  0.1161760E+00
         21   -1    0    0  501  502  0.00000000000E+00  0.00000000000E+00  0.13900091003E+03  0.13900091003E+03  0.00000000000E+00 0.  1.
         21   -1    0    0  502  503 -0.00000000000E+00 -0.00000000000E+00 -0.27680514801E+03  0.27680514801E+03  0.00000000000E+00 0.  1.
         -6    2    1    2    0  503 -0.24012328591E+00 -0.69150488836E+02 -0.34593229128E+01  0.18590845492E+03  0.17253445723E+03 0.  0.
        -24    2    3    3    0    0 -0.61106545123E+02 -0.25816806271E+02 -0.26697561868E+02  0.10752073202E+03  0.80295894424E+02 0.  0.
          6    2    1    2  501    0  0.24012328591E+00  0.69150488836E+02 -0.13434491506E+03  0.22989760312E+03  0.17327003189E+03 0.  0.
         24    2    5    5    0    0  0.34299188444E+02  0.58438940320E+02 -0.15644497674E+03  0.18764526688E+03  0.78384764859E+02 0.  0.
          5    1    5    5  501    0 -0.34059065158E+02  0.10711548515E+02  0.22100061678E+02  0.42252336234E+02  0.47000000000E+01 0. -1.
        -13    1    6    6    0    0 -0.64108697390E+01 -0.16441931702E+02 -0.36011220218E+02  0.40102921969E+02  0.00000000000E+00 0.  1.
         14    1    6    6    0    0  0.40710058183E+02  0.74880872022E+02 -0.12043375652E+03  0.14754234491E+03  0.00000000000E+00 0. -1.
         -5    1    3    3    0  503  0.60866421837E+02 -0.43333682565E+02  0.23238238955E+02  0.78387722901E+02  0.47000000000E+01 0.  1.
         11    1    4    4    0    0 -0.83455095068E+01 -0.46224454339E+02 -0.63339956635E+01  0.47396911386E+02  0.00000000000E+00 0. -1.
        -12    1    4    4    0    0 -0.52761035616E+02  0.20407648068E+02 -0.20363566204E+02  0.60123820633E+02  0.00000000000E+00 0.  1.
</event>
<event>
12    1  0.8196217E-002  0.2031740E+03  0.7818608E-02  0.1147155E+00
         21   -1    0    0  501  502  0.00000000000E+00  0.00000000000E+00  0.16513567197E+04  0.16513567197E+04  0.00000000000E+00 0.  1.
         21   -1    0    0  502  503 -0.00000000000E+00 -0.00000000000E+00 -0.25474081882E+02  0.25474081882E+02  0.00000000000E+00 0. -1.
         -6    2    1    2    0  503  0.92443990355E+02  0.55936538718E+02  0.69296473488E+03  0.72204522285E+03  0.17168107739E+03 0.  0.
        -24    2    3    3    0    0  0.77673605468E+02  0.39829169574E+02  0.68856996120E+03  0.69926330795E+03  0.84976647693E+02 0.  0.
          6    2    1    2  501    0 -0.92443990355E+02 -0.55936538718E+02  0.93291790297E+03  0.95478557877E+03  0.17206074514E+03 0.  0.
         24    2    5    5    0    0 -0.51900671743E+02  0.29527075044E+01  0.79201663972E+03  0.79671293727E+03  0.68983683621E+02 0.  0.
          5    1    5    5  501    0 -0.40543318612E+02 -0.58889246223E+02  0.14090126325E+03  0.15807264150E+03  0.47000000000E+01 0. -1.
        -13    1    6    6    0    0 -0.26081817871E+02  0.35346016436E+02  0.34613483755E+03  0.34891106011E+03  0.00000000000E+00 0.  1.
         14    1    6    6    0    0 -0.25818853873E+02 -0.32393308931E+02  0.44588180217E+03  0.44780187716E+03  0.00000000000E+00 0. -1.
         -5    1    3    3    0  503  0.14770384887E+02  0.16107369144E+02  0.43947736809E+01  0.22781914892E+02  0.47000000000E+01 0.  1.
         13    1    4    4    0    0  0.18241771866E+02  0.56534792761E+02  0.30080120037E+03  0.30661100303E+03  0.00000000000E+00 0. -1.
        -14    1    4    4    0    0  0.59431833602E+02 -0.16705623187E+02  0.38776876082E+03  0.39265230492E+03  0.00000000000E+00 0.  1.
</event>
<event>
12    1  0.8196217E-002  0.2016046E+03  0.7818608E-02  0.1148522E+00
         21   -1    0    0  503  502  0.00000000000E+00  0.00000000000E+00  0.33345739345E+03  0.33345739345E+03  0.00000000000E+00 0.  1.
         21   -1    0    0  501  503 -0.00000000000E+00 -0.00000000000E+00 -0.25923521949E+03  0.25923521949E+03  0.00000000000E+00 0.  1.
          6    2    1    2  501    0  0.79849815519E+02  0.65714771656E+02 -0.17886187911E+03  0.26951067591E+03  0.17306070720E+03 0.  0.
         24    2    3    3    0    0  0.31113126409E+02  0.10782797127E+03 -0.13088472188E+03  0.18905768303E+03  0.77569962416E+02 0.  0.
         -6    2    1    2    0  502 -0.79849815519E+02 -0.65714771656E+02  0.25308405307E+03  0.32318193702E+03  0.17233862668E+03 0.  0.
        -24    2    5    5    0    0 -0.25998679916E+01 -0.78478229095E+02  0.94175293467E+02  0.14596866405E+03  0.79197684496E+02 0.  0.
          5    1    3    3  501    0  0.48736689110E+02 -0.42113199611E+02 -0.47977157233E+02  0.80452992878E+02  0.47000000000E+01 0. -1.
        -11    1    4    4    0    0  0.31929495712E+02  0.46418695567E+01 -0.41281570493E+02  0.52394729809E+02  0.00000000000E+00 0.  1.
         12    1    4    4    0    0 -0.81636930295E+00  0.10318610171E+03 -0.89603151387E+02  0.13666295322E+03  0.00000000000E+00 0. -1.
         -5    1    5    5    0  502 -0.77249947527E+02  0.12763457440E+02  0.15890875961E+03  0.17721327297E+03  0.47000000000E+01 0.  1.
         13    1    6    6    0    0  0.27195157536E+02 -0.62686390549E+02  0.32477217669E+02  0.75656657479E+02  0.00000000000E+00 0. -1.
        -14    1    6    6    0    0 -0.29795025527E+02 -0.15791838547E+02  0.61698075798E+02  0.70312006571E+02  0.00000000000E+00 0.  1.
</event>
<event>
12    1  0.8196217E-002  0.1866310E+03  0.7818608E-02  0.1161540E+00
         21   -1    0    0  501  502  0.00000000000E+00  0.00000000000E+00  0.25987751698E+04  0.25987751698E+04  0.00000000000E+00 0.  1.
         21   -1    0    0  502  503 -0.00000000000E+00 -0.00000000000E+00 -0.97934102000E+02  0.97934102000E+02  0.00000000000E+00 0. -1.
         -6    2    1    2    0  503  0.52212336654E+02 -0.49892639054E+02 -0.22953000086E+01  0.18662504913E+03  0.17207044206E+03 0.  0.
        -24    2    3    3    0    0 -0.69684913375E+01 -0.71148440457E+02 -0.40350537980E+02  0.11297404349E+03  0.77616416668E+02 0.  0.
          6    2    1    2  501    0 -0.52212336654E+02  0.49892639054E+02  0.25031363678E+04  0.25100842227E+04  0.17209220059E+03 0.  0.
         24    2    5    5    0    0 -0.44415022564E+02 -0.29672003692E+02  0.16907095362E+04  0.16937198572E+04  0.85645179968E+02 0.  0.
          5    1    5    5  501    0 -0.77973140898E+01  0.79564642746E+02  0.81242683168E+03  0.81636436553E+03  0.47000000000E+01 0. -1.
        -13    1    6    6    0    0 -0.60434896852E+02  0.41221021234E+01  0.83553722424E+03  0.83773016036E+03  0.00000000000E+00 0.  1.
         14    1    6    6    0    0  0.16019874289E+02 -0.33794105816E+02  0.85517231192E+03  0.85598969680E+03  0.00000000000E+00 0. -1.
         -5    1    3    3    0  503  0.59180827991E+02  0.21255801403E+02  0.38055237972E+02  0.73651005642E+02  0.47000000000E+01 0.  1.
         13    1    4    4    0    0  0.19494421722E+02  0.11448314452E+01 -0.29284459800E+02  0.35198333811E+02  0.00000000000E+00 0. -1.
        -14    1    4    4    0    0 -0.26462913059E+02 -0.72293271903E+02 -0.11066078181E+02  0.77775709680E+02  0.00000000000E+00 0.  1.
</event>
<event>
12    1  0.8196217E-002  0.2573808E+03  0.7818608E-02  0.1109263E+00
         21   -1    0    0  501  502  0.00000000000E+00  0.00000000000E+00  0.10355563452E+03  0.10355563452E+03  0.00000000000E+00 0.  1.
         21   -1    0    0  502  503 -0.00000000000E+00 -0.00000000000E+00 -0.63371316567E+03  0.63371316567E+03  0.00000000000E+00 0. -1.
         -6    2    1    2    0  503  0.92357482913E+02  0.16810422631E+03 -0.23936025720E+03  0.34892881272E+03  0.16634015771E+03 0.  0.
        -24    2    3    3    0    0  0.54038077991E+02  0.17679703730E+03 -0.14987058145E+03  0.25107977684E+03  0.80015978934E+02 0.  0.
          6    2    1    2  501    0 -0.92357482913E+02 -0.16810422631E+03 -0.29079727394E+03  0.38833998746E+03  0.17162737479E+03 0.  0.
         24    2    5    5    0    0 -0.57549368499E+02 -0.15107044576E+03 -0.29798428054E+03  0.34864744946E+03  0.81401493673E+02 0.  0.
          5    1    5    5  501    0 -0.34808114414E+02 -0.17033780549E+02  0.71870065995E+01  0.39692537998E+02  0.47000000000E+01 0. -1.
        -13    1    6    6    0    0  0.18162814872E+02 -0.59342949203E+02 -0.10204847955E+03  0.11943770612E+03  0.00000000000E+00 0.  1.
         14    1    6    6    0    0 -0.75712183371E+02 -0.91727496555E+02 -0.19593580099E+03  0.22920974335E+03  0.00000000000E+00 0. -1.
         -5    1    3    3    0  503  0.38319404922E+02 -0.86928109922E+01 -0.89489675752E+02  0.97849035881E+02  0.47000000000E+01 0.  1.
         13    1    4    4    0    0  0.45072727849E+02  0.96923525394E+02 -0.12996694744E+03  0.16827693840E+03  0.00000000000E+00 0. -1.
        -14    1    4    4    0    0  0.89653501418E+01  0.79873511905E+02 -0.19903634009E+02  0.82802838442E+02  0.00000000000E+00 0.  1.
</event>
<event>
12    1  0.8196217E-002  0.1886530E+03  0.7818608E-02  0.1160496E+00
         21   -1    0    0  501  502  0.00000000000E+00  0.00000000000E+00  0.11224066561E+04  0.11224066561E+04  0.00000000000E+00 0. -1.
         21   -1    0    0  502  503 -0.00000000000E+00 -0.00000000000E+00 -0.89528742872E+02  0.89528742872E+02  0.00000000000E+00 0. -1.
         -6    2    1    2    0  503  0.55481230303E+02  0.83084578471E+01  0.25280274657E+02  0.18682907673E+03  0.17640525570E+03 0.  0.
        -24    2    3    3    0    0  0.37868864214E+02 -0.60637139774E+02  0.39852008942E+02  0.11404091622E+03  0.79411802387E+02 0.  0.
          6    2    1    2  501    0 -0.55481230303E+02 -0.83084578471E+01  0.10075976385E+04  0.10251063222E+04  0.18011877542E+03 0.  0.
         24    2    5    5    0    0 -0.22510384558E+02  0.39123763787E+02  0.88319314045E+03  0.88786397648E+03  0.78961579743E+02 0.  0.
          5    1    5    5  501    0 -0.32970845745E+02 -0.47432221634E+02  0.12440449808E+03  0.13724234573E+03  0.47000000000E+01 0. -1.
        -11    1    6    6    0    0  0.57173430709E+00  0.17064340238E+02  0.77171183721E+03  0.77190069198E+03  0.00000000000E+00 0.  1.
         12    1    6    6    0    0 -0.23082118865E+02  0.22059423549E+02  0.11148130324E+03  0.11596328449E+03  0.00000000000E+00 0. -1.
         -5    1    3    3    0  503  0.17612366089E+02  0.68945597621E+02 -0.14571734285E+02  0.72788160512E+02  0.47000000000E+01 0.  1.
         11    1    4    4    0    0 -0.19591136510E+02 -0.35828441201E+02  0.19700217013E+01  0.40882402255E+02  0.00000000000E+00 0. -1.
        -12    1    4    4    0    0  0.57460000724E+02 -0.24808698574E+02  0.37881987241E+02  0.73158513964E+02  0.00000000000E+00 0.  1.
</event>
<event>
12    1  0.8196217E-002  0.1902806E+03  0.7818608E-02  0.1158490E+00
         21   -1    0    0  503  502  0.00000000000E+00  0.00000000000E+00  0.67274514823E+03  0.67274514823E+03  0.00000000000E+00 0.  1.
         21   -1    0    0  501  503 -0.00000000000E+00 -0.00000000000E+00 -0.14467332143E+03  0.14467332143E+03  0.00000000000E+00 0.  1.
          6    2    1    2  501    0 -0.62962599901E+01  0.79702460606E+02 -0.60796865367E+02  0.19857029674E+03  0.17129442137E+03 0.  0.
         24    2    3    3    0    0  0.25503148492E+02  0.11435412748E+03 -0.51334703799E+02  0.15036694729E+03  0.79042330233E+02 0.  0.
         -6    2    1    2    0  502  0.62962599901E+01 -0.79702460606E+02  0.58886869216E+03  0.61884817292E+03  0.17266904586E+03 0.  0.
        -24    2    5    5    0    0  0.21535689678E+02 -0.53092090703E+01  0.47701372227E+03  0.48356986579E+03  0.76195473811E+02 0.  0.
          5    1    3    3  501    0 -0.31799408482E+02 -0.34651666871E+02 -0.94621615679E+01  0.48203349451E+02  0.47000000000E+01 0. -1.
        -13    1    4    4    0    0 -0.22048053400E+02  0.13155760886E+02 -0.24257746568E+02  0.35321791741E+02  0.00000000000E+00 0.  1.
         14    1    4    4    0    0  0.47551201892E+02  0.10119836659E+03 -0.27076957231E+02  0.11504515555E+03  0.00000000000E+00 0. -1.
         -5    1    5    5    0  502 -0.15239429688E+02 -0.74393251536E+02  0.11185496989E+03  0.13527830713E+03  0.47000000000E+01 0.  1.
         13    1    6    6    0    0  0.37394089160E+02 -0.11629006589E+02  0.44941600150E+03  0.45111893565E+03  0.00000000000E+00 0. -1.
        -14    1    6    6    0    0 -0.15858399481E+02  0.63197975186E+01  0.27597720769E+02  0.32450930132E+02  0.00000000000E+00 0.  1.
</event>
<event>
12    1  0.8196217E-002  0.1771615E+03  0.7818608E-02  0.1171206E+00
         21   -1    0    0  503  502  0.00000000000E+00  0.00000000000E+00  0.14861865709E+02  0.14861865709E+02  0.00000000000E+00 0.  1.
         21   -1    0    0  501  503 -0.00000000000E+00 -0.00000000000E+00 -0.26271286009E+04  0.26271286009E+04  0.00000000000E+00 0.  1.
          6    2    1    2  501    0 -0.22108783546E+02 -0.30093490086E+02 -0.19153307561E+04  0.19235067238E+04  0.17318139292E+03 0.  0.
         24    2    3    3    0    0 -0.44373674500E+02 -0.12262908161E+02 -0.18473382970E+04  0.18496235761E+04  0.79556192778E+02 0.  0.
         -6    2    1    2    0  502  0.22108783546E+02  0.30093490086E+02 -0.69693597911E+03  0.71848374281E+03  0.17060103531E+03 0.  0.
        -24    2    5    5    0    0  0.54485182814E+02  0.35249883833E+02 -0.25296296929E+03  0.27327711317E+03  0.80491784021E+02 0.  0.
          5    1    3    3  501    0  0.22264890955E+02 -0.17830581925E+02 -0.67992459033E+02  0.73883147648E+02  0.47000000000E+01 0. -1.
        -13    1    4    4    0    0 -0.10118504524E+02  0.25902860854E+02 -0.11762157495E+04  0.11765444453E+04  0.00000000000E+00 0.  1.
         14    1    4    4    0    0 -0.34255169976E+02 -0.38165769015E+02 -0.67112254752E+03  0.67307913085E+03  0.00000000000E+00 0. -1.
         -5    1    5    5    0  502 -0.32376399268E+02 -0.51563937476E+01 -0.44397300982E+03  0.44520662964E+03  0.47000000000E+01 0.  1.
         11    1    6    6    0    0 -0.16731196781E+02 -0.27160897554E+01 -0.17480661210E+02  0.24349201334E+02  0.00000000000E+00 0. -1.
        -12    1    6    6    0    0  0.71216379594E+02  0.37965973589E+02 -0.23548230808E+03  0.24892791184E+03  0.00000000000E+00 0.  1.
</event>
<event>
12    1  0.8196217E-002  0.1834865E+03  0.7818608E-02  0.1164684E+00
         21   -1    0    0  503  502  0.00000000000E+00  0.00000000000E+00  0.73682795281E+02  0.73682795281E+02  0.00000000000E+00 0. -1.
         21   -1    0    0  501  503 -0.00000000000E+00 -0.00000000000E+00 -0.45918237341E+03  0.45918237341E+03  0.00000000000E+00 0. -1.
          6    2    1    2  501    0  0.61673173943E+02 -0.73778032831E+01 -0.16685037092E+03  0.24800472326E+03  0.17265365365E+03 0.  0.
         24    2    3    3    0    0  0.28126971364E+02 -0.61064131417E+02 -0.46157625591E+02  0.11163611136E+03  0.76237394344E+02 0.  0.
         -6    2    1    2    0  502 -0.61673173943E+02  0.73778032831E+01 -0.21864920721E+03  0.28486044543E+03  0.17169736513E+03 0.  0.
        -24    2    5    5    0    0 -0.84070817120E+02 -0.37751131235E+02 -0.19265036608E+03  0.22797191503E+03  0.79774559178E+02 0.  0.
          5    1    3    3  501    0  0.33546202579E+02  0.53686328134E+02 -0.12069274533E+03  0.13636861190E+03  0.47000000000E+01 0. -1.
        -13    1    4    4    0    0 -0.18634224098E+02 -0.10490341225E+01 -0.27609784234E+02  0.33326190388E+02  0.00000000000E+00 0.  1.
         14    1    4    4    0    0  0.46761195462E+02 -0.60015097295E+02 -0.18547841357E+02  0.78309920976E+02  0.00000000000E+00 0. -1.
         -5    1    5    5    0  502  0.22397643177E+02  0.45128934518E+02 -0.25998841128E+02  0.56888530396E+02  0.47000000000E+01 0.  1.
         13    1    6    6    0    0 -0.20390082974E+02 -0.44255962193E+02 -0.42164937125E+02  0.64437780813E+02  0.00000000000E+00 0. -1.
        -14    1    6    6    0    0 -0.63680734146E+02  0.65048309580E+01 -0.15048542896E+03  0.16353413422E+03  0.00000000000E+00 0.  1.
</event>
<event>
12    1  0.8196217E-002  0.2298293E+03  0.7818608E-02  0.1126829E+00
         21   -1    0    0  501  502  0.00000000000E+00  0.00000000000E+00  0.10313830150E+03  0.10313830150E+03  0.00000000000E+00 0.  1.
         21   -1    0    0  502  503 -0.00000000000E+00 -0.00000000000E+00 -0.68103452054E+03  0.68103452054E+03  0.00000000000E+00 0.  1.
         -6    2    1    2    0  503 -0.15190541553E+03  0.13173947298E+01 -0.93374130800E+02  0.24807303188E+03  0.17246596779E+03 0.  0.
        -24    2    3    3    0    0 -0.10896966581E+03 -0.23242685896E+01 -0.13167188147E+03  0.19023231938E+03  0.83492878008E+02 0.  0.
          6    2    1    2  501    0  0.15190541553E+03 -0.13173947298E+01 -0.48452208824E+03  0.53609979016E+03  0.17194283996E+03 0.  0.
         24    2    5    5    0    0  0.81805195403E+01  0.57378943525E+01 -0.13339942131E+03  0.15660560039E+03  0.81425205783E+02 0.  0.
          5    1    5    5  501    0  0.14372489599E+03 -0.70552890823E+01 -0.35112266693E+03  0.37949418977E+03  0.47000000000E+01 0. -1.
        -11    1    6    6    0    0  0.36152672507E+02 -0.19987543010E+02 -0.89289228510E+02  0.98382335472E+02  0.00000000000E+00 0.  1.
         12    1    6    6    0    0 -0.27972152967E+02  0.25725437362E+02 -0.44110192799E+02  0.58223264919E+02  0.00000000000E+00 0. -1.
         -5    1    3    3    0  503 -0.42935749720E+02  0.36416633195E+01  0.38297750668E+02  0.57840712495E+02  0.47000000000E+01 0.  1.
         11    1    4    4    0    0 -0.19923348650E+01 -0.32060346888E+01  0.11158355899E+02  0.11779514549E+02  0.00000000000E+00 0. -1.
        -12    1    4    4    0    0 -0.10697733094E+03  0.88176609914E+00 -0.14283023737E+03  0.17845280484E+03  0.00000000000E+00 0.  1.
</event>
<event>
12    1  0.8196217E-002  0.3393966E+03  0.7818608E-02  0.1067179E+00
         21   -1    0    0  503  502  0.00000000000E+00  0.00000000000E+00  0.18410202077E+03  0.18410202077E+03  0.00000000000E+00 0.  1.
         21   -1    0    0  501  503 -0.00000000000E+00 -0.00000000000E+00 -0.70509376434E+03  0.70509376434E+03  0.00000000000E+00 0. -1.
          6    2    1    2  501    0  0.22479702863E+03  0.18483052371E+03 -0.10967053499E+03  0.35667582613E+03  0.17462529061E+03 0.  0.
         24    2    3    3    0    0  0.14284302277E+03  0.12400054439E+03 -0.13955783809E+03  0.25022355350E+03  0.85762301676E+02 0.  0.
         -6    2    1    2    0  502 -0.22479702863E+03 -0.18483052371E+03 -0.41132120858E+03  0.53251995898E+03  0.17232627049E+03 0.  0.
        -24    2    5    5    0    0 -0.85130868567E+02 -0.85957354174E+02 -0.28586507155E+03  0.32028454195E+03  0.78913985828E+02 0.  0.
          5    1    3    3  501    0  0.81954005858E+02  0.60829979323E+02  0.29887303105E+02  0.10645227263E+03  0.47000000000E+01 0. -1.
        -13    1    4    4    0    0  0.81787413415E+02  0.62038601902E+02 -0.23719143874E+02  0.10535922791E+03  0.00000000000E+00 0.  1.
         14    1    4    4    0    0  0.61055609357E+02  0.61961942490E+02 -0.11583869422E+03  0.14486432559E+03  0.00000000000E+00 0. -1.
         -5    1    5    5    0  502 -0.13966616006E+03 -0.98873169541E+02 -0.12545613703E+03  0.21223541703E+03  0.47000000000E+01 0.  1.
         11    1    6    6    0    0 -0.92874861540E+02 -0.83043148644E+02 -0.21155022666E+03  0.24551049436E+03  0.00000000000E+00 0. -1.
        -12    1    6    6    0    0  0.77439929736E+01 -0.29142055298E+01 -0.74314844896E+02  0.74774047590E+02  0.00000000000E+00 0.  1.
</event>
<event>
12    1  0.8196217E-002  0.1937890E+03  0.7818608E-02  0.1155332E+00
         21   -1    0    0  503  502  0.00000000000E+00  0.00000000000E+00  0.35508985037E+02  0.35508985037E+02  0.00000000000E+00 0. -1.
         21   -1    0    0  501  503 -0.00000000000E+00 -0.00000000000E+00 -0.10604768622E+04  0.10604768622E+04  0.00000000000E+00 0. -1.
          6    2    1    2  501    0 -0.74539489032E+02 -0.45702621357E+02 -0.56128605448E+03  0.59343733537E+03  0.17170023597E+03 0.  0.
         24    2    3    3    0    0  0.15332483121E+02  0.15992368263E+02 -0.26343738658E+03  0.27623209882E+03  0.80087919753E+02 0.  0.
         -6    2    1    2    0  502  0.74539489032E+02  0.45702621357E+02 -0.46368182271E+03  0.50254851190E+03  0.17294308044E+03 0.  0.
        -24    2    5    5    0    0  0.24620328578E+02  0.78230251648E+02 -0.39629463122E+03  0.41247580299E+03  0.79754125060E+02 0.  0.
          5    1    3    3  501    0 -0.89871972153E+02 -0.61694989620E+02 -0.29784866790E+03  0.31720523655E+03  0.47000000000E+01 0. -1.
        -11    1    4    4    0    0 -0.79376015342E+01 -0.23691228632E+02 -0.33801203093E+02  0.42033333947E+02  0.00000000000E+00 0.  1.
         12    1    4    4    0    0  0.23270084655E+02  0.39683596895E+02 -0.22963618349E+03  0.23419876488E+03  0.00000000000E+00 0. -1.
         -5    1    5    5    0  502  0.49919160455E+02 -0.32527630291E+02 -0.67387191489E+02  0.90072708906E+02  0.47000000000E+01 0.  1.
         13    1    6    6    0    0  0.19555560037E+02 -0.63134966745E+01 -0.29000365544E+02  0.35542951063E+02  0.00000000000E+00 0. -1.
        -14    1    6    6    0    0  0.50647685405E+01  0.84543748323E+02 -0.36729426568E+03  0.37693285193E+03  0.00000000000E+00 0.  1.
</event>
<event>
12    1  0.8196217E-002  0.1852224E+03  0.7818608E-02  0.1162844E+00
         21   -1    0    0  501  502  0.00000000000E+00  0.00000000000E+00  0.10880241830E+04  0.10880241830E+04  0.00000000000E+00 0. -1.
         21   -1    0    0  502  503 -0.00000000000E+00 -0.00000000000E+00 -0.45540857033E+02  0.45540857033E+02  0.00000000000E+00 0. -1.
         -6    2    1    2    0  503 -0.29307224940E+01 -0.64459121408E+02  0.83561646847E+03  0.85589848507E+03  0.17361960401E+03 0.  0.
        -24    2    3    3    0    0  0.59021445568E+02 -0.32189999041E+02  0.63164405655E+03  0.64024551799E+03  0.80127286578E+02 0.  0.
          6    2    1    2  501    0  0.29307224940E+01  0.64459121408E+02  0.20686685751E+03  0.27766655498E+03  0.17361236002E+03 0.  0.
         24    2    5    5    0    0  0.75664782573E+01  0.40639827684E+02  0.23138237731E+03  0.24285348709E+03  0.61083258545E+02 0.  0.
          5    1    5    5  501    0 -0.46357557633E+01  0.23819293724E+02 -0.24515519798E+02  0.34813067891E+02  0.47000000000E+01 0. -1.
        -13    1    6    6    0    0 -0.21831355871E+02  0.31798803773E+02  0.16875428359E+03  0.17310626866E+03  0.00000000000E+00 0.  1.
         14    1    6    6    0    0  0.29397834128E+02  0.88410239110E+01  0.62628093725E+02  0.69747218431E+02  0.00000000000E+00 0. -1.
         -5    1    3    3    0  503 -0.61952168062E+02 -0.32269122367E+02  0.20397241193E+03  0.21565296709E+03  0.47000000000E+01 0.  1.
         11    1    4    4    0    0  0.24635871385E+02 -0.48835701746E+02  0.50530623789E+03  0.50825805058E+03  0.00000000000E+00 0. -1.
        -12    1    4    4    0    0  0.34385574182E+02  0.16645702705E+02  0.12633781866E+03  0.13198746741E+03  0.00000000000E+00 0.  1.
</event>
<event>
12    1  0.8196217E-002  0.3077350E+03  0.7818608E-02  0.1081523E+00
         21   -1    0    0  501  502  0.00000000000E+00  0.00000000000E+00  0.37726165565E+03  0.37726165565E+03  0.00000000000E+00 0.  1.
         21   -1    0    0  502  503 -0.00000000000E+00 -0.00000000000E+00 -0.48255969653E+03  0.48255969653E+03  0.00000000000E+00 0. -1.
         -6    2    1    2    0  503  0.18269612995E+03 -0.17737019739E+03 -0.35084695082E+03  0.46668448053E+03  0.17280844494E+03 0.  0.
        -24    2    3    3    0    0  0.20398666783E+02 -0.31160752250E+02 -0.97746322834E+02  0.13231987970E+03  0.81037700168E+02 0.  0.
          6    2    1    2  501    0 -0.18269612995E+03  0.17737019739E+03  0.24554890994E+03  0.39313687165E+03  0.17153503975E+03 0.  0.
         24    2    5    5    0    0 -0.27903973458E+02  0.93734404434E+02  0.13762742060E+03  0.18667938103E+03  0.79643669495E+02 0.  0.
          5    1    5    5  501    0 -0.15479215649E+03  0.83635792960E+02  0.10792148934E+03  0.20645749063E+03  0.47000000000E+01 0. -1.
        -13    1    6    6    0    0 -0.23244002586E+02  0.51777997275E+02  0.13251342525E+03  0.14415634752E+03  0.00000000000E+00 0.  1.
         14    1    6    6    0    0 -0.46599708720E+01  0.41956407158E+02  0.51139953453E+01  0.42523033506E+02  0.00000000000E+00 0. -1.
         -5    1    3    3    0  503  0.16229746317E+03 -0.14620944514E+03 -0.25310062799E+03  0.33436460083E+03  0.47000000000E+01 0.  1.
         13    1    4    4    0    0  0.35958195680E+02 -0.21679269889E+02 -0.10470920284E+03  0.11281400506E+03  0.00000000000E+00 0. -1.
        -14    1    4    4    0    0 -0.15559528898E+02 -0.94814823609E+01  0.69628800047E+01  0.19505874634E+02  0.00000000000E+00 0.  1.
</event>
<event>
12    1  0.8196217E-002  0.2515988E+03  0.7818608E-02  0.1112552E+00
         21   -1    0    0  503  502  0.00000000000E+00  0.00000000000E+00  0.54762904869E+02  0.54762904869E+02  0.00000000000E+00 0. -1.
         21   -1    0    0  501  503 -0.00000000000E+00 -0.00000000000E+00 -0.13761481011E+04  0.13761481011E+04  0.00000000000E+00 0.  1.
          6    2    1    2  501    0  0.64930487786E+02 -0.16989267271E+03 -0.94989188048E+03  0.98223599760E+03  0.17150359152E+03 0.  0.
         24    2    3    3    0    0  0.85134549927E+02 -0.76749148113E+02 -0.71552090724E+03  0.72918311104E+03  0.81237413799E+02 0.  0.
         -6    2    1    2    0  502 -0.64930487786E+02  0.16989267271E+03 -0.37149331572E+03  0.44867500834E+03  0.17384617050E+03 0.  0.
        -24    2    5    5    0    0 -0.33026674959E+02  0.12551382844E+03 -0.36206612893E+03  0.39301266072E+03  0.80762536979E+02 0.  0.
          5    1    3    3  501    0 -0.20204062141E+02 -0.93143524594E+02 -0.23437097323E+03  0.25305288656E+03  0.47000000000E+01 0. -1.
        -11    1    4    4    0    0  0.40205827750E+02  0.11151289024E+02 -0.20373096729E+03  0.20795953180E+03  0.00000000000E+00 0.  1.
         12    1    4    4    0    0  0.44928722177E+02 -0.87900437137E+02 -0.51178993995E+03  0.52122357924E+03  0.00000000000E+00 0. -1.
         -5    1    5    5    0  502 -0.31903812827E+02  0.44378844266E+02 -0.94271867911E+01  0.55662347616E+02  0.47000000000E+01 0.  1.
         13    1    6    6    0    0 -0.20681804442E+02 -0.18048319584E+01 -0.25031852513E+02  0.32520579540E+02  0.00000000000E+00 0. -1.
        -14    1    6    6    0    0 -0.12344870517E+02  0.12731866040E+03 -0.33703427642E+03  0.36049208118E+03  0.00000000000E+00 0.  1.
</event>
<event>
12    1  0.8196217E-002  0.2091847E+03  0.7818608E-02  0.1142627E+00
         21   -1    0    0  503  502  0.00000000000E+00  0.00000000000E+00  0.68613194852E+02  0.68613194852E+02  0.00000000000E+00 0. -1.
         21   -1    0    0  501  503 -0.00000000000E+00 -0.00000000000E+00 -0.26794238358E+04  0.26794238358E+04  0.00000000000E+00 0. -1.
          6    2    1    2  501    0  0.97085813205E+02 -0.62638058382E+02 -0.25051212149E+04  0.25136687048E+04  0.17189786141E+03 0.  0.
         24    2    3    3    0    0  0.30879446546E+02 -0.64596674292E+02 -0.79204859734E+03  0.79930964027E+03  0.80178862131E+02 0.  0.
         -6    2    1    2    0  502 -0.97085813205E+02  0.62638058382E+02 -0.10568942606E+03  0.23436832584E+03  0.17438198271E+03 0.  0.
        -24    2    5    5    0    0 -0.36337503692E+00  0.63301217824E+02 -0.93165751414E+02  0.13672303793E+03  0.77499391251E+02 0.  0.
          5    1    3    3  501    0  0.66206366659E+02  0.19586159107E+01 -0.17130726175E+04  0.17143590645E+04  0.47000000000E+01 0. -1.
        -13    1    4    4    0    0  0.24405473865E+02  0.13657254223E+02 -0.16338486348E+03  0.16576115758E+03  0.00000000000E+00 0.  1.
         14    1    4    4    0    0  0.64739726817E+01 -0.78253928515E+02 -0.62866373386E+03  0.63354848269E+03  0.00000000000E+00 0. -1.
         -5    1    5    5    0  502 -0.96722438168E+02 -0.66315944262E+00 -0.12523674645E+02  0.97645287916E+02  0.47000000000E+01 0.  1.
         11    1    6    6    0    0  0.29793419847E+02  0.13679169448E+02 -0.81707731967E+01  0.33786522129E+02  0.00000000000E+00 0. -1.
        -12    1    6    6    0    0 -0.30156794884E+02  0.49622048376E+02 -0.84994978217E+02  0.10293651580E+03  0.00000000000E+00 0.  1.
</event>
<event>
12    1  0.8196217E-002  0.1946152E+03  0.7818608E-02  0.1154719E+00
         21   -1    0    0  503  502  0.00000000000E+00  0.00000000000E+00  0.47937533171E+02  0.47937533171E+02  0.00000000000E+00 0.  1.
         21   -1    0    0  501  503 -0.00000000000E+00 -0.00000000000E+00 -0.11324183227E+04  0.11324183227E+04  0.00000000000E+00 0.  1.
          6    2    1    2  501    0 -0.28503658916E+02  0.82299012148E+02 -0.86825267686E+03  0.88944404539E+03  0.17222779402E+03 0.  0.
         24    2    3    3    0    0 -0.21916213117E+02  0.11904810530E+03 -0.54694666731E+03  0.56594206385E+03  0.80541858544E+02 0.  0.
         -6    2    1    2    0  502  0.28503658916E+02 -0.82299012148E+02 -0.21622811267E+03  0.29091181048E+03  0.17403878532E+03 0.  0.
        -24    2    5    5    0    0  0.81438834896E+02 -0.53123769583E+02 -0.10308825997E+03  0.16255276754E+03  0.79635382644E+02 0.  0.
          5    1    3    3  501    0 -0.65874457982E+01 -0.36749093150E+02 -0.32130600955E+03  0.32350198154E+03  0.47000000000E+01 0. -1.
        -11    1    4    4    0    0 -0.79234732394E+01 -0.43644519747E+01 -0.58481308040E+01  0.10771745593E+02  0.00000000000E+00 0.  1.
         12    1    4    4    0    0 -0.13992739878E+02  0.12341255727E+03 -0.54109853650E+03  0.55517031825E+03  0.00000000000E+00 0. -1.
         -5    1    5    5    0  502 -0.52935175981E+02 -0.29175242565E+02 -0.11313985270E+03  0.12835904294E+03  0.47000000000E+01 0.  1.
         13    1    6    6    0    0  0.12230854122E+02 -0.50357835229E+02 -0.23080945315E+02  0.56729493195E+02  0.00000000000E+00 0. -1.
        -14    1    6    6    0    0  0.69207980774E+02 -0.27659343539E+01 -0.80007314656E+02  0.10582327435E+03  0.00000000000E+00 0.  1.
</event>
<event>
12    1  0.8196217E-002  0.2017492E+03  0.7818608E-02  0.1148652E+00
         21   -1    0    0  501  502  0.00000000000E+00  0.00000000000E+00  0.54613011932E+02  0.54613011932E+02  0.00000000000E+00 0.  1.
         21   -1    0    0  502  503 -0.00000000000E+00 -0.00000000000E+00 -0.14136059639E+04  0.14136059639E+04  0.00000000000E+00 0. -1.
         -6    2    1    2    0  503 -0.27246334318E+01  0.10343835463E+03 -0.11883806816E+04  0.12053843324E+04  0.17319303598E+03 0.  0.
        -24    2    3    3    0    0 -0.27287111088E+02  0.88935185337E+02 -0.45105703405E+03  0.46749415875E+03  0.80276315785E+02 0.  0.
          6    2    1    2  501    0  0.27246334318E+01 -0.10343835463E+03 -0.17061227040E+03  0.26283464340E+03  0.17107479687E+03 0.  0.
         24    2    5    5    0    0 -0.23918581676E+02  0.10057959186E+02 -0.82935219201E+02  0.11688729170E+03  0.78173699446E+02 0.  0.
          5    1    5    5  501    0  0.26643215108E+02 -0.11349631381E+03 -0.87677051195E+02  0.14594735170E+03  0.47000000000E+01 0. -1.
        -11    1    6    6    0    0  0.20414721284E+01 -0.30069874253E+02 -0.14578504581E+02  0.33479810959E+02  0.00000000000E+00 0.  1.
         12    1    6    6    0    0 -0.25960053804E+02  0.40127833439E+02 -0.68356714620E+02  0.83407480742E+02  0.00000000000E+00 0. -1.
         -5    1    3    3    0  503  0.24562477657E+02  0.14503169291E+02 -0.73732364754E+03  0.73789017370E+03  0.47000000000E+01 0.  1.
         13    1    4    4    0    0 -0.61386183159E+01  0.13429612402E+02 -0.26729030438E+03  0.26769785942E+03  0.00000000000E+00 0. -1.
        -14    1    4    4    0    0 -0.21148492772E+02  0.75505572936E+02 -0.18376672967E+03  0.19979629933E+03  0.00000000000E+00 0.  1.
</event>
<event>
12    1  0.8196217E-002  0.2041477E+03  0.7818608E-02  0.1147104E+00
         21   -1    0    0  501  502  0.00000000000E+00  0.00000000000E+00  0.72379341184E+02  0.72379341184E+02  0.00000000000E+00 0.  1.
         21   -1    0    0  502  503 -0.00000000000E+00 -0.00000000000E+00 -0.10596909191E+04  0.10596909191E+04  0.00000000000E+00 0.  1.
         -6    2    1    2    0  503  0.58550746535E+02 -0.80863585886E+02 -0.87792492753E+03  0.90046344586E+03  0.17353711279E+03 0.  0.
        -24    2    3    3    0    0  0.39111428412E+02 -0.20244770971E+01 -0.21097608952E+03  0.22857332487E+03  0.78746759638E+02 0.  0.
          6    2    1    2  501    0 -0.58550746535E+02  0.80863585886E+02 -0.10938665038E+03  0.23160681441E+03  0.17807068192E+03 0.  0.
         24    2    5    5    0    0 -0.10524018230E+03  0.35018258130E+02 -0.60460760914E+02  0.14976837510E+03  0.80456747361E+02 0.  0.
          5    1    5    5  501    0  0.46689435768E+02  0.45845327756E+02 -0.48925889463E+02  0.81838439312E+02  0.47000000000E+01 0. -1.
        -11    1    6    6    0    0 -0.48333105281E+02  0.20045501630E+02 -0.72791347401E+02  0.89646480456E+02  0.00000000000E+00 0.  1.
         12    1    6    6    0    0 -0.56907077021E+02  0.14972756500E+02  0.12330586487E+02  0.60121894643E+02  0.00000000000E+00 0. -1.
         -5    1    3    3    0  503  0.19439318123E+02 -0.78839108789E+02 -0.66694883801E+03  0.67189012100E+03  0.47000000000E+01 0.  1.
         11    1    4    4    0    0  0.38678170961E+02 -0.17180027215E+02 -0.44512991320E+02  0.61421174201E+02  0.00000000000E+00 0. -1.
        -12    1    4    4    0    0  0.43325745143E+00  0.15155550117E+02 -0.16646309820E+03  0.16715215067E+03  0.00000000000E+00 0.  1.
</event>
<event>
12    1  0.8196217E-002  0.1803367E+03  0.7818608E-02  0.1167787E+00
         21   -1    0    0  501  502  0.00000000000E+00  0.00000000000E+00  0.11873476454E+04  0.11873476454E+04  0.00000000000E+00 0.  1.
         21   -1    0    0  502  503 -0.00000000000E+00 -0.00000000000E+00 -0.67452901167E+02  0.67452901167E+02  0.00000000000E+00 0.  1.
         -6    2    1    2    0  503  0.58211338117E+02 -0.11299880502E+02  0.74455683935E+02  0.19392158543E+03  0.16895468398E+03 0.  0.
        -24    2    3    3    0    0 -0.18521624861E+02 -0.37114643669E+02  0.56147429905E+01  0.87547177064E+02  0.76892363151E+02 0.  0.
          6    2    1    2  501    0 -0.58211338117E+02  0.11299880502E+02  0.10454390603E+04  0.10608789611E+04  0.17030882010E+03 0.  0.
         24    2    5    5    0    0 -0.94153625840E+02  0.53169696005E+02  0.60247818674E+03  0.61446955824E+03  0.53860474082E+02 0.  0.
          5    1    5    5  501    0  0.35942287723E+02 -0.41869815504E+02  0.44296087352E+03  0.44640940286E+03  0.47000000000E+01 0. -1.
        -13    1    6    6    0    0 -0.84034629842E+02  0.52683802267E+02  0.41384121903E+03  0.42556075548E+03  0.00000000000E+00 0.  1.
         14    1    6    6    0    0 -0.10118995998E+02  0.48589373793E+00  0.18863696771E+03  0.18890880276E+03  0.00000000000E+00 0. -1.
         -5    1    3    3    0  503  0.76732962978E+02  0.25814763167E+02  0.68840940945E+02  0.10637440836E+03  0.47000000000E+01 0.  1.
         13    1    4    4    0    0 -0.32537470390E+02 -0.52910113537E+02  0.15814295791E+02  0.64095702237E+02  0.00000000000E+00 0. -1.
        -14    1    4    4    0    0  0.14015845529E+02  0.15795469868E+02 -0.10199552800E+02  0.23451474827E+02  0.00000000000E+00 0.  1.
</event>
<event>
12    1  0.8196217E-002  0.1924986E+03  0.7818608E-02  0.1156642E+00
         21   -1    0    0  503  502  0.00000000000E+00  0.00000000000E+00  0.16695688823E+03  0.16695688823E+03  0.00000000000E+00 0. -1.
         21   -1    0    0  501  503 -0.00000000000E+00 -0.00000000000E+00 -0.22307765372E+03  0.22307765372E+03  0.00000000000E+00 0.  1.
          6    2    1    2  501    0 -0.83008513252E+02 -0.33325735617E+01 -0.51546259862E+02  0.19748157352E+03  0.17158215425E+03 0.  0.
         24    2    3    3    0    0 -0.91033625055E+02 -0.58537551898E+02 -0.29836367888E+02  0.13743657821E+03  0.79276972118E+02 0.  0.
         -6    2    1    2    0  502  0.83008513252E+02  0.33325735617E+01 -0.45745056242E+01  0.19255296843E+03  0.17364964794E+03 0.  0.
        -24    2    5    5    0    0  0.45040785932E+00 -0.45089670561E+02  0.18342103931E+02  0.94024721287E+02  0.80442116941E+02 0.  0.
          5    1    3    3  501    0  0.80251118032E+01  0.55204978336E+02 -0.21709891975E+02  0.60044995313E+02  0.47000000000E+01 0. -1.
        -11    1    4    4    0    0 -0.56097050985E+02  0.92870683711E+01 -0.21078201507E+02  0.60641729419E+02  0.00000000000E+00 0.  1.
         12    1    4    4    0    0 -0.34936574071E+02 -0.67824620269E+02 -0.87581663807E+01  0.76794848791E+02  0.00000000000E+00 0. -1.
         -5    1    5    5    0  502  0.82558105393E+02  0.48422244123E+02 -0.22916609555E+02  0.98528247145E+02  0.47000000000E+01 0.  1.
         11    1    6    6    0    0 -0.27003803772E+02  0.82946623084E+01  0.18906158903E+02  0.33991906175E+02  0.00000000000E+00 0. -1.
        -12    1    6    6    0    0  0.27454211631E+02 -0.53384332870E+02 -0.56405497124E+00  0.60032815112E+02  0.00000000000E+00 0.  1.
</event>
<event>
12    1  0.8196217E-002  0.2226038E+03  0.7818608E-02  0.1134418E+00
         21   -1    0    0  501  502  0.00000000000E+00  0.00000000000E+00  0.57516009667E+02  0.57516009667E+02  0.00000000000E+00 0. -1.
         21   -1    0    0  502  503 -0.00000000000E+00 -0.00000000000E+00 -0.93898249469E+03  0.93898249469E+03  0.00000000000E+00 0. -1.
         -6    2    1    2    0  503 -0.89146669929E+02  0.80861628600E+02 -0.61242319056E+03  0.64730406553E+03  0.17162359154E+03 0.  0.
        -24    2    3    3    0    0 -0.14475079749E+02  0.50700177164E+02 -0.15178244226E+03  0.17965296853E+03  0.80356974952E+02 0.  0.
          6    2    1    2  501    0  0.89146669929E+02 -0.80861628600E+02 -0.26904329446E+03  0.34919443883E+03  0.18726112804E+03 0.  0.
         24    2    5    5    0    0  0.21955052262E+02 -0.83081614740E+02 -0.64547222035E+02  0.13387984234E+03  0.79830378207E+02 0.  0.
          5    1    5    5  501    0  0.67191617667E+02  0.22199861400E+01 -0.20449607243E+03  0.21531459649E+03  0.47000000000E+01 0. -1.
        -11    1    6    6    0    0  0.16780215315E+02 -0.95529168525E+02 -0.69710633232E+02  0.11944442243E+03  0.00000000000E+00 0.  1.
         12    1    6    6    0    0  0.51748369476E+01  0.12447553785E+02  0.51634111965E+01  0.14435419905E+02  0.00000000000E+00 0. -1.
         -5    1    3    3    0  503 -0.74671590180E+02  0.30161451436E+02 -0.46064074830E+03  0.46765109701E+03  0.47000000000E+01 0.  1.
         13    1    4    4    0    0 -0.29322512870E+02 -0.11674935730E+02 -0.58300048769E+02  0.66294868367E+02  0.00000000000E+00 0. -1.
        -14    1    4    4    0    0  0.14847433121E+02  0.62375112894E+02 -0.93482393492E+02  0.11335810016E+03  0.00000000000E+00 0.  1.
</event>
<event>
12    1  0.8196217E-002  0.2435644E+03  0.7818608E-02  0.1117572E+00
         21   -1    0    0  503  502  0.00000000000E+00  0.00000000000E+00  0.15777498213E+04  0.15777498213E+04  0.00000000000E+00 0. -1.
         21   -1    0    0  501  503 -0.00000000000E+00 -0.00000000000E+00 -0.99057734116E+02  0.99057734116E+02  0.00000000000E+00 0.  1.
          6    2    1    2  501    0  0.13890124687E+03 -0.10048943090E+03  0.78759374491E+02  0.25598172242E+03  0.17300844211E+03 0.  0.
         24    2    3    3    0    0  0.97536401485E+02 -0.13180769785E+03  0.90283229062E+02  0.20262655863E+03  0.77587640682E+02 0.  0.
         -6    2    1    2    0  502 -0.13890124687E+03  0.10048943090E+03  0.13999327127E+04  0.14208258330E+04  0.17188009055E+03 0.  0.
        -24    2    5    5    0    0 -0.15695798769E+03  0.54461776817E+02  0.91430355344E+03  0.93266360469E+03  0.79426170984E+02 0.  0.
          5    1    3    3  501    0  0.41364845389E+02  0.31318266952E+02 -0.11523854572E+02  0.53355163790E+02  0.47000000000E+01 0. -1.
        -13    1    4    4    0    0  0.82100395905E+02 -0.10984167682E+03  0.35555146954E+02  0.14166805374E+03  0.00000000000E+00 0.  1.
         14    1    4    4    0    0  0.15436005580E+02 -0.21966021030E+02  0.54728082108E+02  0.60958504898E+02  0.00000000000E+00 0. -1.
         -5    1    5    5    0  502  0.18056740818E+02  0.46027654080E+02  0.48562915930E+03  0.48816222835E+03  0.47000000000E+01 0.  1.
         11    1    6    6    0    0 -0.12006473305E+03  0.63894751663E+01  0.68588342950E+03  0.69634218914E+03  0.00000000000E+00 0. -1.
        -12    1    6    6    0    0 -0.36893254644E+02  0.48072301651E+02  0.22842012395E+03  0.23632141555E+03  0.00000000000E+00 0.  1.
</event>
<event>
12    1  0.8196217E-002  0.1809534E+03  0.7818608E-02  0.1167196E+00
         21   -1    0    0  503  502  0.00000000000E+00  0.00000000000E+00  0.11486495998E+03  0.11486495998E+03  0.00000000000E+00 0.  1.
         21   -1    0    0  501  503 -0.00000000000E+00 -0.00000000000E+00 -0.41708183205E+03  0.41708183205E+03  0.00000000000E+00 0.  1.
          6    2    1    2  501    0 -0.20323776402E+02 -0.43053434229E+02 -0.30152742591E+03  0.35099212290E+03  0.17323402574E+03 0.  0.
         24    2    3    3    0    0 -0.17467904829E+02 -0.77211466088E+02 -0.29577016550E+03  0.31591844060E+03  0.77831433985E+02 0.  0.
         -6    2    1    2    0  502  0.20323776402E+02  0.43053434229E+02 -0.68944615083E+00  0.18095466913E+03  0.17457795639E+03 0.  0.
        -24    2    5    5    0    0 -0.13974994478E+02 -0.39515188759E+02 -0.34266412460E+01  0.91380312176E+02  0.81128718526E+02 0.  0.
          5    1    3    3  501    0 -0.28558715734E+01  0.34158031859E+02 -0.57572604148E+01  0.35073682304E+02  0.47000000000E+01 0. -1.
        -13    1    4    4    0    0  0.76044473377E+01  0.51584902881E+01 -0.11838445497E+03  0.11874054412E+03  0.00000000000E+00 0.  1.
         14    1    4    4    0    0 -0.25072352167E+02 -0.82369956376E+02 -0.17738571053E+03  0.19717789647E+03  0.00000000000E+00 0. -1.
         -5    1    5    5    0  502  0.34298770880E+02  0.82568622989E+02  0.27371950952E+01  0.89574356951E+02  0.47000000000E+01 0.  1.
         13    1    6    6    0    0  0.27705656726E+02  0.72737429376E+01 -0.45249710498E+00  0.28648132654E+02  0.00000000000E+00 0. -1.
        -14    1    6    6    0    0 -0.41680651204E+02 -0.46788931697E+02 -0.29741441410E+01  0.62732179521E+02  0.00000000000E+00 0.  1.
</event>
<event>
12    1  0.8196217E-002  0.2117554E+03  0.7818608E-02  0.1141237E+00
         21   -1    0    0  503  502  0.00000000000E+00  0.00000000000E+00  0.43622872032E+03  0.43622872032E+03  0.00000000000E+00 0. -1.
         21   -1    0    0  501  503 -0.00000000000E+00 -0.00000000000E+00 -0.10402437975E+03  0.10402437975E+03  0.00000000000E+00 0.  1.
          6    2    1    2  501    0 -0.78772979333E+02 -0.89930968913E+02  0.11249936942E+03  0.23511279964E+03  0.16831268220E+03 0.  0.
         24    2    3    3    0    0 -0.83666825113E+02 -0.30288010834E+01  0.85499798668E+02  0.14386038421E+03  0.79851633123E+02 0.  0.
         -6    2    1    2    0  502  0.78772979333E+02  0.89930968913E+02  0.21970497114E+03  0.30514030043E+03  0.17477862330E+03 0.  0.
        -24    2    5    5    0    0  0.10735645808E+03  0.40251146214E+02  0.10257711453E+03  0.17465610662E+03  0.82686923351E+02 0.  0.
          5    1    3    3  501    0  0.48938457799E+01 -0.86902167829E+02  0.26999570756E+02  0.91252415426E+02  0.47000000000E+01 0. -1.
        -13    1    4    4    0    0 -0.86704924679E+01 -0.88154483641E+01 -0.14289813979E+02  0.18896781553E+02  0.00000000000E+00 0.  1.
         14    1    4    4    0    0 -0.74996332645E+02  0.57866472806E+01  0.99789612647E+02  0.12496360266E+03  0.00000000000E+00 0. -1.
         -5    1    5    5    0  502 -0.28583478743E+02  0.49679822699E+02  0.11712785661E+03  0.13048419381E+03  0.47000000000E+01 0.  1.
         11    1    6    6    0    0 -0.10422148638E+02 -0.88000605062E+01  0.12245906978E+02  0.18330970647E+02  0.00000000000E+00 0. -1.
        -12    1    6    6    0    0  0.11777860671E+03  0.49051206720E+02  0.90331207548E+02  0.15632513597E+03  0.00000000000E+00 0.  1.
</event>
<event>
12    1  0.8196217E-002  0.2144423E+03  0.7818608E-02  0.1138435E+00
         21   -1    0    0  503  502  0.00000000000E+00  0.00000000000E+00  0.98852431881E+02  0.98852431881E+02  0.00000000000E+00 0. -1.
         21   -1    0    0  501  503 -0.00000000000E+00 -0.00000000000E+00 -0.52384913831E+03  0.52384913831E+03  0.00000000000E+00 0.  1.
          6    2    1    2  501    0  0.80208797531E+02  0.96521738407E+02 -0.32076853041E+03  0.38584705594E+03  0.17388387874E+03 0.  0.
         24    2    3    3    0    0  0.71154396702E+02  0.37315458393E+02 -0.30198417246E+03  0.32290019048E+03  0.81330812063E+02 0.  0.
         -6    2    1    2    0  502 -0.80208797531E+02 -0.96521738407E+02 -0.10422817602E+03  0.23685451425E+03  0.17171677571E+03 0.  0.
        -24    2    5    5    0    0 -0.50199195718E+02  0.81448308635E+01 -0.65112736022E+02  0.12106256907E+03  0.88488302708E+02 0.  0.
          5    1    3    3  501    0  0.90544008295E+01  0.59206280013E+02 -0.18784357953E+02  0.62946865459E+02  0.47000000000E+01 0. -1.
        -11    1    4    4    0    0  0.51062194647E+02  0.55220539929E+02 -0.14219439566E+03  0.16085988285E+03  0.00000000000E+00 0.  1.
         12    1    4    4    0    0  0.20092202055E+02 -0.17905081536E+02 -0.15978977680E+03  0.16204030764E+03  0.00000000000E+00 0. -1.
         -5    1    5    5    0  502 -0.30009601813E+02 -0.10466656927E+03 -0.39115439993E+02  0.11579194518E+03  0.47000000000E+01 0.  1.
         13    1    6    6    0    0 -0.38781485082E+02  0.29075377173E+01  0.13716820663E+02  0.41238435104E+02  0.00000000000E+00 0. -1.
        -14    1    6    6    0    0 -0.11417710636E+02  0.52372931461E+01 -0.78829556685E+02  0.79824133963E+02  0.00000000000E+00 0.  1.
</event>
<event>
12    1  0.8196217E-002  0.1949325E+03  0.7818608E-02  0.1154268E+00
         21   -1    0    0  501  502  0.00000000000E+00  0.00000000000E+00  0.13584070623E+03  0.13584070623E+03  0.00000000000E+00 0.  1.
         21   -1    0    0  502  503 -0.00000000000E+00 -0.00000000000E+00 -0.28250427778E+03  0.28250427778E+03  0.00000000000E+00 0.  1.
         -6    2    1    2    0  503  0.68366713278E+02 -0.60949883941E+02 -0.98274839171E+02  0.21830400348E+03  0.17207497808E+03 0.  0.
        -24    2    3    3    0    0 -0.59237530729E+01 -0.23980943257E+02  0.73761788468E+01  0.83879290070E+02  0.79819488837E+02 0.  0.
          6    2    1    2  501    0 -0.68366713278E+02  0.60949883941E+02 -0.48388732377E+02  0.20004098054E+03  0.17113161204E+03 0.  0.
         24    2    5    5    0    0  0.11542935483E+02  0.67676276603E+02  0.22942125615E+01  0.10505862833E+03  0.79490466107E+02 0.  0.
          5    1    5    5  501    0 -0.79909648760E+02 -0.67263926614E+01 -0.50682944939E+02  0.94982352208E+02  0.47000000000E+01 0. -1.
        -13    1    6    6    0    0 -0.32452123778E+02  0.14433877555E+02  0.53789738747E+01  0.35922284433E+02  0.00000000000E+00 0.  1.
         14    1    6    6    0    0  0.43995059261E+02  0.53242399048E+02 -0.30847613133E+01  0.69136343901E+02  0.00000000000E+00 0. -1.
         -5    1    3    3    0  503  0.74290466350E+02 -0.36968940685E+02 -0.10565101802E+03  0.13442471341E+03  0.47000000000E+01 0.  1.
         13    1    4    4    0    0 -0.18503998634E+02  0.22149314530E+02  0.19149103044E+02  0.34636371736E+02  0.00000000000E+00 0. -1.
        -14    1    4    4    0    0  0.12580245561E+02 -0.46130257787E+02 -0.11772924197E+02  0.49242918334E+02  0.00000000000E+00 0.  1.
</event>
<event>
12    1  0.8196217E-002  0.3679324E+03  0.7818608E-02  0.1055487E+00
         21   -1    0    0  503  502  0.00000000000E+00  0.00000000000E+00  0.24049372615E+03  0.24049372615E+03  0.00000000000E+00 0.  1.
         21   -1    0    0  501  503 -0.00000000000E+00 -0.00000000000E+00 -0.85176865618E+03  0.85176865618E+03  0.00000000000E+00 0. -1.
          6    2    1    2  501    0 -0.17958823470E+03  0.27139326690E+03 -0.62369301044E+03  0.72413205863E+03  0.17166254018E+03 0.  0.
         24    2    3    3    0    0 -0.31699248886E+02  0.16700277807E+03 -0.31225845067E+03  0.36387922893E+03  0.77511179664E+02 0.  0.
         -6    2    1    2    0  502  0.17958823470E+03 -0.27139326690E+03  0.12418080400E+02  0.36813032370E+03  0.17163766238E+03 0.  0.
        -24    2    5    5    0    0  0.38165622345E+02 -0.12856231341E+03  0.53181055925E+02  0.16298465172E+03  0.75834614979E+02 0.  0.
          5    1    3    3  501    0 -0.14788898581E+03  0.10439048883E+03 -0.31143455977E+03  0.36025282969E+03  0.47000000000E+01 0. -1.
        -13    1    4    4    0    0 -0.20791441703E+02  0.18371043808E+02 -0.15450702718E+02  0.31756944330E+02  0.00000000000E+00 0.  1.
         14    1    4    4    0    0 -0.10907807183E+02  0.14863173426E+03 -0.29680774795E+03  0.33212228460E+03  0.00000000000E+00 0. -1.
         -5    1    5    5    0  502  0.14142261235E+03 -0.14283095349E+03 -0.40762975525E+02  0.20514567198E+03  0.47000000000E+01 0.  1.
         11    1    6    6    0    0 -0.12570803798E+02  0.18556192869E+01  0.11053147740E+02  0.16841630147E+02  0.00000000000E+00 0. -1.
        -12    1    6    6    0    0  0.50736426143E+02 -0.13041793270E+03  0.42127908185E+02  0.14614302157E+03  0.00000000000E+00 0.  1.
</event>
<event>
12    1  0.8196217E-002  0.1895881E+03  0.7818608E-02  0.1160014E+00
         21   -1    0    0  503  502  0.00000000000E+00  0.00000000000E+00  0.16177630351E+03  0.16177630351E+03  0.00000000000E+00 0.  1.
         21   -1    0    0  501  503 -0.00000000000E+00 -0.00000000000E+00 -0.10827027648E+04  0.10827027648E+04  0.00000000000E+00 0.  1.
          6    2    1    2  501    0 -0.65556637770E+02 -0.16753837572E+02 -0.10183779023E+04  0.10358750817E+04  0.17710242615E+03 0.  0.
         24    2    3    3    0    0  0.35501323040E+02 -0.97775705047E+01 -0.52236264834E+03  0.52959985831E+03  0.79103278822E+02 0.  0.
         -6    2    1    2    0  502  0.65556637770E+02  0.16753837572E+02  0.97451440986E+02  0.20860398655E+03  0.17158227189E+03 0.  0.
        -24    2    5    5    0    0  0.68896396316E+02 -0.51380580739E+02  0.62850415739E+02  0.13196996086E+03  0.77969342108E+02 0.  0.
          5    1    3    3  501    0 -0.10105796081E+03 -0.69762670677E+01 -0.49601525392E+03  0.50627522344E+03  0.47000000000E+01 0. -1.
        -11    1    4    4    0    0 -0.10779239752E+02  0.26393849219E+02 -0.17336507422E+03  0.17569370007E+03  0.00000000000E+00 0.  1.
         12    1    4    4    0    0  0.46280562792E+02 -0.36171419724E+02 -0.34899757412E+03  0.35390615824E+03  0.00000000000E+00 0. -1.
         -5    1    5    5    0  502 -0.33397585461E+01  0.68134418311E+02  0.34601025246E+02  0.76634025693E+02  0.47000000000E+01 0.  1.
         13    1    6    6    0    0  0.24141319597E+02 -0.53765970253E+02  0.55130275735E+01  0.59194394516E+02  0.00000000000E+00 0. -1.
        -14    1    6    6    0    0  0.44755076718E+02  0.23853895136E+01  0.57337388166E+02  0.72775566345E+02  0.00000000000E+00 0.  1.
</event>
<event>
12    1  0.8196217E-002  0.2390102E+03  0.7818608E-02  0.1120659E+00
         21   -1    0    0  503  502  0.00000000000E+00  0.00000000000E+00  0.38919679409E+03  0.38919679409E+03  0.00000000000E+00 0. -1.
         21   -1    0    0  501  503 -0.00000000000E+00 -0.00000000000E+00 -0.16278625412E+03  0.16278625412E+03  0.00000000000E+00 0. -1.
          6    2    1    2  501    0  0.87874142476E+02 -0.14095918289E+03  0.24916281727E+02  0.24030547274E+03  0.17185616945E+03 0.  0.
         24    2    3    3    0    0  0.90582324920E+01 -0.63092037045E+01  0.25243168796E+02  0.84213315935E+02  0.79578938059E+02 0.  0.
         -6    2    1    2    0  502 -0.87874142476E+02  0.14095918289E+03  0.20149425825E+03  0.31167757547E+03  0.17015175223E+03 0.  0.
        -24    2    5    5    0    0 -0.65991479153E+02  0.16520490330E+03  0.19902830413E+03  0.27858865222E+03  0.79698405908E+02 0.  0.
          5    1    3    3  501    0  0.78815909984E+02 -0.13464997919E+03 -0.32688706946E+00  0.15609215681E+03  0.47000000000E+01 0. -1.
        -13    1    4    4    0    0  0.42872577703E+02  0.79246058368E+01  0.12167553648E+02  0.45264850142E+02  0.00000000000E+00 0.  1.
         14    1    4    4    0    0 -0.33814345211E+02 -0.14233809541E+02  0.13075615148E+02  0.38948465793E+02  0.00000000000E+00 0. -1.
         -5    1    5    5    0  502 -0.21882663323E+02 -0.24245720407E+02  0.24659541130E+01  0.33088923250E+02  0.47000000000E+01 0.  1.
         13    1    6    6    0    0 -0.84082594380E+02  0.13024510831E+03  0.15003406888E+03  0.21574033638E+03  0.00000000000E+00 0. -1.
        -14    1    6    6    0    0  0.18091115227E+02  0.34959794988E+02  0.48994235252E+02  0.62848315838E+02  0.00000000000E+00 0.  1.
</event>
<event>
12    1  0.8196217E-002  0.1967199E+03  0.7818608E-02  0.1152628E+00
         21   -1    0    0  501  502  0.00000000000E+00  0.00000000000E+00  0.34214720645E+03  0.34214720645E+03  0.00000000000E+00 0.  1.
         21   -1    0    0  502  503 -0.00000000000E+00 -0.00000000000E+00 -0.15324881550E+03  0.15324881550E+03  0.00000000000E+00 0.  1.
         -6    2    1    2    0  503 -0.96733515243E+02  0.11660434237E+01 -0.32783618329E+02  0.19901512194E+03  0.17080257756E+03 0.  0.
        -24    2    3    3    0    0 -0.96710144086E+02 -0.47055279704E+02 -0.58531132950E+02  0.14414872913E+03  0.76065177768E+02 0.  0.
          6    2    1    2  501    0  0.96733515243E+02 -0.11660434237E+01  0.22168200928E+03  0.29638090001E+03  0.17128920580E+03 0.  0.
         24    2    5    5    0    0  0.48554864566E+01 -0.55353726384E+01  0.31945477313E+02  0.85471666516E+02  0.78934632179E+02 0.  0.
          5    1    5    5  501    0  0.91878028786E+02  0.43693292147E+01  0.18973653196E+03  0.21090923349E+03  0.47000000000E+01 0. -1.
        -11    1    6    6    0    0 -0.26493193824E+01 -0.33615246073E+01  0.58057853588E+02  0.58215402637E+02  0.00000000000E+00 0.  1.
         12    1    6    6    0    0  0.75048058390E+01 -0.21738480311E+01 -0.26112376275E+02  0.27256263879E+02  0.00000000000E+00 0. -1.
         -5    1    3    3    0  503 -0.23371156450E-01  0.48221323128E+02  0.25747514620E+02  0.54866392806E+02  0.47000000000E+01 0.  1.
         11    1    4    4    0    0 -0.35757085680E+02 -0.38680397081E+02  0.82814985475E+01  0.53322842318E+02  0.00000000000E+00 0. -1.
        -12    1    4    4    0    0 -0.60953058406E+02 -0.83748826227E+01 -0.66812631497E+02  0.90825886814E+02  0.00000000000E+00 0.  1.
</event>
<event>
12    1  0.8196217E-002  0.2208346E+03  0.7818608E-02  0.1133336E+00
         21   -1    0    0  501  502  0.00000000000E+00  0.00000000000E+00  0.20549209055E+03  0.20549209055E+03  0.00000000000E+00 0.  1.
         21   -1    0    0  502  503 -0.00000000000E+00 -0.00000000000E+00 -0.34934626131E+03  0.34934626131E+03  0.00000000000E+00 0.  1.
         -6    2    1    2    0  503 -0.54322545720E+02 -0.12434235797E+03 -0.22936558958E+03  0.31839675800E+03  0.17422962109E+03 0.  0.
        -24    2    3    3    0    0 -0.47040649239E+02 -0.15741564021E+03 -0.21143331804E+03  0.27978944811E+03  0.81151591707E+02 0.  0.
          6    2    1    2  501    0  0.54322545720E+02  0.12434235797E+03  0.85511418822E+02  0.23644159386E+03  0.17372525319E+03 0.  0.
         24    2    5    5    0    0 -0.17103257274E+02  0.73928332099E+02  0.16315892462E+02  0.12484710382E+03  0.97788911896E+02 0.  0.
          5    1    5    5  501    0  0.71425802993E+02  0.50414025875E+02  0.69195526360E+02  0.11159449004E+03  0.47000000000E+01 0. -1.
        -13    1    6    6    0    0  0.23603691890E+02  0.56384223249E+02  0.41484580067E+02  0.73873441003E+02  0.00000000000E+00 0.  1.
         14    1    6    6    0    0 -0.40706949164E+02  0.17544108850E+02 -0.25168687605E+02  0.50973662820E+02  0.00000000000E+00 0. -1.
         -5    1    3    3    0  503 -0.72818964811E+01  0.33073282236E+02 -0.17932271543E+02  0.38607309890E+02  0.47000000000E+01 0.  1.
         13    1    4    4    0    0  0.82444476046E+01 -0.11023149999E+03 -0.12547742979E+03  0.16722302441E+03  0.00000000000E+00 0. -1.
        -14    1    4    4    0    0 -0.55285096843E+02 -0.47184140223E+02 -0.85955888245E+02  0.11256642370E+03  0.00000000000E+00 0.  1.
</event>
<event>
12    1  0.8196217E-002  0.1906101E+03  0.7818608E-02  0.1157958E+00
         21   -1    0    0  503  502  0.00000000000E+00  0.00000000000E+00  0.19328252861E+03  0.19328252861E+03  0.00000000000E+00 0. -1.
         21   -1    0    0  501  503 -0.00000000000E+00 -0.00000000000E+00 -0.21028866464E+03  0.21028866464E+03  0.00000000000E+00 0. -1.
          6    2    1    2  501    0  0.46364811284E+02 -0.69348174415E+02 -0.74524204038E+02  0.20447191983E+03  0.17116087167E+03 0.  0.
         24    2    3    3    0    0  0.84146314144E+02 -0.70195262954E+02 -0.18535370790E+02  0.13675929940E+03  0.79696730652E+02 0.  0.
         -6    2    1    2    0  502 -0.46364811284E+02  0.69348174415E+02  0.57518068001E+02  0.19909927342E+03  0.17138648578E+03 0.  0.
        -24    2    5    5    0    0 -0.60416868757E+02  0.81733594496E+02 -0.95372264727E+01  0.12931846326E+03  0.79383422390E+02 0.  0.
          5    1    3    3  501    0 -0.37781502860E+02  0.84708853846E+00 -0.55988833248E+02  0.67712620433E+02  0.47000000000E+01 0. -1.
        -13    1    4    4    0    0  0.43301429711E+02  0.51795660543E+01  0.12851250222E+02  0.45464231565E+02  0.00000000000E+00 0.  1.
         14    1    4    4    0    0  0.40844884434E+02 -0.75374829008E+02 -0.31386621011E+02  0.91295067835E+02  0.00000000000E+00 0. -1.
         -5    1    5    5    0  502  0.14052057473E+02 -0.12385420081E+02  0.67055294473E+02  0.69780810161E+02  0.47000000000E+01 0.  1.
         11    1    6    6    0    0 -0.21318075725E+02  0.86258658495E+02 -0.13029152217E+02  0.89804094146E+02  0.00000000000E+00 0. -1.
        -12    1    6    6    0    0 -0.39098793032E+02 -0.45250639985E+01  0.34919257441E+01  0.39514369110E+02  0.00000000000E+00 0.  1.
</event>
<event>
12    1  0.8196217E-002  0.2293527E+03  0.7818608E-02  0.1127194E+00
         21   -1    0    0  501  502  0.00000000000E+00  0.00000000000E+00  0.42503699227E+03  0.42503699227E+03  0.00000000000E+00 0.  1.
         21   -1    0    0  502  503 -0.00000000000E+00 -0.00000000000E+00 -0.29256761532E+03  0.29256761532E+03  0.00000000000E+00 0. -1.
         -6    2    1    2    0  503 -0.14210052487E+03  0.52281070331E+02 -0.20658504147E+03  0.30826299329E+03  0.17153082577E+03 0.  0.
        -24    2    3    3    0    0 -0.11619958762E+03  0.42695668774E+02 -0.60021096747E+02  0.15904564052E+03  0.79797991336E+02 0.  0.
          6    2    1    2  501    0  0.14210052487E+03 -0.52281070331E+02  0.33905441841E+03  0.40934161430E+03  0.17226952450E+03 0.  0.
         24    2    5    5    0    0  0.62483181895E+02  0.23761929355E+02  0.23980442904E+03  0.26103750278E+03  0.78521566239E+02 0.  0.
          5    1    5    5  501    0  0.79617342976E+02 -0.76042999686E+02  0.99249989375E+02  0.14830411152E+03  0.47000000000E+01 0. -1.
        -11    1    6    6    0    0 -0.18914799178E+02  0.48962449601E+01  0.43046302130E+02  0.47272898893E+02  0.00000000000E+00 0.  1.
         12    1    6    6    0    0  0.81397981072E+02  0.18865684395E+02  0.19675812691E+03  0.21376460389E+03  0.00000000000E+00 0. -1.
         -5    1    3    3    0  503 -0.25900937255E+02  0.95854015572E+01 -0.14656394472E+03  0.14921735277E+03  0.47000000000E+01 0.  1.
         11    1    4    4    0    0 -0.85037554370E+02  0.49013254891E+02 -0.75358263753E+02  0.12374389974E+03  0.00000000000E+00 0. -1.
        -12    1    4    4    0    0 -0.31162033246E+02 -0.63175861174E+01  0.15337167006E+02  0.35301740780E+02  0.00000000000E+00 0.  1.
</event>
<event>
12    1  0.8196217E-002  0.3326853E+03  0.7818608E-02  0.1070058E+00
         21   -1    0    0  503  502  0.00000000000E+00  0.00000000000E+00  0.62368242663E+03  0.62368242663E+03  0.00000000000E+00 0.  1.
         21   -1    0    0  501  503 -0.00000000000E+00 -0.00000000000E+00 -0.19171095769E+03  0.19171095769E+03  0.00000000000E+00 0.  1.
          6    2    1    2  501    0  0.20964368958E+03  0.19068068652E+03  0.10261188331E+03  0.34725108464E+03  0.17246598619E+03 0.  0.
         24    2    3    3    0    0  0.89422899568E+02  0.11130598502E+03  0.11825296527E+03  0.20226793032E+03  0.80889273549E+02 0.  0.
         -6    2    1    2    0  502 -0.20964368958E+03 -0.19068068652E+03  0.32935958563E+03  0.46814229969E+03  0.17426954788E+03 0.  0.
        -24    2    5    5    0    0 -0.23274749542E+03 -0.17073197015E+03  0.31095112396E+03  0.43218818184E+03  0.82311729231E+02 0.  0.
          5    1    3    3  501    0  0.12022079001E+03  0.79374701508E+02 -0.15641081953E+02  0.14498315431E+03  0.47000000000E+01 0. -1.
        -13    1    4    4    0    0  0.12270786625E+02 -0.55940510039E+01 -0.62532183411E+01  0.14865004226E+02  0.00000000000E+00 0.  1.
         14    1    4    4    0    0  0.77152112943E+02  0.11690003602E+03  0.12450618361E+03  0.18740292610E+03  0.00000000000E+00 0. -1.
         -5    1    5    5    0  502  0.23103805846E+02 -0.19948716372E+02  0.18408461665E+02  0.35954117850E+02  0.47000000000E+01 0.  1.
         11    1    6    6    0    0 -0.77029911619E+02 -0.23064650375E+02  0.51506703317E+02  0.95490972702E+02  0.00000000000E+00 0. -1.
        -12    1    6    6    0    0 -0.15571758381E+03 -0.14766731978E+03  0.25944442065E+03  0.33669720914E+03  0.00000000000E+00 0.  1.
</event>
<event>
12    1  0.8196217E-002  0.2404595E+03  0.7818608E-02  0.1120272E+00
         21   -1    0    0  501  502  0.00000000000E+00  0.00000000000E+00  0.23334070330E+03  0.23334070330E+03  0.00000000000E+00 0.  1.
         21   -1    0    0  502  503 -0.00000000000E+00 -0.00000000000E+00 -0.25790493874E+03  0.25790493874E+03  0.00000000000E+00 0. -1.
         -6    2    1    2    0  503 -0.92651473680E+02  0.13951186507E+03 -0.71438554771E+02  0.25084704394E+03  0.17254830127E+03 0.  0.
        -24    2    3    3    0    0 -0.10304978333E+02  0.29675994158E+01 -0.26960277566E+02  0.85240012311E+02  0.80149884015E+02 0.  0.
          6    2    1    2  501    0  0.92651473680E+02 -0.13951186507E+03  0.46874319337E+02  0.24039859810E+03  0.16597116643E+03 0.  0.
         24    2    5    5    0    0  0.33878940909E+02 -0.15264665153E+03  0.43233503288E+02  0.17988348623E+03  0.77718401638E+02 0.  0.
          5    1    5    5  501    0  0.58772532771E+02  0.13134786451E+02  0.36408160493E+01  0.60515111873E+02  0.47000000000E+01 0. -1.
        -11    1    6    6    0    0 -0.11760220584E+02 -0.10497003488E+03  0.10313604776E+02  0.10612907922E+03  0.00000000000E+00 0.  1.
         12    1    6    6    0    0  0.45639161493E+02 -0.47676616642E+02  0.32919898512E+02  0.73754407015E+02  0.00000000000E+00 0. -1.
         -5    1    3    3    0  503 -0.82346495348E+02  0.13654426566E+03 -0.44478277204E+02  0.16560703162E+03  0.47000000000E+01 0.  1.
         11    1    4    4    0    0 -0.44808834629E+02 -0.27349752330E+01 -0.84820755540E+01  0.45686511751E+02  0.00000000000E+00 0. -1.
        -12    1    4    4    0    0  0.34503856296E+02  0.57025746488E+01 -0.18478202013E+02  0.39553500560E+02  0.00000000000E+00 0.  1.
</event>
<event>
12    1  0.8196217E-002  0.1874923E+03  0.7818608E-02  0.1160899E+00
         21   -1    0    0  501  502  0.00000000000E+00  0.00000000000E+00  0.10412104642E+03  0.10412104642E+03  0.00000000000E+00 0. -1.
         21   -1    0    0  502  503 -0.00000000000E+00 -0.00000000000E+00 -0.13374850508E+04  0.13374850508E+04  0.00000000000E+00 0. -1.
         -6    2    1    2    0  503 -0.72353907221E+02 -0.17267946435E+02 -0.12400031059E+04  0.12539962841E+04  0.17136425532E+03 0.  0.
        -24    2    3    3    0    0  0.25827816214E+02  0.73409484610E+01 -0.67286533331E+03  0.67787772718E+03  0.77778471383E+02 0.  0.
          6    2    1    2  501    0  0.72353907221E+02  0.17267946435E+02  0.66391015255E+01  0.18760981313E+03  0.17210489374E+03 0.  0.
         24    2    5    5    0    0  0.46673383359E+02 -0.48528396583E+02 -0.66635714548E+01  0.11558412904E+03  0.93711673293E+02 0.  0.
          5    1    5    5  501    0  0.25680523862E+02  0.65796343018E+02  0.13302672980E+02  0.72025684091E+02  0.47000000000E+01 0. -1.
        -11    1    6    6    0    0  0.56623335197E+01 -0.75028434174E+01 -0.45052923282E+02  0.46023043973E+02  0.00000000000E+00 0.  1.
         12    1    6    6    0    0  0.41011049839E+02 -0.41025553166E+02  0.38389351828E+02  0.69561085063E+02  0.00000000000E+00 0. -1.
         -5    1    3    3    0  503 -0.98181723434E+02 -0.24608894896E+02 -0.56713777257E+03  0.57611855690E+03  0.47000000000E+01 0.  1.
         13    1    4    4    0    0  0.21778413058E+02  0.41975796826E+02 -0.40543342916E+03  0.40818198426E+03  0.00000000000E+00 0. -1.
        -14    1    4    4    0    0  0.40494031556E+01 -0.34634848365E+02 -0.26743190416E+03  0.26969574292E+03  0.00000000000E+00 0.  1.
</event>
<event>
12    1  0.8196217E-002  0.2174095E+03  0.7818608E-02  0.1137758E+00
         21   -1    0    0  501  502  0.00000000000E+00  0.00000000000E+00  0.25434131836E+04  0.25434131836E+04  0.00000000000E+00 0.  1.
         21   -1    0    0  502  503 -0.00000000000E+00 -0.00000000000E+00 -0.21809780863E+02  0.21809780863E+02  0.00000000000E+00 0. -1.
         -6    2    1    2    0  503  0.12018451870E+03  0.92390297095E+01  0.73115079057E+03  0.76278986281E+03  0.18093429204E+03 0.  0.
        -24    2    3    3    0    0  0.67228998035E+01  0.28393851737E+02  0.16649619267E+03  0.18651097971E+03  0.78828644413E+02 0.  0.
          6    2    1    2  501    0 -0.12018451870E+03 -0.92390297095E+01  0.17904526121E+04  0.18024331016E+04  0.16886341029E+03 0.  0.
         24    2    5    5    0    0 -0.10636847273E+03 -0.47293750275E+02  0.90237838467E+03  0.91342412058E+03  0.80659309090E+02 0.  0.
          5    1    5    5  501    0 -0.13816045972E+02  0.38054720565E+02  0.88807422748E+03  0.88900898105E+03  0.47000000000E+01 0. -1.
        -13    1    6    6    0    0 -0.57726022209E+02 -0.22359071653E+02  0.72922561855E+03  0.73184849831E+03  0.00000000000E+00 0.  1.
         14    1    6    6    0    0 -0.48642450525E+02 -0.24934678622E+02  0.17315276612E+03  0.18157562228E+03  0.00000000000E+00 0. -1.
         -5    1    3    3    0  503  0.11346161890E+03 -0.19154822027E+02  0.56465459791E+03  0.57627888310E+03  0.47000000000E+01 0.  1.
         13    1    4    4    0    0  0.27861045580E+01  0.18043871793E+02 -0.13428716733E+01  0.18307020299E+02  0.00000000000E+00 0. -1.
        -14    1    4    4    0    0  0.39367952454E+01  0.10349979944E+02  0.16783906434E+03  0.16820395941E+03  0.00000000000E+00 0.  1.
</event>
<event>
12    1  0.8196217E-002  0.1816899E+03  0.7818608E-02  0.1166535E+00
         21   -1    0    0  501  502  0.00000000000E+00  0.00000000000E+00  0.13688234480E+04  0.13688234480E+04  0.00000000000E+00 0. -1.
         21   -1    0    0  502  503 -0.00000000000E+00 -0.00000000000E+00 -0.47332641791E+02  0.47332641791E+02  0.00000000000E+00 0. -1.
         -6    2    1    2    0  503  0.61593213767E+02  0.30918482759E+01  0.16411751419E+03  0.24483823486E+03  0.17090324537E+03 0.  0.
        -24    2    3    3    0    0  0.16445124873E+02  0.66302098633E+02  0.99804294256E+02  0.14388197731E+03  0.77940463347E+02 0.  0.
          6    2    1    2  501    0 -0.61593213767E+02 -0.30918482759E+01  0.11573732920E+04  0.11713178549E+04  0.16932010125E+03 0.  0.
         24    2    5    5    0    0 -0.72437087912E+02 -0.59149464844E+02  0.75679982502E+03  0.76666832948E+03  0.79300450065E+02 0.  0.
          5    1    5    5  501    0  0.10843874145E+02  0.56057616569E+02  0.40057346702E+03  0.40464952547E+03  0.47000000000E+01 0. -1.
        -11    1    6    6    0    0  0.58218244834E+01 -0.37326399927E+02  0.33431336558E+03  0.33644105008E+03  0.00000000000E+00 0.  1.
         12    1    6    6    0    0 -0.78258912396E+02 -0.21823064917E+02  0.42248645944E+03  0.43022727940E+03  0.00000000000E+00 0. -1.
         -5    1    3    3    0  503  0.45148088894E+02 -0.63210250357E+02  0.64313219930E+02  0.10095625755E+03  0.47000000000E+01 0.  1.
         11    1    4    4    0    0  0.44298035092E+02  0.22187759987E+02  0.34867591425E+02  0.60583508796E+02  0.00000000000E+00 0. -1.
        -12    1    4    4    0    0 -0.27852910219E+02  0.44114338646E+02  0.64936702831E+02  0.83298468512E+02  0.00000000000E+00 0.  1.
</event>
<event>
12    1  0.8196217E-002  0.3166626E+03  0.7818608E-02  0.1077251E+00
         21   -1    0    0  503  502  0.00000000000E+00  0.00000000000E+00  0.21151739789E+03  0.21151739789E+03  0.00000000000E+00 0.  1.
         21   -1    0    0  501  503 -0.00000000000E+00 -0.00000000000E+00 -0.13537567289E+04  0.13537567289E+04  0.00000000000E+00 0. -1.
          6    2    1    2  501    0 -0.12492820365E+03  0.23377472719E+03 -0.12024151544E+04  0.12434136157E+04  0.17325569849E+03 0.  0.
         24    2    3    3    0    0 -0.14586860031E+03  0.24224460724E+03 -0.11318405820E+04  0.11691633676E+04  0.76940098065E+02 0.  0.
         -6    2    1    2    0  502  0.12492820365E+03 -0.23377472719E+03  0.60175823428E+02  0.32186051104E+03  0.17238149467E+03 0.  0.
        -24    2    5    5    0    0  0.11125715172E+03 -0.84369252061E+02 -0.26827927262E+01  0.15912701946E+03  0.76275070906E+02 0.  0.
          5    1    3    3  501    0  0.20940396657E+02 -0.84698800573E+01 -0.70574572392E+02  0.74250248139E+02  0.47000000000E+01 0. -1.
        -13    1    4    4    0    0 -0.25674429732E+01  0.11510425779E+02 -0.11887910413E+02  0.16745270348E+02  0.00000000000E+00 0.  1.
         14    1    4    4    0    0 -0.14330115734E+03  0.23073418146E+03 -0.11199526716E+04  0.11524180972E+04  0.00000000000E+00 0. -1.
         -5    1    5    5    0  502  0.13671051932E+02 -0.14940547512E+03  0.62858616154E+02  0.16273349158E+03  0.47000000000E+01 0.  1.
         11    1    6    6    0    0  0.40582854054E+02 -0.51502907755E+02 -0.35492526498E+02  0.74560290957E+02  0.00000000000E+00 0. -1.
        -12    1    6    6    0    0  0.70674297669E+02 -0.32866344306E+02  0.32809733772E+02  0.84566728500E+02  0.00000000000E+00 0.  1.
</event>
<event>
12    1  0.8196217E-002  0.2420683E+03  0.7818608E-02  0.1119243E+00
         21   -1    0    0  503  502  0.00000000000E+00  0.00000000000E+00  0.35514853889E+02  0.35514853889E+02  0.00000000000E+00 0. -1.
         21   -1    0    0  501  503 -0.00000000000E+00 -0.00000000000E+00 -0.18277292853E+04  0.18277292853E+04  0.00000000000E+00 0.  1.
          6    2    1    2  501    0 -0.83291096369E+02 -0.14471867841E+03 -0.12209261527E+04  0.12446918282E+04  0.17526030427E+03 0.  0.
         24    2    3    3    0    0 -0.62810214324E+02 -0.19603410247E+02 -0.74819442648E+03  0.75523225701E+03  0.79066083166E+02 0.  0.
         -6    2    1    2    0  502  0.83291096369E+02  0.14471867841E+03 -0.57128827880E+03  0.61855231106E+03  0.16839169045E+03 0.  0.
        -24    2    5    5    0    0  0.40245445903E+02  0.16223478832E+03 -0.39542173173E+03  0.43658837368E+03  0.79443310943E+02 0.  0.
          5    1    3    3  501    0 -0.20480882045E+02 -0.12511526817E+03 -0.47273172618E+03  0.48945957115E+03  0.47000000000E+01 0. -1.
        -13    1    4    4    0    0 -0.44170408625E+02 -0.40188760755E+02 -0.66169628034E+03  0.66438552732E+03  0.00000000000E+00 0.  1.
         14    1    4    4    0    0 -0.18639805699E+02  0.20585350508E+02 -0.86498146132E+02  0.90846729695E+02  0.00000000000E+00 0. -1.
         -5    1    5    5    0  502  0.43045650466E+02 -0.17516109901E+02 -0.17586654707E+03  0.18196393738E+03  0.47000000000E+01 0.  1.
         13    1    6    6    0    0  0.58362242137E+02  0.83388276028E+02 -0.25445087637E+03  0.27405292257E+03  0.00000000000E+00 0. -1.
        -14    1    6    6    0    0 -0.18116796233E+02  0.78846512287E+02 -0.14097085536E+03  0.16253545111E+03  0.00000000000E+00 0.  1.
</event>
<event>
12    1  0.8196217E-002  0.1761140E+03  0.7818608E-02  0.1172211E+00
         21   -1    0    0  503  502  0.00000000000E+00  0.00000000000E+00  0.96915205958E+02  0.96915205958E+02  0.00000000000E+00 0.  1.
         21   -1    0    0  501  503 -0.00000000000E+00 -0.00000000000E+00 -0.37057908476E+03  0.37057908476E+03  0.00000000000E+00 0.  1.
          6    2    1    2  501    0 -0.21028537807E+01  0.31981630506E+02 -0.22752798260E+03  0.28772404297E+03  0.17317302144E+03 0.  0.
         24    2    3    3    0    0  0.44354578712E+02  0.16631206466E+02 -0.21867824628E+03  0.23778071123E+03  0.80470898837E+02 0.  0.
         -6    2    1    2    0  502  0.21028537807E+01 -0.31981630506E+02 -0.46135896208E+02  0.17977024775E+03  0.17076760341E+03 0.  0.
        -24    2    5    5    0    0  0.37933025208E+02 -0.68574408743E+02 -0.23625725462E+01  0.11223487577E+03  0.80310159103E+02 0.  0.
          5    1    3    3  501    0 -0.46457432493E+02  0.15350424039E+02 -0.88497363218E+01  0.49943331737E+02  0.47000000000E+01 0. -1.
        -11    1    4    4    0    0  0.49932739401E+02  0.42986418839E+02 -0.16640710267E+03  0.17897607239E+03  0.00000000000E+00 0.  1.
         12    1    4    4    0    0 -0.55781606887E+01 -0.26355212373E+02 -0.52271143606E+02  0.58804638845E+02  0.00000000000E+00 0. -1.
         -5    1    5    5    0  502 -0.35830171427E+02  0.36592778237E+02 -0.43773323662E+02  0.67535371977E+02  0.47000000000E+01 0.  1.
         11    1    6    6    0    0  0.16282338809E+02  0.16602144549E+02 -0.68301189977E+01  0.24236259742E+02  0.00000000000E+00 0. -1.
        -12    1    6    6    0    0  0.21650686399E+02 -0.85176553293E+02  0.44675464515E+01  0.87998616032E+02  0.00000000000E+00 0.  1.
</event>
<event>
12    1  0.8196217E-002  0.2092180E+03  0.7818608E-02  0.1142618E+00
         21   -1    0    0  503  502  0.00000000000E+00  0.00000000000E+00  0.12497923998E+03  0.12497923998E+03  0.00000000000E+00 0. -1.
         21   -1    0    0  501  503 -0.00000000000E+00 -0.00000000000E+00 -0.52473410232E+03  0.52473410232E+03  0.00000000000E+00 0.  1.
          6    2    1    2  501    0  0.85138740166E+02 -0.84606694086E+02 -0.38844948294E+03  0.44019014410E+03  0.16872304053E+03 0.  0.
         24    2    3    3    0    0  0.52003193047E+02 -0.70060208020E+02 -0.38573329194E+03  0.40359735201E+03  0.80547409667E+02 0.  0.
         -6    2    1    2    0  502 -0.85138740166E+02  0.84606694086E+02 -0.11305379391E+02  0.20952319819E+03  0.17136295170E+03 0.  0.
        -24    2    5    5    0    0 -0.80844796610E+02  0.11717373570E+03  0.20088682200E+02  0.16384248832E+03  0.78582697518E+02 0.  0.
          5    1    3    3  501    0  0.33135547119E+02 -0.14546486066E+02 -0.27161910056E+01  0.36592792095E+02  0.47000000000E+01 0. -1.
        -11    1    4    4    0    0  0.64563608358E+01 -0.59661582724E+02 -0.30017487884E+03  0.30611459772E+03  0.00000000000E+00 0.  1.
         12    1    4    4    0    0  0.45546832211E+02 -0.10398625296E+02 -0.85558413095E+02  0.97482754289E+02  0.00000000000E+00 0. -1.
         -5    1    5    5    0  502 -0.42939435559E+01 -0.32567041619E+02 -0.31394061591E+02  0.45680709870E+02  0.47000000000E+01 0.  1.
         11    1    6    6    0    0 -0.74759882900E+02  0.95171051028E+02 -0.15033539379E+02  0.12195317278E+03  0.00000000000E+00 0. -1.
        -12    1    6    6    0    0 -0.60849137100E+01  0.22002684676E+02  0.35122221580E+02  0.41889315541E+02  0.00000000000E+00 0.  1.
</event>
<event>
12    1  0.8196217E-002  0.2143550E+03  0.7818608E-02  0.1138202E+00
         21   -1    0    0  501  502  0.00000000000E+00  0.00000000000E+00  0.52045289197E+03  0.52045289197E+03  0.00000000000E+00 0. -1.
         21   -1    0    0  502  503 -0.00000000000E+00 -0.00000000000E+00 -0.10687850276E+03  0.10687850276E+03  0.00000000000E+00 0.  1.
         -6    2    1    2    0  503 -0.11744721043E+03 -0.49856806603E+02  0.75746005470E+02  0.22734453735E+03  0.17224555993E+03 0.  0.
        -24    2    3    3    0    0 -0.12852788672E+03  0.33736366812E+01  0.90050994059E+02  0.17092659536E+03  0.67645549603E+02 0.  0.
          6    2    1    2  501    0  0.11744721043E+03  0.49856806603E+02  0.33782838374E+03  0.39998685738E+03  0.17199395576E+03 0.  0.
         24    2    5    5    0    0  0.71345089294E+02  0.20424012160E+02  0.77451587706E+02  0.13388563440E+03  0.80120862584E+02 0.  0.
          5    1    5    5  501    0  0.46102121133E+02  0.29432794443E+02  0.26037679603E+03  0.26610122298E+03  0.47000000000E+01 0. -1.
        -11    1    6    6    0    0 -0.79062646738E+01  0.24268209234E+02  0.41400036672E+01  0.25857196887E+02  0.00000000000E+00 0.  1.
         12    1    6    6    0    0  0.79251353968E+02 -0.38441970736E+01  0.73311584039E+02  0.10802843751E+03  0.00000000000E+00 0. -1.
         -5    1    3    3    0  503  0.11080676296E+02 -0.53230443284E+02 -0.14304988589E+02  0.56417941986E+02  0.47000000000E+01 0.  1.
         13    1    4    4    0    0 -0.48450762515E+02 -0.25013579377E+02  0.12603176521E+02  0.55964235007E+02  0.00000000000E+00 0. -1.
        -14    1    4    4    0    0 -0.80077124208E+02  0.28387216058E+02  0.77447817538E+02  0.11496236036E+03  0.00000000000E+00 0.  1.
</event>
<event>
12    1  0.8196217E-002  0.1994045E+03  0.7818608E-02  0.1150298E+00
         21   -1    0    0  503  502  0.00000000000E+00  0.00000000000E+00  0.36062515155E+03  0.36062515155E+03  0.00000000000E+00 0. -1.
         21   -1    0    0  501  503 -0.00000000000E+00 -0.00000000000E+00 -0.13305113850E+03  0.13305113850E+03  0.00000000000E+00 0. -1.
          6    2    1    2  501    0 -0.10024255558E+03 -0.56979702311E+01  0.11360704135E+02  0.19972790249E+03  0.17228213087E+03 0.  0.
         24    2    3    3    0    0 -0.39535657923E+02 -0.62491595814E+02 -0.19837277400E+02  0.11081082099E+03  0.80107756668E+02 0.  0.
         -6    2    1    2    0  502  0.10024255558E+03  0.56979702311E+01  0.21621330891E+03  0.29394838756E+03  0.17197797180E+03 0.  0.
        -24    2    5    5    0    0  0.14289081007E+02  0.48418461419E+02  0.14872186912E+03  0.17651660054E+03  0.80569166974E+02 0.  0.
          5    1    3    3  501    0 -0.60706897662E+02  0.56793625583E+02  0.31197981535E+02  0.88917081499E+02  0.47000000000E+01 0. -1.
        -13    1    4    4    0    0 -0.33166017061E+02 -0.47805773479E+02  0.24905808884E+02  0.63290409872E+02  0.00000000000E+00 0.  1.
         14    1    4    4    0    0 -0.63696408612E+01 -0.14685822335E+02 -0.44743086283E+02  0.47520411115E+02  0.00000000000E+00 0. -1.
         -5    1    5    5    0  502  0.85953474577E+02 -0.42720491188E+02  0.67491439785E+02  0.11743178702E+03  0.47000000000E+01 0.  1.
         11    1    6    6    0    0  0.43150716505E+01 -0.11794193403E+02  0.93090889842E+02  0.93934214283E+02  0.00000000000E+00 0. -1.
        -12    1    6    6    0    0  0.99740093570E+01  0.60212654823E+02  0.55630979283E+02  0.82582386254E+02  0.00000000000E+00 0.  1.
</event>
<event>
12    1  0.8196217E-002  0.2780835E+03  0.7818608E-02  0.1096894E+00
         21   -1    0    0  501  502  0.00000000000E+00  0.00000000000E+00  0.60367933828E+02  0.60367933828E+02  0.00000000000E+00 0.  1.
         21   -1    0    0  502  503 -0.00000000000E+00 -0.00000000000E+00 -0.23685912367E+04  0.23685912367E+04  0.00000000000E+00 0. -1.
         -6    2    1    2    0  503  0.20205102490E+03  0.81655781923E+02 -0.19777661840E+04  0.19970652450E+04  0.17093340993E+03 0.  0.
        -24    2    3    3    0    0  0.20098227345E+03  0.45257318100E+02 -0.13266949589E+04  0.13449595629E+04  0.79715825321E+02 0.  0.
          6    2    1    2  501    0 -0.20205102490E+03 -0.81655781923E+02 -0.33045711889E+03  0.43189392559E+03  0.17273729231E+03 0.  0.
         24    2    5    5    0    0 -0.22051897975E+03 -0.69043932877E+02 -0.25650203695E+03  0.35448870460E+03  0.80456582284E+02 0.  0.
          5    1    5    5  501    0  0.18467954848E+02 -0.12611849046E+02 -0.73955081937E+02  0.77405220993E+02  0.47000000000E+01 0. -1.
        -11    1    6    6    0    0 -0.13585348629E+03 -0.63354749912E+02 -0.20913226727E+03  0.25730584775E+03  0.00000000000E+00 0.  1.
         12    1    6    6    0    0 -0.84665493457E+02 -0.56891829648E+01 -0.47369769674E+02  0.97182856843E+02  0.00000000000E+00 0. -1.
         -5    1    3    3    0  503  0.10687514519E+01  0.36398463823E+02 -0.65107122511E+03  0.65210568206E+03  0.47000000000E+01 0.  1.
         13    1    4    4    0    0  0.10361048099E+03 -0.14933688675E+02 -0.71844859003E+03  0.72603479486E+03  0.00000000000E+00 0. -1.
        -14    1    4    4    0    0  0.97371792455E+02  0.60191006775E+02 -0.60824636889E+03  0.61892476807E+03  0.00000000000E+00 0.  1.
</event>
<event>
12    1  0.8196217E-002  0.1773412E+03  0.7818608E-02  0.1170410E+00
         21   -1    0    0  503  502  0.00000000000E+00  0.00000000000E+00  0.48953759954E+03  0.48953759954E+03  0.00000000000E+00 0.  1.
         21   -1    0    0  501  503 -0.00000000000E+00 -0.00000000000E+00 -0.66543175805E+02  0.66543175805E+02  0.00000000000E+00 0.  1.
          6    2    1    2  501    0 -0.27492986380E+02 -0.34547336648E+02  0.26329613752E+03  0.31743159649E+03  0.17172239122E+03 0.  0.
         24    2    3    3    0    0 -0.49805107868E+02  0.36765449948E+02  0.16213736702E+03  0.19158037024E+03  0.81131161704E+02 0.  0.
         -6    2    1    2    0  502  0.27492986380E+02  0.34547336648E+02  0.15969828622E+03  0.23864917886E+03  0.17175711100E+03 0.  0.
        -24    2    5    5    0    0  0.26143867568E+02  0.58145351485E+02  0.29010920519E+02  0.10575838167E+03  0.79238993384E+02 0.  0.
          5    1    3    3  501    0  0.22312121488E+02 -0.71312786596E+02  0.10115877050E+03  0.12585122624E+03  0.47000000000E+01 0. -1.
        -13    1    4    4    0    0  0.16501169923E+01 -0.16743276429E+02  0.46208165829E+01  0.17447410627E+02  0.00000000000E+00 0.  1.
         14    1    4    4    0    0 -0.51455224860E+02  0.53508726377E+02  0.15751655043E+03  0.17413295962E+03  0.00000000000E+00 0. -1.
         -5    1    5    5    0  502  0.13491188117E+01 -0.23598014837E+02  0.13068736570E+03  0.13289079719E+03  0.47000000000E+01 0.  1.
         13    1    6    6    0    0  0.24938559439E+02  0.68902639773E+00 -0.18608765891E+02  0.31123828046E+02  0.00000000000E+00 0. -1.
        -14    1    6    6    0    0  0.12053081294E+01  0.57456325088E+02  0.47619686410E+02  0.74634553620E+02  0.00000000000E+00 0.  1.
</event>
<event>
12    1  0.8196217E-002  0.2140039E+03  0.7818608E-02  0.1138872E+00
         21   -1    0    0  503  502  0.00000000000E+00  0.00000000000E+00  0.81204700064E+02  0.81204700064E+02  0.00000000000E+00 0.  1.
         21   -1    0    0  501  503 -0.00000000000E+00 -0.00000000000E+00 -0.82627004047E+03  0.82627004047E+03  0.00000000000E+00 0.  1.
          6    2    1    2  501    0 -0.10716988307E+03 -0.62518508055E+02 -0.62971353707E+03  0.66436220128E+03  0.17159268059E+03 0.  0.
         24    2    3    3    0    0 -0.21941393083E+02 -0.87740645372E+02 -0.31863221958E+03  0.34079809973E+03  0.80230965638E+02 0.  0.
         -6    2    1    2    0  502  0.10716988307E+03  0.62518508055E+02 -0.11535180333E+03  0.24311253925E+03  0.17436662674E+03 0.  0.
        -24    2    5    5    0    0  0.42723826521E+02  0.61423866447E+02  0.20615725175E+01  0.10908835011E+03  0.79358687789E+02 0.  0.
          5    1    3    3  501    0 -0.85228489992E+02  0.25222137316E+02 -0.31108131749E+03  0.32356410155E+03  0.47000000000E+01 0. -1.
        -11    1    4    4    0    0 -0.40955085812E+02 -0.31589349055E+02 -0.21755062132E+03  0.22361457659E+03  0.00000000000E+00 0.  1.
         12    1    4    4    0    0  0.19013692729E+02 -0.56151296317E+02 -0.10108159826E+03  0.11718352314E+03  0.00000000000E+00 0. -1.
         -5    1    5    5    0  502  0.64446056554E+02  0.10946416087E+01 -0.11741337585E+03  0.13402418913E+03  0.47000000000E+01 0.  1.
         13    1    6    6    0    0  0.57015556689E+01  0.16661789842E+02 -0.35698246636E+02  0.39805625113E+02  0.00000000000E+00 0. -1.
        -14    1    6    6    0    0  0.37022270852E+02  0.44762076605E+02  0.37759819154E+02  0.69282725001E+02  0.00000000000E+00 0.  1.
</event>
<event>
12    1  0.8196217E-002  0.2926890E+03  0.7818608E-02  0.1089019E+00
         21   -1    0    0  503  502  0.00000000000E+00  0.00000000000E+00  0.17835566661E+04  0.17835566661E+04  0.00000000000E+00 0.  1.
         21   -1    0    0  501  503 -0.00000000000E+00 -0.00000000000E+00 -0.13002934690E+03  0.13002934690E+03  0.00000000000E+00 0. -1.
          6    2    1    2  501    0 -0.10775935193E+03  0.21033709754E+03  0.66844156071E+02  0.30022490349E+03  0.17266464300E+03 0.  0.
         24    2    3    3    0    0  0.10091261325E+02  0.93875106149E+02  0.90510953864E+01  0.12468490705E+03  0.80932284102E+02 0.  0.
         -6    2    1    2    0  502  0.10775935193E+03 -0.21033709754E+03  0.15866831632E+04  0.16133611096E+04  0.17180464783E+03 0.  0.
        -24    2    5    5    0    0  0.75092552153E+02 -0.49698584413E+02  0.48369296636E+03  0.49824617559E+03  0.78622675471E+02 0.  0.
          5    1    3    3  501    0 -0.11785061326E+03  0.11646199140E+03  0.57793060685E+02  0.17553999643E+03  0.47000000000E+01 0. -1.
        -13    1    4    4    0    0 -0.68340434126E+01  0.80170451143E+02  0.37570992202E+02  0.88800815542E+02  0.00000000000E+00 0.  1.
         14    1    4    4    0    0  0.16925304738E+02  0.13704655005E+02 -0.28519896816E+02  0.35884091513E+02  0.00000000000E+00 0. -1.
         -5    1    5    5    0  502  0.32666799777E+02 -0.16063851313E+03  0.11029901968E+04  0.11151149340E+04  0.47000000000E+01 0.  1.
         13    1    6    6    0    0  0.12371469948E+02  0.15150346310E+02  0.31030452038E+02  0.36680719944E+02  0.00000000000E+00 0. -1.
        -14    1    6    6    0    0  0.62721082204E+02 -0.64848930722E+02  0.45266251432E+03  0.46156545564E+03  0.00000000000E+00 0.  1.
</event>
<event>
12    1  0.8196217E-002  0.2320713E+03  0.7818608E-02  0.1125481E+00
         21   -1    0    0  503  502  0.00000000000E+00  0.00000000000E+00  0.36449641820E+03  0.36449641820E+03  0.00000000000E+00 0. -1.
         21   -1    0    0  501  503 -0.00000000000E+00 -0.00000000000E+00 -0.17935031177E+03  0.17935031177E+03  0.00000000000E+00 0. -1.
          6    2    1    2  501    0  0.99384942257E+02 -0.11879056962E+03 -0.23721698353E+02  0.23162426933E+03  0.17058287426E+03 0.  0.
         24    2    3    3    0    0 -0.87568063096E+01 -0.80840930035E+02 -0.29634984765E+02  0.11676840364E+03  0.78388073970E+02 0.  0.
         -6    2    1    2    0  502 -0.99384942257E+02  0.11879056962E+03  0.20886780478E+03  0.31222246063E+03  0.17282516851E+03 0.  0.
        -24    2    5    5    0    0 -0.10890655573E+03  0.13323067429E+03  0.22051653087E+03  0.29084582467E+03  0.79703844877E+02 0.  0.
          5    1    3    3  501    0  0.10814174857E+03 -0.37949639585E+02  0.59132864116E+01  0.11485586569E+03  0.47000000000E+01 0. -1.
        -11    1    4    4    0    0 -0.59751222432E+00 -0.28070070349E+02  0.26984073941E+02  0.38941316320E+02  0.00000000000E+00 0.  1.
         12    1    4    4    0    0 -0.81592940853E+01 -0.52770859686E+02 -0.56619058705E+02  0.77827087320E+02  0.00000000000E+00 0. -1.
         -5    1    5    5    0  502  0.95216134712E+01 -0.14440104665E+02 -0.11648726084E+02  0.21376635966E+02  0.47000000000E+01 0.  1.
         11    1    6    6    0    0 -0.34233466549E+01  0.64072516393E+01  0.60814987049E+02  0.61247325049E+02  0.00000000000E+00 0. -1.
        -12    1    6    6    0    0 -0.10548320907E+03  0.12682342265E+03  0.15970154382E+03  0.22959849962E+03  0.00000000000E+00 0.  1.
</event>
<event>
12    1  0.8196217E-002  0.2015318E+03  0.7818608E-02  0.1148494E+00
         21   -1    0    0  503  502  0.00000000000E+00  0.00000000000E+00  0.22009022331E+03  0.22009022331E+03  0.00000000000E+00 0.  1.
         21   -1    0    0  501  503 -0.00000000000E+00 -0.00000000000E+00 -0.18774674604E+03  0.18774674604E+03  0.00000000000E+00 0.  1.
          6    2    1    2  501    0 -0.58939546604E+02 -0.86615500976E+02 -0.11210706110E+02  0.20184332436E+03  0.17215961342E+03 0.  0.
         24    2    3    3    0    0 -0.26435223089E+02 -0.56633749424E+02 -0.73741420420E+02  0.12511251760E+03  0.79430110039E+02 0.  0.
         -6    2    1    2    0  502  0.58939546604E+02  0.86615500976E+02  0.43554183379E+02  0.20599364500E+03  0.17193109006E+03 0.  0.
        -24    2    5    5    0    0  0.80792208485E+02  0.84501484242E+01  0.10472492721E+02  0.11822206972E+03  0.85252558349E+02 0.  0.
          5    1    3    3  501    0 -0.32504323516E+02 -0.29981751552E+02  0.62530714311E+02  0.76730806757E+02  0.47000000000E+01 0. -1.
        -11    1    4    4    0    0  0.22540977660E+02 -0.35831312508E+02 -0.12832241143E+02  0.44233980634E+02  0.00000000000E+00 0.  1.
         12    1    4    4    0    0 -0.48976200749E+02 -0.20802436916E+02 -0.60909179277E+02  0.80878536966E+02  0.00000000000E+00 0. -1.
         -5    1    5    5    0  502 -0.21852661880E+02  0.78165352552E+02  0.33081690657E+02  0.87771575282E+02  0.47000000000E+01 0.  1.
         11    1    6    6    0    0  0.71657406425E+01 -0.54779637897E+01 -0.31202678885E+02  0.32480195440E+02  0.00000000000E+00 0. -1.
        -12    1    6    6    0    0  0.73626467842E+02  0.13928112214E+02  0.41675171606E+02  0.85741874281E+02  0.00000000000E+00 0.  1.
</event>
<event>
12    1  0.8196217E-002  0.2713548E+03  0.7818608E-02  0.1100896E+00
         21   -1    0    0  501  502  0.00000000000E+00  0.00000000000E+00  0.19642465886E+03  0.19642465886E+03  0.00000000000E+00 0. -1.
         21   -1    0    0  502  503 -0.00000000000E+00 -0.00000000000E+00 -0.46655122676E+03  0.46655122676E+03  0.00000000000E+00 0.  1.
         -6    2    1    2    0  503 -0.43062599750E+02  0.20525835110E+03 -0.28552674593E+03  0.39390218120E+03  0.17218602591E+03 0.  0.
        -24    2    3    3    0    0  0.83286351814E+01  0.16092551602E+03 -0.12728496767E+03  0.22165523731E+03  0.83445751001E+02 0.  0.
          6    2    1    2  501    0  0.43062599750E+02 -0.20525835110E+03  0.15400178028E+02  0.26907370443E+03  0.16786338117E+03 0.  0.
         24    2    5    5    0    0  0.65404295093E+02 -0.21229967618E+03  0.34554553504E+02  0.23845162563E+03  0.79475067014E+02 0.  0.
          5    1    5    5  501    0 -0.22341695343E+02  0.70413250793E+01 -0.19154375476E+02  0.30622078792E+02  0.47000000000E+01 0. -1.
        -13    1    6    6    0    0  0.43586700173E+02 -0.17325604973E+03 -0.50284948338E+01  0.17872533385E+03  0.00000000000E+00 0.  1.
         14    1    6    6    0    0  0.21817594919E+02 -0.39043626451E+02  0.39583048337E+02  0.59726291783E+02  0.00000000000E+00 0. -1.
         -5    1    3    3    0  503 -0.51391234931E+02  0.44332835083E+02 -0.15824177826E+03  0.17224694389E+03  0.47000000000E+01 0.  1.
         11    1    4    4    0    0  0.39977347339E+02  0.55673392660E+02 -0.29777754506E+02  0.74729041303E+02  0.00000000000E+00 0. -1.
        -12    1    4    4    0    0 -0.31648712158E+02  0.10525212336E+03 -0.97507213168E+02  0.14692619600E+03  0.00000000000E+00 0.  1.
</event>
<event>
12    1  0.8196217E-002  0.2096609E+03  0.7818608E-02  0.1141855E+00
         21   -1    0    0  503  502  0.00000000000E+00  0.00000000000E+00  0.11323681482E+03  0.11323681482E+03  0.00000000000E+00 0. -1.
         21   -1    0    0  501  503 -0.00000000000E+00 -0.00000000000E+00 -0.90538249698E+03  0.90538249698E+03  0.00000000000E+00 0. -1.
          6    2    1    2  501    0 -0.10750044424E+03  0.53481609224E+02 -0.78112031701E+03  0.80876860513E+03  0.17187518425E+03 0.  0.
         24    2    3    3    0    0 -0.29450005624E+02  0.61225504778E+02 -0.26832462501E+03  0.28998796688E+03  0.86481508330E+02 0.  0.
         -6    2    1    2    0  502  0.10750044424E+03 -0.53481609224E+02 -0.11025365143E+02  0.20985070667E+03  0.17175311461E+03 0.  0.
        -24    2    5    5    0    0  0.47813361210E+02 -0.97835490967E+02  0.43097034556E+01  0.13377791893E+03  0.77589027868E+02 0.  0.
          5    1    3    3  501    0 -0.78050438614E+02 -0.77438955539E+01 -0.51279569201E+03  0.51878063825E+03  0.47000000000E+01 0. -1.
        -11    1    4    4    0    0  0.13972785273E+02  0.29082847294E+02 -0.20145030694E+03  0.20401783476E+03  0.00000000000E+00 0.  1.
         12    1    4    4    0    0 -0.43422790897E+02  0.32142657484E+02 -0.66874318072E+02  0.85970132121E+02  0.00000000000E+00 0. -1.
         -5    1    5    5    0  502  0.59687083028E+02  0.44353881744E+02 -0.15335068599E+02  0.76072787743E+02  0.47000000000E+01 0.  1.
         11    1    6    6    0    0 -0.21209736450E+02 -0.16474112429E+02  0.34708377435E+01  0.27079438976E+02  0.00000000000E+00 0. -1.
        -12    1    6    6    0    0  0.69023097660E+02 -0.81361378538E+02  0.83886571211E+00  0.10669847995E+03  0.00000000000E+00 0.  1.
</event>
<event>
12    1  0.8196217E-002  0.2703257E+03  0.7818608E-02  0.1101377E+00
         21   -1    0    0  501  502  0.00000000000E+00  0.00000000000E+00  0.43645242546E+03  0.43645242546E+03  0.00000000000E+00 0.  1.
         21   -1    0    0  502  503 -0.00000000000E+00 -0.00000000000E+00 -0.10367921804E+04  0.10367921804E+04  0.00000000000E+00 0. -1.
         -6    2    1    2    0  503 -0.76048483758E+02  0.19428986531E+03 -0.97534708233E+03  0.10121155669E+04  0.17188387413E+03 0.  0.
        -24    2    3    3    0    0 -0.77356170828E+02  0.17799510820E+03 -0.59232094649E+03  0.62871194164E+03  0.82270080854E+02 0.  0.
          6    2    1    2  501    0  0.76048483758E+02 -0.19428986531E+03  0.37500732735E+03  0.46112903896E+03  0.16875298920E+03 0.  0.
         24    2    5    5    0    0  0.86963370132E+02 -0.57008808997E+02  0.16796383621E+03  0.21242375074E+03  0.78098447844E+02 0.  0.
          5    1    5    5  501    0 -0.10914886374E+02 -0.13728105631E+03  0.20704349114E+03  0.24870528822E+03  0.47000000000E+01 0. -1.
        -13    1    6    6    0    0  0.29869509444E+02 -0.59068976587E+02  0.55903226307E+02  0.86640073297E+02  0.00000000000E+00 0.  1.
         14    1    6    6    0    0  0.57093860688E+02  0.20601675898E+01  0.11206060991E+03  0.12578367745E+03  0.00000000000E+00 0. -1.
         -5    1    3    3    0  503  0.13076870702E+01  0.16294757110E+02 -0.38302613584E+03  0.38340362530E+03  0.47000000000E+01 0.  1.
         13    1    4    4    0    0 -0.70911536472E+02  0.96760120742E+02 -0.25682198426E+03  0.28345810726E+03  0.00000000000E+00 0. -1.
        -14    1    4    4    0    0 -0.64446343562E+01  0.81234987454E+02 -0.33549896223E+03  0.34525383439E+03  0.00000000000E+00 0.  1.
</event>
<event>
12    1  0.8196217E-002  0.2136881E+03  0.7818608E-02  0.1138837E+00
         21   -1    0    0  503  502  0.00000000000E+00  0.00000000000E+00  0.12072599243E+03  0.12072599243E+03  0.00000000000E+00 0.  1.
         21   -1    0    0  501  503 -0.00000000000E+00 -0.00000000000E+00 -0.52744268968E+03  0.52744268968E+03  0.00000000000E+00 0.  1.
          6    2    1    2  501    0  0.11815897796E+03 -0.43151392382E+02 -0.37684644373E+03  0.43321572578E+03  0.17273979326E+03 0.  0.
         24    2    3    3    0    0  0.12449506944E+03  0.73908156956E+01 -0.19928313706E+03  0.24843077312E+03  0.80314592992E+02 0.  0.
         -6    2    1    2    0  502 -0.11815897796E+03  0.43151392382E+02 -0.29870253518E+02  0.21495295632E+03  0.17172348311E+03 0.  0.
        -24    2    5    5    0    0 -0.72009391864E+02  0.87844425919E+02  0.98553604328E+01  0.13927293289E+03  0.79986411498E+02 0.  0.
          5    1    3    3  501    0 -0.63360914792E+01 -0.50542208077E+02 -0.17756330668E+03  0.18478495266E+03  0.47000000000E+01 0. -1.
        -11    1    4    4    0    0  0.83779432988E+02  0.24571027737E+02 -0.70317915555E+02  0.11210413928E+03  0.00000000000E+00 0.  1.
         12    1    4    4    0    0  0.40715636449E+02 -0.17180212041E+02 -0.12896522150E+03  0.13632663384E+03  0.00000000000E+00 0. -1.
         -5    1    5    5    0  502 -0.46149586094E+02 -0.44693033537E+02 -0.39725613950E+02  0.75680023435E+02  0.47000000000E+01 0.  1.
         11    1    6    6    0    0 -0.49390898668E+02  0.90618153739E+02  0.31438312472E+02  0.10788641318E+03  0.00000000000E+00 0. -1.
        -12    1    6    6    0    0 -0.22618493196E+02 -0.27737278202E+01 -0.21582952039E+02  0.31386519706E+02  0.00000000000E+00 0.  1.
</event>
<event>
12    1  0.8196217E-002  0.2302796E+03  0.7818608E-02  0.1126777E+00
         21   -1    0    0  503  502  0.00000000000E+00  0.00000000000E+00  0.61972470760E+03  0.61972470760E+03  0.00000000000E+00 0.  1.
         21   -1    0    0  501  503 -0.00000000000E+00 -0.00000000000E+00 -0.10672650010E+03  0.10672650010E+03  0.00000000000E+00 0.  1.
          6    2    1    2  501    0  0.38947861404E+02  0.14786903848E+03  0.91275918195E+02  0.24595312851E+03  0.16964509935E+03 0.  0.
         24    2    3    3    0    0 -0.26476364983E+02  0.11639074305E+03  0.22440379387E+02  0.14579508398E+03  0.80652544376E+02 0.  0.
         -6    2    1    2    0  502 -0.38947861404E+02 -0.14786903848E+03  0.42172228931E+03  0.48049807919E+03  0.17218166672E+03 0.  0.
        -24    2    5    5    0    0 -0.27647414421E+02 -0.17777116162E+03  0.36848601489E+03  0.41822426459E+03  0.82235192561E+02 0.  0.
          5    1    3    3  501    0  0.65424226387E+02  0.31478295429E+02  0.68835538808E+02  0.10015804453E+03  0.47000000000E+01 0. -1.
        -13    1    4    4    0    0 -0.20744825334E+02  0.12599309620E+03  0.85680576189E+01  0.12797663724E+03  0.00000000000E+00 0.  1.
         14    1    4    4    0    0 -0.57315396487E+01 -0.96023531511E+01  0.13872321768E+02  0.17818446734E+02  0.00000000000E+00 0. -1.
         -5    1    5    5    0  502 -0.11300446984E+02  0.29902123143E+02  0.53236274420E+02  0.62273814598E+02  0.47000000000E+01 0.  1.
         11    1    6    6    0    0 -0.32905621049E+02 -0.45126612428E+02  0.17406977966E+03  0.18280995388E+03  0.00000000000E+00 0. -1.
        -12    1    6    6    0    0  0.52582066285E+01 -0.13264454919E+03  0.19441623522E+03  0.23541431071E+03  0.00000000000E+00 0.  1.
</event>
<event>
12    1  0.8196217E-002  0.1724109E+03  0.7818608E-02  0.1175601E+00
         21   -1    0    0  503  502  0.00000000000E+00  0.00000000000E+00  0.35430795073E+03  0.35430795073E+03  0.00000000000E+00 0. -1.
         21   -1    0    0  501  503 -0.00000000000E+00 -0.00000000000E+00 -0.17292490130E+03  0.17292490130E+03  0.00000000000E+00 0. -1.
          6    2    1    2  501    0 -0.40284781964E+01  0.27887657615E+02 -0.99069677590E+02  0.19802282881E+03  0.16912802733E+03 0.  0.
         24    2    3    3    0    0  0.50678833893E+01  0.68872763565E+02 -0.23387646338E+02  0.11134882718E+03  0.84157223754E+02 0.  0.
         -6    2    1    2    0  502  0.40284781964E+01 -0.27887657615E+02  0.28045272702E+03  0.32921002322E+03  0.17009279002E+03 0.  0.
        -24    2    5    5    0    0 -0.46697800755E+02 -0.23343060878E+02  0.85743604945E+02  0.12789549083E+03  0.79244606751E+02 0.  0.
          5    1    3    3  501    0 -0.90963615858E+01 -0.40985105950E+02 -0.75682031252E+02  0.86674001628E+02  0.47000000000E+01 0. -1.
        -11    1    4    4    0    0  0.28607787084E+02 -0.10318574869E+01  0.10080546723E+02  0.30349425595E+02  0.00000000000E+00 0.  1.
         12    1    4    4    0    0 -0.23539903695E+02  0.69904621052E+02 -0.33468193061E+02  0.80999401585E+02  0.00000000000E+00 0. -1.
         -5    1    5    5    0  502  0.50726278952E+02 -0.45445967373E+01  0.19470912207E+03  0.20131453239E+03  0.47000000000E+01 0.  1.
         11    1    6    6    0    0 -0.43066599949E+02 -0.41639937636E+02  0.90605595625E+02  0.10861855457E+03  0.00000000000E+00 0. -1.
        -12    1    6    6    0    0 -0.36312008066E+01  0.18296876757E+02 -0.48619906794E+01  0.19276936264E+02  0.00000000000E+00 0.  1.
</event>
<event>
12    1  0.8196217E-002  0.2577996E+03  0.7818608E-02  0.1108737E+00
         21   -1    0    0  501  502  0.00000000000E+00  0.00000000000E+00  0.30466113299E+03  0.30466113299E+03  0.00000000000E+00 0.  1.
         21   -1    0    0  502  503 -0.00000000000E+00 -0.00000000000E+00 -0.29196705371E+03  0.29196705371E+03  0.00000000000E+00 0. -1.
         -6    2    1    2    0  503  0.82403962657E+02  0.17361543288E+03 -0.14512041582E+03  0.29583876066E+03  0.17183685758E+03 0.  0.
        -24    2    3    3    0    0  0.60230763179E+01  0.37487312490E+02 -0.95573989645E+02  0.13200395573E+03  0.82759173421E+02 0.  0.
          6    2    1    2  501    0 -0.82403962657E+02 -0.17361543288E+03  0.15781449510E+03  0.30078942604E+03  0.16922213909E+03 0.  0.
         24    2    5    5    0    0  0.69499766658E+01 -0.35932840710E+02  0.36763912204E+02  0.96789533199E+02  0.81713874460E+02 0.  0.
          5    1    5    5  501    0 -0.89353939323E+02 -0.13768259217E+03  0.12105058290E+03  0.20399989284E+03  0.47000000000E+01 0. -1.
        -11    1    6    6    0    0 -0.21964667357E+02  0.11188023195E+02  0.33253205954E+02  0.41393165877E+02  0.00000000000E+00 0.  1.
         12    1    6    6    0    0  0.28914644023E+02 -0.47120863905E+02  0.35107062498E+01  0.55396367322E+02  0.00000000000E+00 0. -1.
         -5    1    3    3    0  503  0.76380886339E+02  0.13612812039E+03 -0.49546426176E+02  0.16383480493E+03  0.47000000000E+01 0.  1.
         13    1    4    4    0    0  0.68028293725E+01  0.59933458131E+02 -0.90853671109E+02  0.10905359895E+03  0.00000000000E+00 0. -1.
        -14    1    4    4    0    0 -0.77975305458E+00 -0.22446145642E+02 -0.47203185367E+01  0.22950356774E+02  0.00000000000E+00 0.  1.
</event>
<event>
12    1  0.8196217E-002  0.1992877E+03  0.7818608E-02  0.1152628E+00
         21   -1    0    0  503  502  0.00000000000E+00  0.00000000000E+00  0.27533550839E+03  0.27533550839E+03  0.00000000000E+00 0. -1.
         21   -1    0    0  501  503 -0.00000000000E+00 -0.00000000000E+00 -0.15269272227E+03  0.15269272227E+03  0.00000000000E+00 0.  1.
          6    2    1    2  501    0 -0.53551125917E+02 -0.58269568009E+02  0.12895324518E+03  0.22864065362E+03  0.17141920372E+03 0.  0.
         24    2    3    3    0    0 -0.29257151362E+02 -0.75808478851E+02  0.15325175555E+03  0.18977784107E+03  0.76984556949E+02 0.  0.
         -6    2    1    2    0  502  0.53551125917E+02  0.58269568009E+02 -0.63104590521E+01  0.19938757703E+03  0.18290029617E+03 0.  0.
        -24    2    5    5    0    0  0.83184463121E+02  0.96592986315E+02 -0.83031415582E+01  0.15067536246E+03  0.79901581861E+02 0.  0.
          5    1    3    3  501    0 -0.24293974555E+02  0.17538910842E+02 -0.24298510376E+02  0.38862812555E+02  0.47000000000E+01 0. -1.
        -13    1    4    4    0    0  0.55500391205E+01  0.13824361212E+02  0.13252199944E+02  0.19938322410E+02  0.00000000000E+00 0.  1.
         14    1    4    4    0    0 -0.34807190482E+02 -0.89632840063E+02  0.13999955561E+03  0.16983951866E+03  0.00000000000E+00 0. -1.
         -5    1    5    5    0  502 -0.29633337205E+02 -0.38323418306E+02  0.19926825061E+01  0.48712214568E+02  0.47000000000E+01 0.  1.
         13    1    6    6    0    0  0.41176732990E+02  0.87593471332E+02  0.20521117753E+02  0.98940668249E+02  0.00000000000E+00 0. -1.
        -14    1    6    6    0    0  0.42007730131E+02  0.89995149834E+01 -0.28824259311E+02  0.51734694216E+02  0.00000000000E+00 0.  1.
</event>
<event>
12    1  0.8196217E-002  0.1771370E+03  0.7818608E-02  0.1170688E+00
         21   -1    0    0  503  502  0.00000000000E+00  0.00000000000E+00  0.66269018074E+03  0.66269018074E+03  0.00000000000E+00 0.  1.
         21   -1    0    0  501  503 -0.00000000000E+00 -0.00000000000E+00 -0.47257822456E+02  0.47257822456E+02  0.00000000000E+00 0.  1.
          6    2    1    2  501    0  0.43344340318E+02  0.15231741022E-01  0.30968949665E+03  0.35677035816E+03  0.17175206565E+03 0.  0.
         24    2    3    3    0    0  0.69718212963E+02  0.51497570011E+02  0.23191923227E+03  0.25973265243E+03  0.78497716548E+02 0.  0.
         -6    2    1    2    0  502 -0.43344340318E+02 -0.15231741022E-01  0.30574286163E+03  0.35317764504E+03  0.17139725624E+03 0.  0.
        -24    2    5    5    0    0  0.34286091589E+02  0.55131671240E+01  0.17347460906E+03  0.19963928569E+03  0.92501207098E+02 0.  0.
          5    1    3    3  501    0 -0.26373872645E+02 -0.51482338270E+02  0.77770264379E+02  0.97037705731E+02  0.47000000000E+01 0. -1.
        -11    1    4    4    0    0  0.45448090016E+02 -0.97359860697E+01  0.13302043893E+03  0.14090690361E+03  0.00000000000E+00 0.  1.
         12    1    4    4    0    0  0.24270122947E+02  0.61233556081E+02  0.98898793339E+02  0.11882574882E+03  0.00000000000E+00 0. -1.
         -5    1    5    5    0  502 -0.77630431907E+02 -0.55283988650E+01  0.13226825257E+03  0.15353835935E+03  0.47000000000E+01 0.  1.
         13    1    6    6    0    0  0.27654416043E+02  0.38595010353E+02  0.40361967569E+02  0.62317172407E+02  0.00000000000E+00 0. -1.
        -14    1    6    6    0    0  0.66316755458E+01 -0.33081843229E+02  0.13311264149E+03  0.13732211328E+03  0.00000000000E+00 0.  1.
</event>
<event>
12    1  0.8196217E-002  0.2121112E+03  0.7818608E-02  0.1140009E+00
         21   -1    0    0  503  502  0.00000000000E+00  0.00000000000E+00  0.15986620747E+04  0.15986620747E+04  0.00000000000E+00 0. -1.
         21   -1    0    0  501  503 -0.00000000000E+00 -0.00000000000E+00 -0.58395369763E+02  0.58395369763E+02  0.00000000000E+00 0. -1.
          6    2    1    2  501    0 -0.93350138985E+02  0.81107062112E+02  0.17262887106E+03  0.27306886366E+03  0.17167781803E+03 0.  0.
         24    2    3    3    0    0 -0.36615707545E+01 -0.11820892629E+02  0.76407470011E+02  0.11194688482E+03  0.80875601670E+02 0.  0.
         -6    2    1    2    0  502  0.93350138985E+02 -0.81107062112E+02  0.13676378339E+04  0.13839885808E+04  0.17233265267E+03 0.  0.
        -24    2    5    5    0    0  0.59126119714E+02  0.26215030697E+02  0.39417078504E+03  0.40401434631E+03  0.60612361610E+02 0.  0.
          5    1    3    3  501    0 -0.89688568231E+02  0.92927954741E+02  0.96221401054E+02  0.16112197884E+03  0.47000000000E+01 0. -1.
        -11    1    4    4    0    0 -0.41218276845E+02 -0.15269720155E+02  0.44449752836E+02  0.62513128436E+02  0.00000000000E+00 0.  1.
         12    1    4    4    0    0  0.37556706090E+02  0.34488275263E+01  0.31957717175E+02  0.49433756388E+02  0.00000000000E+00 0. -1.
         -5    1    5    5    0  502  0.34224019271E+02 -0.10732209281E+03  0.97346704883E+03  0.97997423449E+03  0.47000000000E+01 0.  1.
         11    1    6    6    0    0  0.53151173625E+01 -0.17202480235E+02  0.55149961568E+02  0.58014602125E+02  0.00000000000E+00 0. -1.
        -12    1    6    6    0    0  0.53811002352E+02  0.43417510932E+02  0.33902082347E+03  0.34599974419E+03  0.00000000000E+00 0.  1.
</event>
<event>
12    1  0.8196217E-002  0.2400038E+03  0.7818608E-02  0.1119948E+00
         21   -1    0    0  503  502  0.00000000000E+00  0.00000000000E+00  0.71804865829E+02  0.71804865829E+02  0.00000000000E+00 0. -1.
         21   -1    0    0  501  503 -0.00000000000E+00 -0.00000000000E+00 -0.81373975414E+03  0.81373975414E+03  0.00000000000E+00 0.  1.
          6    2    1    2  501    0 -0.15192772630E+03 -0.66024585436E+02 -0.43117579401E+03  0.49347175454E+03  0.17366786489E+03 0.  0.
         24    2    3    3    0    0 -0.12947915688E+03 -0.11134657611E+03 -0.35475434590E+03  0.40170929578E+03  0.79729544720E+02 0.  0.
         -6    2    1    2    0  502  0.15192772630E+03  0.66024585436E+02 -0.31075909430E+03  0.39207286542E+03  0.17236193666E+03 0.  0.
        -24    2    5    5    0    0  0.32532841927E+02  0.50760774829E+02 -0.63600609820E+02  0.11712281763E+03  0.77702475994E+02 0.  0.
          5    1    3    3  501    0 -0.22448569415E+02  0.45321990678E+02 -0.76421448103E+02  0.91762458761E+02  0.47000000000E+01 0. -1.
        -11    1    4    4    0    0 -0.10143055994E+03 -0.11383645776E+03 -0.24642115390E+03  0.28977626317E+03  0.00000000000E+00 0.  1.
         12    1    4    4    0    0 -0.28048596941E+02  0.24898816459E+01 -0.10833319200E+03  0.11193303261E+03  0.00000000000E+00 0. -1.
         -5    1    5    5    0  502  0.11939488437E+03  0.15263810607E+02 -0.24715848448E+03  0.27495004779E+03  0.47000000000E+01 0.  1.
         13    1    6    6    0    0 -0.22932785107E+02  0.12538087656E+02 -0.26330332366E+01  0.26268786398E+02  0.00000000000E+00 0. -1.
        -14    1    6    6    0    0  0.55465627034E+02  0.38222687173E+02 -0.60967576583E+02  0.90854031234E+02  0.00000000000E+00 0.  1.
</event>
<event>
12    1  0.8196217E-002  0.2143235E+03  0.7818608E-02  0.1138791E+00
         21   -1    0    0  503  502  0.00000000000E+00  0.00000000000E+00  0.20163110201E+03  0.20163110201E+03  0.00000000000E+00 0. -1.
         21   -1    0    0  501  503 -0.00000000000E+00 -0.00000000000E+00 -0.38833018714E+03  0.38833018714E+03  0.00000000000E+00 0.  1.
          6    2    1    2  501    0  0.87999714402E+02 -0.86674367841E+02  0.98625975527E+02  0.23310705886E+03  0.17133424079E+03 0.  0.
         24    2    3    3    0    0  0.11936836351E+03 -0.24527637780E+02  0.64856138758E+02  0.15559125351E+03  0.71776794385E+02 0.  0.
         -6    2    1    2    0  502 -0.87999714402E+02  0.86674367841E+02 -0.28532506066E+03  0.35685423030E+03  0.17515180749E+03 0.  0.
        -24    2    5    5    0    0  0.57784382353E+01 -0.64585659320E+01 -0.93546762846E+02  0.12389695787E+03  0.80773485179E+02 0.  0.
          5    1    3    3  501    0 -0.31368649104E+02 -0.62146730061E+02  0.33769836769E+02  0.77515805351E+02  0.47000000000E+01 0. -1.
        -11    1    4    4    0    0  0.37491137920E+01  0.77684487534E+01 -0.10702943353E+02  0.13746186623E+02  0.00000000000E+00 0.  1.
         12    1    4    4    0    0  0.11561924971E+03 -0.32296086534E+02  0.75559082112E+02  0.14184506688E+03  0.00000000000E+00 0. -1.
         -5    1    5    5    0  502 -0.93778152637E+02  0.93132933773E+02 -0.19177829781E+03  0.23295727243E+03  0.47000000000E+01 0.  1.
         11    1    6    6    0    0  0.54593552387E+01  0.22648084962E+02  0.25991403422E+01  0.23441327663E+02  0.00000000000E+00 0. -1.
        -12    1    6    6    0    0  0.31908299668E+00 -0.29106650894E+02 -0.96145903189E+02  0.10045563021E+03  0.00000000000E+00 0.  1.
</event>
<event>
12    1  0.8196217E-002  0.2357930E+03  0.7818608E-02  0.1122809E+00
         21   -1    0    0  501  502  0.00000000000E+00  0.00000000000E+00  0.21802839078E+03  0.21802839078E+03  0.00000000000E+00 0. -1.
         21   -1    0    0  502  503 -0.00000000000E+00 -0.00000000000E+00 -0.27072565792E+03  0.27072565792E+03  0.00000000000E+00 0. -1.
         -6    2    1    2    0  503 -0.15654946557E+02  0.16013451363E+03 -0.87293346797E+02  0.25043655823E+03  0.17090992217E+03 0.  0.
        -24    2    3    3    0    0 -0.20362266511E+02  0.10471346870E+03 -0.12709510678E+03  0.18188058709E+03  0.74483886636E+02 0.  0.
          6    2    1    2  501    0  0.15654946557E+02 -0.16013451363E+03  0.34596079658E+02  0.23831749047E+03  0.17236646348E+03 0.  0.
         24    2    5    5    0    0 -0.30420855394E+02 -0.97168274997E+02 -0.38964726631E+02  0.13098152747E+03  0.72600334071E+02 0.  0.
          5    1    5    5  501    0  0.46075801951E+02 -0.62966238634E+02  0.73560806289E+02  0.10733596301E+03  0.47000000000E+01 0. -1.
        -13    1    6    6    0    0 -0.18971574965E+02 -0.10603619847E+03 -0.24413367445E+02  0.11045183816E+03  0.00000000000E+00 0.  1.
         14    1    6    6    0    0 -0.11449280429E+02  0.88679234703E+01 -0.14551359186E+02  0.20529689310E+02  0.00000000000E+00 0. -1.
         -5    1    3    3    0  503  0.47073199546E+01  0.55421044926E+02  0.39801759980E+02  0.68555971143E+02  0.47000000000E+01 0.  1.
         13    1    4    4    0    0  0.11035230850E+01  0.32794361726E+02 -0.94535470032E+02  0.10006819184E+03  0.00000000000E+00 0. -1.
        -14    1    4    4    0    0 -0.21465789596E+02  0.71919106979E+02 -0.32559636746E+02  0.81812395250E+02  0.00000000000E+00 0.  1.
</event>
<event>
12    1  0.8196217E-002  0.1901233E+03  0.7818608E-02  0.1161921E+00
         21   -1    0    0  503  502  0.00000000000E+00  0.00000000000E+00  0.49273725887E+03  0.49273725887E+03  0.00000000000E+00 0.  1.
         21   -1    0    0  501  503 -0.00000000000E+00 -0.00000000000E+00 -0.90632032339E+02  0.90632032339E+02  0.00000000000E+00 0.  1.
          6    2    1    2  501    0 -0.75738516892E+01  0.26722029050E+02  0.47956254586E+02  0.18141360784E+03  0.17274161250E+03 0.  0.
         24    2    3    3    0    0  0.36009467544E+02 -0.24763028421E+02  0.57063616270E+02  0.11318420879E+03  0.87432942808E+02 0.  0.
         -6    2    1    2    0  502  0.75738516892E+01 -0.26722029050E+02  0.35414897195E+03  0.40195568337E+03  0.18808361703E+03 0.  0.
        -24    2    5    5    0    0  0.76139806068E+02 -0.21757950526E+02  0.27533672011E+03  0.29726856279E+03  0.79294454426E+02 0.  0.
          5    1    3    3  501    0 -0.43583319233E+02  0.51485057471E+02 -0.91073616833E+01  0.68229399053E+02  0.47000000000E+01 0. -1.
        -13    1    4    4    0    0  0.60980678155E+02  0.95662163989E+00  0.28353877406E+02  0.67256974339E+02  0.00000000000E+00 0.  1.
         14    1    4    4    0    0 -0.24971210611E+02 -0.25719650061E+02  0.28709738864E+02  0.45927234450E+02  0.00000000000E+00 0. -1.
         -5    1    5    5    0  502 -0.68565954379E+02 -0.49640785247E+01  0.78812251834E+02  0.10468712058E+03  0.47000000000E+01 0.  1.
         13    1    6    6    0    0  0.48669968299E+02 -0.44899361331E+02  0.11270570430E+03  0.13071837760E+03  0.00000000000E+00 0. -1.
        -14    1    6    6    0    0  0.27469837769E+02  0.23141410805E+02  0.16263101581E+03  0.16655018519E+03  0.00000000000E+00 0.  1.
</event>
<event>
12    1  0.8196217E-002  0.2787037E+03  0.7818608E-02  0.1096483E+00
         21   -1    0    0  503  502  0.00000000000E+00  0.00000000000E+00  0.10873658001E+03  0.10873658001E+03  0.00000000000E+00 0.  1.
         21   -1    0    0  501  503 -0.00000000000E+00 -0.00000000000E+00 -0.10947632613E+04  0.10947632613E+04  0.00000000000E+00 0.  1.
          6    2    1    2  501    0 -0.49089879475E+02  0.21377401078E+03 -0.84810729320E+03  0.89253763012E+03  0.17096285106E+03 0.  0.
         24    2    3    3    0    0 -0.59393861528E+02  0.23290933233E+03 -0.74782661631E+03  0.78982133767E+03  0.82454287308E+02 0.  0.
         -6    2    1    2    0  502  0.49089879475E+02 -0.21377401078E+03 -0.13791938805E+03  0.31096221116E+03  0.17194939726E+03 0.  0.
        -24    2    5    5    0    0  0.57217904263E+01 -0.21781989868E+03 -0.98390498654E+02  0.25195557210E+03  0.79515237152E+02 0.  0.
          5    1    3    3  501    0  0.10303982053E+02 -0.19135321555E+02 -0.10028067689E+03  0.10271629245E+03  0.47000000000E+01 0. -1.
        -13    1    4    4    0    0  0.59666711273E+01  0.11310149782E+03 -0.26766334640E+03  0.29063932455E+03  0.00000000000E+00 0.  1.
         14    1    4    4    0    0 -0.65360532655E+02  0.11980783451E+03 -0.48016326991E+03  0.49918201311E+03  0.00000000000E+00 0. -1.
         -5    1    5    5    0  502  0.43368089048E+02  0.40458879013E+01 -0.39528889398E+02  0.59006639064E+02  0.47000000000E+01 0.  1.
         11    1    6    6    0    0  0.38106954701E+02 -0.67241973084E+02 -0.24141058348E+02  0.80971684180E+02  0.00000000000E+00 0. -1.
        -12    1    6    6    0    0 -0.32385164274E+02 -0.15057792560E+03 -0.74249440306E+02  0.17098388792E+03  0.00000000000E+00 0.  1.
</event>
<event>
12    1  0.8196217E-002  0.2732835E+03  0.7818608E-02  0.1099443E+00
         21   -1    0    0  501  502  0.00000000000E+00  0.00000000000E+00  0.24278737346E+03  0.24278737346E+03  0.00000000000E+00 0.  1.
         21   -1    0    0  502  503 -0.00000000000E+00 -0.00000000000E+00 -0.40719602386E+03  0.40719602386E+03  0.00000000000E+00 0.  1.
         -6    2    1    2    0  503 -0.29603870301E+02  0.20946306659E+03 -0.24312972191E+03  0.36578126775E+03  0.17301071863E+03 0.  0.
        -24    2    3    3    0    0  0.28173959010E+02  0.17703373204E+03 -0.22944172196E+03  0.29796246032E+03  0.63272503791E+02 0.  0.
          6    2    1    2  501    0  0.29603870301E+02 -0.20946306659E+03  0.78721071515E+02  0.28420212956E+03  0.17269243743E+03 0.  0.
         24    2    5    5    0    0 -0.39859869240E+00 -0.24410047665E+02  0.38232242337E+02  0.92352700984E+02  0.80444438696E+02 0.  0.
          5    1    5    5  501    0  0.30002468994E+02 -0.18505301892E+03  0.40488829178E+02  0.19184942858E+03  0.47000000000E+01 0. -1.
        -11    1    6    6    0    0  0.27762771477E+02 -0.41018353984E+02  0.13440202623E+02  0.51321690250E+02  0.00000000000E+00 0.  1.
         12    1    6    6    0    0 -0.28161370170E+02  0.16608306319E+02  0.24792039714E+02  0.41031010734E+02  0.00000000000E+00 0. -1.
         -5    1    3    3    0  503 -0.57777829311E+02  0.32429334546E+02 -0.13687999954E+02  0.67818807434E+02  0.47000000000E+01 0.  1.
         11    1    4    4    0    0  0.16830134579E+02  0.86386041124E+01 -0.39966132000E+02  0.44217311294E+02  0.00000000000E+00 0. -1.
        -12    1    4    4    0    0  0.11343824431E+02  0.16839512793E+03 -0.18947558996E+03  0.25374514902E+03  0.00000000000E+00 0.  1.
</event>
<event>
12    1  0.8196217E-002  0.5549753E+03  0.7818608E-02  0.1000397E+00
         21   -1    0    0  503  502  0.00000000000E+00  0.00000000000E+00  0.94798600268E+03  0.94798600268E+03  0.00000000000E+00 0. -1.
         21   -1    0    0  501  503 -0.00000000000E+00 -0.00000000000E+00 -0.59129108700E+03  0.59129108700E+03  0.00000000000E+00 0.  1.
          6    2    1    2  501    0 -0.32522272560E+03  0.41370307377E+03 -0.33864481733E+03  0.65013679898E+03  0.17628808977E+03 0.  0.
         24    2    3    3    0    0 -0.73585773955E+02  0.16714088727E+03 -0.87672968957E+02  0.21755960828E+03  0.79339090877E+02 0.  0.
         -6    2    1    2    0  502  0.32522272560E+03 -0.41370307377E+03  0.69533973301E+03  0.88914029070E+03  0.17364635833E+03 0.  0.
        -24    2    5    5    0    0  0.10472335554E+03 -0.22671367824E+03  0.28641337861E+03  0.38831311536E+03  0.79927335880E+02 0.  0.
          5    1    3    3  501    0 -0.25163695165E+03  0.24656218650E+03 -0.25097184837E+03  0.43257719070E+03  0.47000000000E+01 0. -1.
        -13    1    4    4    0    0 -0.65172750841E+02  0.10516216170E+03 -0.93014864134E+02  0.15478479465E+03  0.00000000000E+00 0.  1.
         14    1    4    4    0    0 -0.84130231136E+01  0.61978725576E+02  0.53418951763E+01  0.62774813628E+02  0.00000000000E+00 0. -1.
         -5    1    5    5    0  502  0.22049937006E+03 -0.18698939553E+03  0.40892635440E+03  0.50082717534E+03  0.47000000000E+01 0.  1.
         13    1    6    6    0    0  0.30494175708E+02 -0.29444475939E+02  0.15656088583E+02  0.45188328417E+02  0.00000000000E+00 0. -1.
        -14    1    6    6    0    0  0.74229179832E+02 -0.19726920230E+03  0.27075729002E+03  0.34312478695E+03  0.00000000000E+00 0.  1.
</event>
<event>
12    1  0.8196217E-002  0.1749129E+03  0.7818608E-02  0.1173484E+00
         21   -1    0    0  501  502  0.00000000000E+00  0.00000000000E+00  0.13417480834E+03  0.13417480834E+03  0.00000000000E+00 0.  1.
         21   -1    0    0  502  503 -0.00000000000E+00 -0.00000000000E+00 -0.24063420691E+03  0.24063420691E+03  0.00000000000E+00 0.  1.
         -6    2    1    2    0  503  0.13308135693E+02  0.19678905549E+02 -0.10196090993E+03  0.20246127072E+03  0.17329216135E+03 0.  0.
        -24    2    3    3    0    0 -0.17142870362E+01  0.45433398568E+02 -0.13125245193E+03  0.16040117646E+03  0.80213457642E+02 0.  0.
          6    2    1    2  501    0 -0.13308135693E+02 -0.19678905549E+02 -0.44984886403E+01  0.17234774454E+03  0.17064332056E+03 0.  0.
         24    2    5    5    0    0  0.39154786702E+02  0.37224574725E+02 -0.11487636027E+02  0.94493377455E+02  0.76669852721E+02 0.  0.
          5    1    5    5  501    0 -0.52462922396E+02 -0.56903480274E+02  0.69891473865E+01  0.77854367089E+02  0.47000000000E+01 0. -1.
        -13    1    6    6    0    0  0.18037076946E+02  0.36160344111E+00 -0.39623955256E+02  0.43537624326E+02  0.00000000000E+00 0.  1.
         14    1    6    6    0    0  0.21117709756E+02  0.36862971284E+02  0.28136319229E+02  0.50955753129E+02  0.00000000000E+00 0. -1.
         -5    1    3    3    0  503  0.15022422730E+02 -0.25754493019E+02  0.29291542005E+02  0.42060094251E+02  0.47000000000E+01 0.  1.
         11    1    4    4    0    0  0.27001791499E+02  0.24616369035E+02 -0.11631015181E+03  0.12191437070E+03  0.00000000000E+00 0. -1.
        -12    1    4    4    0    0 -0.28716078535E+02  0.20817029534E+02 -0.14942300123E+02  0.38486805765E+02  0.00000000000E+00 0.  1.
</event>
<event>
12    1  0.8196217E-002  0.2180324E+03  0.7818608E-02  0.1135768E+00
         21   -1    0    0  503  502  0.00000000000E+00  0.00000000000E+00  0.12631279850E+03  0.12631279850E+03  0.00000000000E+00 0. -1.
         21   -1    0    0  501  503 -0.00000000000E+00 -0.00000000000E+00 -0.46310664606E+03  0.46310664606E+03  0.00000000000E+00 0.  1.
          6    2    1    2  501    0 -0.11291073939E+03  0.70850943182E+02 -0.29797986472E+03  0.36795918922E+03  0.16980363346E+03 0.  0.
         24    2    3    3    0    0 -0.14788723414E+03  0.51187961211E+02 -0.23331653455E+03  0.29171337417E+03  0.78544547739E+02 0.  0.
         -6    2    1    2    0  502  0.11291073939E+03 -0.70850943182E+02 -0.38813982830E+02  0.22146025534E+03  0.17253819348E+03 0.  0.
        -24    2    5    5    0    0  0.77225764138E+02 -0.11031209974E+03 -0.55970814259E+02  0.16536170633E+03  0.77969121300E+02 0.  0.
          5    1    3    3  501    0  0.34976494746E+02  0.19662981971E+02 -0.64663330172E+02  0.76245815057E+02  0.47000000000E+01 0. -1.
        -13    1    4    4    0    0 -0.51796281273E+02 -0.73892929459E+00 -0.27350760763E+02  0.58578706750E+02  0.00000000000E+00 0.  1.
         14    1    4    4    0    0 -0.96090952868E+02  0.51926890506E+02 -0.20596577378E+03  0.23313466742E+03  0.00000000000E+00 0. -1.
         -5    1    5    5    0  502  0.35684975257E+02  0.39461156557E+02  0.17156831429E+02  0.56098549006E+02  0.47000000000E+01 0.  1.
         11    1    6    6    0    0  0.37082781507E+02 -0.53523112849E+02 -0.68707611474E+02  0.94660404434E+02  0.00000000000E+00 0. -1.
        -12    1    6    6    0    0  0.40142982631E+02 -0.56788986891E+02  0.12736797215E+02  0.70701301897E+02  0.00000000000E+00 0.  1.
</event>
<event>
12    1  0.8196217E-002  0.1783826E+03  0.7818608E-02  0.1171043E+00
         21   -1    0    0  503  502  0.00000000000E+00  0.00000000000E+00  0.20623694322E+03  0.20623694322E+03  0.00000000000E+00 0. -1.
         21   -1    0    0  501  503 -0.00000000000E+00 -0.00000000000E+00 -0.21765597467E+03  0.21765597467E+03  0.00000000000E+00 0. -1.
          6    2    1    2  501    0 -0.11204149817E+02  0.24479932660E+02 -0.12502061414E+03  0.21240845899E+03  0.16959480951E+03 0.  0.
         24    2    3    3    0    0  0.35145010526E+02 -0.38812286281E+02 -0.81045724780E+02  0.12235275102E+03  0.75234439231E+02 0.  0.
         -6    2    1    2    0  502  0.11204149817E+02 -0.24479932660E+02  0.11360158269E+03  0.21148445890E+03  0.17633932259E+03 0.  0.
        -24    2    5    5    0    0 -0.35373518498E+02 -0.37490716530E+02  0.45210911666E+01  0.92071715389E+02  0.76157211560E+02 0.  0.
          5    1    3    3  501    0 -0.46349160343E+02  0.63292218940E+02 -0.43974889361E+02  0.90055707966E+02  0.47000000000E+01 0. -1.
        -13    1    4    4    0    0  0.16122854767E+02 -0.10326148694E+02 -0.85674612822E+02  0.87787898226E+02  0.00000000000E+00 0.  1.
         14    1    4    4    0    0  0.19022155759E+02 -0.28486137587E+02  0.46288880420E+01  0.34564852797E+02  0.00000000000E+00 0. -1.
         -5    1    5    5    0  502  0.46577668315E+02  0.13010783870E+02  0.10908049152E+03  0.11941274351E+03  0.47000000000E+01 0.  1.
         11    1    6    6    0    0  0.14796095344E+02  0.16784543884E+01  0.21540374907E+02  0.26186435376E+02  0.00000000000E+00 0. -1.
        -12    1    6    6    0    0 -0.50169613842E+02 -0.39169170918E+02 -0.17019283740E+02  0.65885280014E+02  0.00000000000E+00 0.  1.
</event>
<event>
12    1  0.8196217E-002  0.3570131E+03  0.7818608E-02  0.1059796E+00
         21   -1    0    0  501  502  0.00000000000E+00  0.00000000000E+00  0.10404915737E+04  0.10404915737E+04  0.00000000000E+00 0.  1.
         21   -1    0    0  502  503 -0.00000000000E+00 -0.00000000000E+00 -0.13022091930E+03  0.13022091930E+03  0.00000000000E+00 0. -1.
         -6    2    1    2    0  503  0.12712297460E+03 -0.28590496611E+03  0.31172298371E+03  0.47377800023E+03  0.17144233612E+03 0.  0.
        -24    2    3    3    0    0  0.51597519328E+02 -0.19996696100E+03  0.12075140576E+03  0.25110858451E+03  0.76325157894E+02 0.  0.
          6    2    1    2  501    0 -0.12712297460E+03  0.28590496611E+03  0.59854767065E+03  0.69693449272E+03  0.17191996040E+03 0.  0.
         24    2    5    5    0    0 -0.62365155758E+01  0.17300418557E+03  0.29369117504E+03  0.35006319795E+03  0.79500905077E+02 0.  0.
          5    1    5    5  501    0 -0.12088645903E+03  0.11290078054E+03  0.30485649561E+03  0.34687129477E+03  0.47000000000E+01 0. -1.
        -13    1    6    6    0    0 -0.38902912343E+02  0.90152221504E+02  0.18592642759E+03  0.21026054339E+03  0.00000000000E+00 0.  1.
         14    1    6    6    0    0  0.32666396767E+02  0.82851964071E+02  0.10776474746E+03  0.13980265456E+03  0.00000000000E+00 0. -1.
         -5    1    3    3    0  503  0.75525455273E+02 -0.85938005114E+02  0.19097157795E+03  0.22266941573E+03  0.47000000000E+01 0.  1.
         13    1    4    4    0    0  0.55151400195E+01 -0.39771383469E+02 -0.74266313921E+01  0.40833008294E+02  0.00000000000E+00 0. -1.
        -14    1    4    4    0    0  0.46082379309E+02 -0.16019557753E+03  0.12817803716E+03  0.21027557621E+03  0.00000000000E+00 0.  1.
</event>
<event>
12    1  0.8196217E-002  0.2071500E+03  0.7818608E-02  0.1144063E+00
         21   -1    0    0  501  502  0.00000000000E+00  0.00000000000E+00  0.28592193110E+03  0.28592193110E+03  0.00000000000E+00 0.  1.
         21   -1    0    0  502  503 -0.00000000000E+00 -0.00000000000E+00 -0.15254582583E+03  0.15254582583E+03  0.00000000000E+00 0. -1.
         -6    2    1    2    0  503 -0.63664746391E+02  0.97848574743E+02  0.34836110699E+02  0.21005873491E+03  0.17112444008E+03 0.  0.
        -24    2    3    3    0    0 -0.41989130910E+02  0.11816922348E+03 -0.17937374478E+02  0.14931425525E+03  0.79031290798E+02 0.  0.
          6    2    1    2  501    0  0.63664746391E+02 -0.97848574743E+02  0.98539994572E+02  0.22840902201E+03  0.16980284831E+03 0.  0.
         24    2    5    5    0    0  0.28324433838E+02 -0.13036623572E+03  0.84622181145E+02  0.17818819468E+03  0.82416565168E+02 0.  0.
          5    1    5    5  501    0  0.35340312553E+02  0.32517660978E+02  0.13917813427E+02  0.50220827327E+02  0.47000000000E+01 0. -1.
        -11    1    6    6    0    0 -0.14074504054E+02 -0.62884748528E+02  0.73453062400E+02  0.97713538661E+02  0.00000000000E+00 0.  1.
         12    1    6    6    0    0  0.42398937892E+02 -0.67481487193E+02  0.11169118745E+02  0.80474656021E+02  0.00000000000E+00 0. -1.
         -5    1    3    3    0  503 -0.21675615481E+02 -0.20320648740E+02  0.52773485177E+02  0.60744479662E+02  0.47000000000E+01 0.  1.
         13    1    4    4    0    0  0.15326724998E+02  0.46391817915E+02 -0.28968740013E+02  0.56800503225E+02  0.00000000000E+00 0. -1.
        -14    1    4    4    0    0 -0.57315855909E+02  0.71777405568E+02  0.11031365535E+02  0.92513752028E+02  0.00000000000E+00 0.  1.
</event>
<event>
12    1  0.8196217E-002  0.1868391E+03  0.7818608E-02  0.1161580E+00
         21   -1    0    0  503  502  0.00000000000E+00  0.00000000000E+00  0.47943835282E+03  0.47943835282E+03  0.00000000000E+00 0. -1.
         21   -1    0    0  501  503 -0.00000000000E+00 -0.00000000000E+00 -0.87332454994E+02  0.87332454994E+02  0.00000000000E+00 0.  1.
          6    2    1    2  501    0  0.37481558753E+02  0.60422757877E+02  0.78476764817E+02  0.20170629981E+03  0.17167134837E+03 0.  0.
         24    2    3    3    0    0  0.79897479455E+02  0.50399053421E+02  0.94005863185E+02  0.15520008650E+03  0.79537995504E+02 0.  0.
         -6    2    1    2    0  502 -0.37481558753E+02 -0.60422757877E+02  0.31362913301E+03  0.36506450801E+03  0.17278045322E+03 0.  0.
        -24    2    5    5    0    0 -0.40818920124E+02 -0.10401947940E+03  0.17687068586E+03  0.22140945249E+03  0.72475304760E+02 0.  0.
          5    1    3    3  501    0 -0.42415920701E+02  0.10023704456E+02 -0.15529098368E+02  0.46506213306E+02  0.47000000000E+01 0. -1.
        -13    1    4    4    0    0  0.80564224754E+02  0.78613949140E+01  0.61324376815E+02  0.10155331128E+03  0.00000000000E+00 0.  1.
         14    1    4    4    0    0 -0.66674529925E+00  0.42537658507E+02  0.32681486370E+02  0.53646775224E+02  0.00000000000E+00 0. -1.
         -5    1    5    5    0  502  0.33373613706E+01  0.43596721522E+02  0.13675844715E+03  0.14365505551E+03  0.47000000000E+01 0.  1.
         13    1    6    6    0    0 -0.18925645194E+02 -0.18218058332E+02  0.10237247861E+03  0.10568917671E+03  0.00000000000E+00 0. -1.
        -14    1    6    6    0    0 -0.21893274930E+02 -0.85801421067E+02  0.74498207250E+02  0.11572027578E+03  0.00000000000E+00 0.  1.
</event>
<event>
12    1  0.8196217E-002  0.1998884E+03  0.7818608E-02  0.1150159E+00
         21   -1    0    0  503  502  0.00000000000E+00  0.00000000000E+00  0.15218649227E+03  0.15218649227E+03  0.00000000000E+00 0.  1.
         21   -1    0    0  501  503 -0.00000000000E+00 -0.00000000000E+00 -0.26060184797E+03  0.26060184797E+03  0.00000000000E+00 0. -1.
          6    2    1    2  501    0  0.28196311592E+02  0.96106350392E+02 -0.57877726608E+02  0.20809900565E+03  0.17298526626E+03 0.  0.
         24    2    3    3    0    0 -0.34769050738E+02  0.41571479825E+02  0.48956625856E+01  0.10368982333E+03  0.88264019433E+02 0.  0.
         -6    2    1    2    0  502 -0.28196311592E+02 -0.96106350392E+02 -0.50537629095E+02  0.20468933459E+03  0.17120808732E+03 0.  0.
        -24    2    5    5    0    0 -0.10266584419E+02  0.11072946305E+02  0.69184347921E+01  0.81676465200E+02  0.79969790122E+02 0.  0.
          5    1    3    3  501    0  0.62965362330E+02  0.54534870567E+02 -0.62773389194E+02  0.10440918232E+03  0.47000000000E+01 0. -1.
        -13    1    4    4    0    0 -0.18523515586E+02  0.67413917374E+02 -0.83613950096E+01  0.70410722279E+02  0.00000000000E+00 0.  1.
         14    1    4    4    0    0 -0.16245535151E+02 -0.25842437549E+02  0.13257057595E+02  0.33279101053E+02  0.00000000000E+00 0. -1.
         -5    1    5    5    0  502 -0.17929727173E+02 -0.10717929670E+03 -0.57456063887E+02  0.12301286939E+03  0.47000000000E+01 0.  1.
         11    1    6    6    0    0 -0.68938584906E+01  0.32632841702E+02 -0.25925390226E+02  0.42243975911E+02  0.00000000000E+00 0. -1.
        -12    1    6    6    0    0 -0.33727259284E+01 -0.21559895397E+02  0.32843825018E+02  0.39432489289E+02  0.00000000000E+00 0.  1.
</event>
<event>
12    1  0.8196217E-002  0.2107760E+03  0.7818608E-02  0.1140983E+00
         21   -1    0    0  503  502  0.00000000000E+00  0.00000000000E+00  0.19614376571E+03  0.19614376571E+03  0.00000000000E+00 0.  1.
         21   -1    0    0  501  503 -0.00000000000E+00 -0.00000000000E+00 -0.28325371168E+03  0.28325371168E+03  0.00000000000E+00 0.  1.
          6    2    1    2  501    0 -0.16584946991E+02  0.12088084538E+03 -0.15099354817E+03  0.25915298315E+03  0.17167987022E+03 0.  0.
         24    2    3    3    0    0 -0.74969609031E+02  0.65085266879E+02 -0.79221972888E+02  0.15100879995E+03  0.81676204798E+02 0.  0.
         -6    2    1    2    0  502  0.16584946991E+02 -0.12088084538E+03  0.63883602200E+02  0.22024449424E+03  0.17186996063E+03 0.  0.
        -24    2    5    5    0    0 -0.35608852681E+02 -0.12682146505E+03  0.65501611897E+02  0.16747905440E+03  0.80044350924E+02 0.  0.
          5    1    3    3  501    0  0.58384662040E+02  0.55795578500E+02 -0.71771575278E+02  0.10814418320E+03  0.47000000000E+01 0. -1.
        -13    1    4    4    0    0 -0.81191126891E+02  0.78934139331E+02 -0.72071396888E+02  0.13422698569E+03  0.00000000000E+00 0.  1.
         14    1    4    4    0    0  0.62215178599E+01 -0.13848872452E+02 -0.71505759999E+01  0.16781814258E+02  0.00000000000E+00 0. -1.
         -5    1    5    5    0  502  0.52193799672E+02  0.59406196706E+01 -0.16180096968E+01  0.52765439842E+02  0.47000000000E+01 0.  1.
         11    1    6    6    0    0  0.40670636253E+00 -0.10689161010E+03  0.67236567392E+02  0.12628039323E+03  0.00000000000E+00 0. -1.
        -12    1    6    6    0    0 -0.36015559044E+02 -0.19929854950E+02 -0.17349554948E+01  0.41198661169E+02  0.00000000000E+00 0.  1.
</event>
<event>
12    1  0.8196217E-002  0.2380739E+03  0.7818608E-02  0.1122399E+00
         21   -1    0    0  501  502  0.00000000000E+00  0.00000000000E+00  0.16522133484E+03  0.16522133484E+03  0.00000000000E+00 0. -1.
         21   -1    0    0  502  503 -0.00000000000E+00 -0.00000000000E+00 -0.33340093758E+03  0.33340093758E+03  0.00000000000E+00 0. -1.
         -6    2    1    2    0  503 -0.12769883305E+03 -0.80814993197E+02 -0.98494165083E+02  0.25055930043E+03  0.17389884240E+03 0.  0.
        -24    2    3    3    0    0 -0.16204567968E+02 -0.78629489307E+02 -0.60651837670E+02  0.13270396828E+03  0.86524639105E+02 0.  0.
          6    2    1    2  501    0  0.12769883305E+03  0.80814993197E+02 -0.69685437659E+02  0.24806297199E+03  0.18395956828E+03 0.  0.
         24    2    5    5    0    0  0.97289913765E+02 -0.23530433182E+02 -0.50540565770E+02  0.13760353826E+03  0.79758236869E+02 0.  0.
          5    1    5    5  501    0  0.30408919280E+02  0.10434542638E+03 -0.19144871889E+02  0.11045943372E+03  0.47000000000E+01 0. -1.
        -11    1    6    6    0    0  0.91952565921E+02 -0.18746612400E+02 -0.76910482483E+01  0.94158706868E+02  0.00000000000E+00 0.  1.
         12    1    6    6    0    0  0.53373478444E+01 -0.47838207822E+01 -0.42849517521E+02  0.43444831397E+02  0.00000000000E+00 0. -1.
         -5    1    3    3    0  503 -0.11149426508E+03 -0.21855038902E+01 -0.37842327413E+02  0.11785533215E+03  0.47000000000E+01 0.  1.
         13    1    4    4    0    0 -0.19541810509E+02 -0.61513995925E+02  0.50373139547E+01  0.64739698675E+02  0.00000000000E+00 0. -1.
        -14    1    4    4    0    0  0.33372425412E+01 -0.17115493383E+02 -0.65689151625E+02  0.67964269603E+02  0.00000000000E+00 0.  1.
</event>
<event>
12    1  0.8196217E-002  0.1876071E+03  0.7818608E-02  0.1161068E+00
         21   -1    0    0  501  502  0.00000000000E+00  0.00000000000E+00  0.27644177104E+03  0.27644177104E+03  0.00000000000E+00 0. -1.
         21   -1    0    0  502  503 -0.00000000000E+00 -0.00000000000E+00 -0.12639801055E+03  0.12639801055E+03  0.00000000000E+00 0. -1.
         -6    2    1    2    0  503 -0.74375072415E+02 -0.37124749850E+01  0.64907631140E+02  0.19851811387E+03  0.17219467787E+03 0.  0.
        -24    2    3    3    0    0 -0.84801634012E+01 -0.45122637366E+01 -0.28013449020E+02  0.84504097919E+02  0.79144902196E+02 0.  0.
          6    2    1    2  501    0  0.74375072415E+02  0.37124749850E+01  0.85136129349E+02  0.20432166771E+03  0.17015801335E+03 0.  0.
         24    2    5    5    0    0  0.10574940113E+03 -0.30040525813E+02  0.76827428065E+02  0.15726066387E+03  0.82116342268E+02 0.  0.
          5    1    5    5  501    0 -0.31374328714E+02  0.33753000798E+02  0.83087012847E+01  0.47061003837E+02  0.47000000000E+01 0. -1.
        -13    1    6    6    0    0 -0.27849975113E+01 -0.42602751408E+01  0.39203611231E+02  0.39532635745E+02  0.00000000000E+00 0.  1.
         14    1    6    6    0    0  0.10853439864E+03 -0.25780250672E+02  0.37623816834E+02  0.11772802813E+03  0.00000000000E+00 0. -1.
         -5    1    3    3    0  503 -0.65894909014E+02  0.79978875159E+00  0.92921080160E+02  0.11401401595E+03  0.47000000000E+01 0.  1.
         13    1    4    4    0    0 -0.43875649450E+02 -0.58312637710E+01 -0.16957331360E+02  0.47398600598E+02  0.00000000000E+00 0. -1.
        -14    1    4    4    0    0  0.35395486048E+02  0.13190000345E+01 -0.11056117660E+02  0.37105497321E+02  0.00000000000E+00 0.  1.
</event>
<event>
12    1  0.8196217E-002  0.2988123E+03  0.7818608E-02  0.1086495E+00
         21   -1    0    0  501  502  0.00000000000E+00  0.00000000000E+00  0.11438936877E+03  0.11438936877E+03  0.00000000000E+00 0. -1.
         21   -1    0    0  502  503 -0.00000000000E+00 -0.00000000000E+00 -0.79674498759E+03  0.79674498759E+03  0.00000000000E+00 0. -1.
         -6    2    1    2    0  503 -0.17412560324E+03 -0.16188908036E+03 -0.42625046009E+03  0.51758812810E+03  0.17227946938E+03 0.  0.
        -24    2    3    3    0    0 -0.19237188786E+03 -0.12320612111E+03 -0.39881451379E+03  0.46655755502E+03  0.80226206565E+02 0.  0.
          6    2    1    2  501    0  0.17412560324E+03  0.16188908036E+03 -0.25610515872E+03  0.39354622826E+03  0.18099994866E+03 0.  0.
         24    2    5    5    0    0  0.14384374834E+03  0.37493561765E+02 -0.17261281570E+03  0.24062697792E+03  0.77520108672E+02 0.  0.
          5    1    5    5  501    0  0.30281854900E+02  0.12439551860E+03 -0.83492343016E+02  0.15291925034E+03  0.47000000000E+01 0. -1.
        -13    1    6    6    0    0  0.75962827303E+02  0.29024695008E+02 -0.14620760799E+03  0.16730047426E+03  0.00000000000E+00 0.  1.
         14    1    6    6    0    0  0.67880921039E+02  0.84688667565E+01 -0.26405207708E+02  0.73326503662E+02  0.00000000000E+00 0. -1.
         -5    1    3    3    0  503  0.18246284614E+02 -0.38682959254E+02 -0.27435946301E+02  0.51030573075E+02  0.47000000000E+01 0.  1.
         13    1    4    4    0    0 -0.13132188453E+03 -0.97408226362E+02 -0.34273632232E+03  0.37973936662E+03  0.00000000000E+00 0. -1.
        -14    1    4    4    0    0 -0.61050003322E+02 -0.25797894743E+02 -0.56078191470E+02  0.86818188401E+02  0.00000000000E+00 0.  1.
</event>
<event>
12    1  0.8196217E-002  0.2265658E+03  0.7818608E-02  0.1129081E+00
         21   -1    0    0  501  502  0.00000000000E+00  0.00000000000E+00  0.68101334437E+02  0.68101334437E+02  0.00000000000E+00 0.  1.
         21   -1    0    0  502  503 -0.00000000000E+00 -0.00000000000E+00 -0.75916962706E+03  0.75916962706E+03  0.00000000000E+00 0.  1.
         -6    2    1    2    0  503 -0.86965884502E+02 -0.11945278107E+03 -0.31056792077E+03  0.38442747093E+03  0.17175568410E+03 0.  0.
        -24    2    3    3    0    0 -0.20437290024E+02 -0.13396623986E+03 -0.19411898152E+03  0.24944917704E+03  0.78600742326E+02 0.  0.
          6    2    1    2  501    0  0.86965884502E+02  0.11945278107E+03 -0.38050037185E+03  0.44284349057E+03  0.17174921305E+03 0.  0.
         24    2    5    5    0    0  0.29422083359E+02  0.81074926542E+02 -0.10036334066E+03  0.15425555767E+03  0.79266476020E+02 0.  0.
          5    1    5    5  501    0  0.57543801144E+02  0.38377854532E+02 -0.28013703119E+03  0.28858793289E+03  0.47000000000E+01 0. -1.
        -11    1    6    6    0    0  0.35090173726E+02  0.53856348474E+02 -0.10776959002E+03  0.12548350926E+03  0.00000000000E+00 0.  1.
         12    1    6    6    0    0 -0.56680903674E+01  0.27218578068E+02  0.74062493539E+01  0.28772048415E+02  0.00000000000E+00 0. -1.
         -5    1    3    3    0  503 -0.66528594478E+02  0.14513458784E+02 -0.11644893925E+03  0.13497829389E+03  0.47000000000E+01 0.  1.
         13    1    4    4    0    0  0.24228510700E+02 -0.16665224169E+02 -0.52802378834E+02  0.60438742855E+02  0.00000000000E+00 0. -1.
        -14    1    4    4    0    0 -0.44665800724E+02 -0.11730101569E+03 -0.14131660268E+03  0.18901043418E+03  0.00000000000E+00 0.  1.
</event>
<event>
12    1  0.8196217E-002  0.1791745E+03  0.7818608E-02  0.1168939E+00
         21   -1    0    0  501  502  0.00000000000E+00  0.00000000000E+00  0.19478840424E+03  0.19478840424E+03  0.00000000000E+00 0. -1.
         21   -1    0    0  502  503 -0.00000000000E+00 -0.00000000000E+00 -0.17431989114E+03  0.17431989114E+03  0.00000000000E+00 0. -1.
         -6    2    1    2    0  503 -0.28920069087E+01  0.44425564794E+02 -0.35660841511E+02  0.18134776491E+03  0.17214331735E+03 0.  0.
        -24    2    3    3    0    0 -0.61608421769E+02  0.30596639827E+01 -0.96852171311E+01  0.10482601515E+03  0.84200539461E+02 0.  0.
          6    2    1    2  501    0  0.28920069087E+01 -0.44425564794E+02  0.56129354617E+02  0.18776053047E+03  0.17355551803E+03 0.  0.
         24    2    5    5    0    0  0.53046597362E+02  0.13731676256E+02  0.43710677028E+02  0.10982426687E+03  0.84547299679E+02 0.  0.
          5    1    5    5  501    0 -0.50154590454E+02 -0.58157241050E+02  0.12418677589E+02  0.77936263595E+02  0.47000000000E+01 0. -1.
        -13    1    6    6    0    0  0.33600155504E+02 -0.79728635855E+01  0.65088450788E+02  0.73682042789E+02  0.00000000000E+00 0.  1.
         14    1    6    6    0    0  0.19446441858E+02  0.21704539841E+02 -0.21377773760E+02  0.36142224082E+02  0.00000000000E+00 0. -1.
         -5    1    3    3    0  503  0.58716414860E+02  0.41365900811E+02 -0.25975624380E+02  0.76521749757E+02  0.47000000000E+01 0.  1.
         11    1    4    4    0    0 -0.51151632938E+02 -0.32726796108E+02  0.11704911639E+02  0.61842846735E+02  0.00000000000E+00 0. -1.
        -12    1    4    4    0    0 -0.10456788830E+02  0.35786460091E+02 -0.21390128770E+02  0.42983168419E+02  0.00000000000E+00 0.  1.
</event>
<event>
12    1  0.8196217E-002  0.2034436E+03  0.7818608E-02  0.1148000E+00
         21   -1    0    0  501  502  0.00000000000E+00  0.00000000000E+00  0.53346538834E+03  0.53346538834E+03  0.00000000000E+00 0.  1.
         21   -1    0    0  502  503 -0.00000000000E+00 -0.00000000000E+00 -0.77060443704E+02  0.77060443704E+02  0.00000000000E+00 0.  1.
         -6    2    1    2    0  503  0.39539691939E+01 -0.10937083092E+03  0.26815817736E+03  0.33335054113E+03  0.16503382277E+03 0.  0.
        -24    2    3    3    0    0 -0.42356522945E+02 -0.14732683885E+02  0.14010934793E+03  0.16746011563E+03  0.80007086792E+02 0.  0.
          6    2    1    2  501    0 -0.39539691939E+01  0.10937083092E+03  0.18824676728E+03  0.27717529092E+03  0.17149834977E+03 0.  0.
         24    2    5    5    0    0  0.51526153149E+02  0.11339881438E+03  0.13186239605E+03  0.19783075144E+03  0.78962517445E+02 0.  0.
          5    1    5    5  501    0 -0.55480122343E+02 -0.40279834618E+01  0.56384371228E+02  0.79344539477E+02  0.47000000000E+01 0. -1.
        -11    1    6    6    0    0  0.29665817461E+01  0.85777101699E+02  0.51946826875E+02  0.10032439686E+03  0.00000000000E+00 0.  1.
         12    1    6    6    0    0  0.48559571403E+02  0.27621712683E+02  0.79915569177E+02  0.97506354579E+02  0.00000000000E+00 0. -1.
         -5    1    3    3    0  503  0.46310492139E+02 -0.94638147035E+02  0.12804882942E+03  0.16589042550E+03  0.47000000000E+01 0.  1.
         11    1    4    4    0    0 -0.42666412926E+02 -0.12506986236E+02  0.15044784583E+03  0.15688021485E+03  0.00000000000E+00 0. -1.
        -12    1    4    4    0    0  0.30988998146E+00 -0.22256976487E+01 -0.10338497893E+02  0.10579900780E+02  0.00000000000E+00 0.  1.
</event>
<event>
12    1  0.8196217E-002  0.2870143E+03  0.7818608E-02  0.1092048E+00
         21   -1    0    0  501  502  0.00000000000E+00  0.00000000000E+00  0.88952972024E+03  0.88952972024E+03  0.00000000000E+00 0.  1.
         21   -1    0    0  502  503 -0.00000000000E+00 -0.00000000000E+00 -0.94330262157E+02  0.94330262157E+02  0.00000000000E+00 0.  1.
         -6    2    1    2    0  503 -0.22699824912E+03  0.37723594262E+02  0.32460755294E+03  0.43264865515E+03  0.16989267409E+03 0.  0.
        -24    2    3    3    0    0 -0.57939973474E+02 -0.31389276533E+02  0.12008006355E+03  0.15840264626E+03  0.79560351142E+02 0.  0.
          6    2    1    2  501    0  0.22699824912E+03 -0.37723594262E+02  0.47059190514E+03  0.55121132725E+03  0.17153982463E+03 0.  0.
         24    2    5    5    0    0  0.20149091245E+03 -0.40016037610E+02  0.47625789651E+03  0.52456413268E+03  0.78396901915E+02 0.  0.
          5    1    5    5  501    0  0.25507336664E+02  0.22924433475E+01 -0.56659913737E+01  0.26647194570E+02  0.47000000000E+01 0. -1.
        -13    1    6    6    0    0  0.16651666184E+03 -0.27731304509E+02  0.44545094625E+03  0.47636474411E+03  0.00000000000E+00 0.  1.
         14    1    6    6    0    0  0.34974250610E+02 -0.12284733100E+02  0.30806950269E+02  0.48199388564E+02  0.00000000000E+00 0. -1.
         -5    1    3    3    0  503 -0.16905827564E+03  0.69112870795E+02  0.20452748939E+03  0.27424600889E+03  0.47000000000E+01 0.  1.
         11    1    4    4    0    0 -0.36956051842E+01  0.23715178195E+02  0.42865520842E+02  0.49127589515E+02  0.00000000000E+00 0. -1.
        -12    1    4    4    0    0 -0.54244368290E+02 -0.55104454727E+02  0.77214542709E+02  0.10927505675E+03  0.00000000000E+00 0.  1.
</event>
<event>
12    1  0.8196217E-002  0.2633894E+03  0.7818608E-02  0.1105170E+00
         21   -1    0    0  501  502  0.00000000000E+00  0.00000000000E+00  0.98523604602E+02  0.98523604602E+02  0.00000000000E+00 0. -1.
         21   -1    0    0  502  503 -0.00000000000E+00 -0.00000000000E+00 -0.84128261046E+03  0.84128261046E+03  0.00000000000E+00 0.  1.
         -6    2    1    2    0  503  0.12319391743E+03  0.15569616813E+03 -0.56187648157E+03  0.62054745478E+03  0.17307780050E+03 0.  0.
        -24    2    3    3    0    0  0.11516501345E+03  0.17557536993E+03 -0.41660449469E+03  0.47362677504E+03  0.81690428981E+02 0.  0.
          6    2    1    2  501    0 -0.12319391743E+03 -0.15569616813E+03 -0.18088252428E+03  0.31925876028E+03  0.17259672755E+03 0.  0.
         24    2    5    5    0    0 -0.73270532850E+02 -0.17705596024E+03 -0.15264769859E+03  0.25787569724E+03  0.80505722148E+02 0.  0.
          5    1    5    5  501    0 -0.49923384581E+02  0.21359792107E+02 -0.28234825691E+02  0.61383063044E+02  0.47000000000E+01 0. -1.
        -11    1    6    6    0    0  0.12569221397E+02 -0.58730079037E+02 -0.30410547045E+02  0.67320196686E+02  0.00000000000E+00 0.  1.
         12    1    6    6    0    0 -0.85839754246E+02 -0.11832588120E+03 -0.12223715155E+03  0.19055550055E+03  0.00000000000E+00 0. -1.
         -5    1    3    3    0  503  0.80289039801E+01 -0.19879201797E+02 -0.14527198688E+03  0.14692067974E+03  0.47000000000E+01 0.  1.
         11    1    4    4    0    0  0.71430210584E+02  0.38847739670E+02 -0.16515065660E+03  0.18408194163E+03  0.00000000000E+00 0. -1.
        -12    1    4    4    0    0  0.43734802866E+02  0.13672763026E+03 -0.25145383809E+03  0.28954483340E+03  0.00000000000E+00 0.  1.
</event>
<event>
12    1  0.8196217E-002  0.1910628E+03  0.7818608E-02  0.1158197E+00
         21   -1    0    0  501  502  0.00000000000E+00  0.00000000000E+00  0.89484482723E+02  0.89484482723E+02  0.00000000000E+00 0. -1.
         21   -1    0    0  502  503 -0.00000000000E+00 -0.00000000000E+00 -0.45866918029E+03  0.45866918029E+03  0.00000000000E+00 0. -1.
         -6    2    1    2    0  503  0.75916072078E+02  0.40496684486E+01 -0.28270493940E+03  0.34121411530E+03  0.17528645100E+03 0.  0.
        -24    2    3    3    0    0  0.44798152371E+02 -0.64701279026E+02 -0.13412663007E+03  0.17450292279E+03  0.79171883925E+02 0.  0.
          6    2    1    2  501    0 -0.75916072078E+02 -0.40496684486E+01 -0.86479758170E+02  0.20693954772E+03  0.17194643940E+03 0.  0.
         24    2    5    5    0    0 -0.31653249398E+01  0.18549427172E+02 -0.10025575664E+03  0.12938145036E+03  0.79587954037E+02 0.  0.
          5    1    5    5  501    0 -0.72750747138E+02 -0.22599095620E+02  0.13775998466E+02  0.77558097357E+02  0.47000000000E+01 0. -1.
        -13    1    6    6    0    0 -0.31177691870E+02 -0.14599088876E+02 -0.64651219226E+02  0.73245901003E+02  0.00000000000E+00 0.  1.
         14    1    6    6    0    0  0.28012366930E+02  0.33148516048E+02 -0.35604537410E+02  0.56135549355E+02  0.00000000000E+00 0. -1.
         -5    1    3    3    0  503  0.31117919707E+02  0.68750947474E+02 -0.14857830933E+03  0.16671119251E+03  0.47000000000E+01 0.  1.
         13    1    4    4    0    0  0.59132480560E+02 -0.17120441010E+02 -0.67053472469E+02  0.91027072499E+02  0.00000000000E+00 0. -1.
        -14    1    4    4    0    0 -0.14334328189E+02 -0.47580838015E+02 -0.67073157601E+02  0.83475850289E+02  0.00000000000E+00 0.  1.
</event>
<event>
12    1  0.8196217E-002  0.2170224E+03  0.7818608E-02  0.1136891E+00
         21   -1    0    0  501  502  0.00000000000E+00  0.00000000000E+00  0.75079562719E+03  0.75079562719E+03  0.00000000000E+00 0.  1.
         21   -1    0    0  502  503 -0.00000000000E+00 -0.00000000000E+00 -0.63218409912E+02  0.63218409912E+02  0.00000000000E+00 0.  1.
         -6    2    1    2    0  503 -0.10568674092E+03  0.69483373172E+02  0.27511337559E+03  0.34793984951E+03  0.17139761695E+03 0.  0.
        -24    2    3    3    0    0 -0.12239889402E+03  0.92552119634E+02  0.17265272240E+03  0.24148921035E+03  0.70432180574E+02 0.  0.
          6    2    1    2  501    0  0.10568674092E+03 -0.69483373172E+02  0.41246384169E+03  0.46607418759E+03  0.17635504327E+03 0.  0.
         24    2    5    5    0    0  0.11538321465E+03 -0.29786687276E+02  0.39858210467E+03  0.42266173435E+03  0.74664011106E+02 0.  0.
          5    1    5    5  501    0 -0.96964737374E+01 -0.39696685896E+02  0.13881737017E+02  0.43412453244E+02  0.47000000000E+01 0. -1.
        -11    1    6    6    0    0  0.29606243356E+02  0.11865625501E+02  0.37640604571E+02  0.49336982342E+02  0.00000000000E+00 0.  1.
         12    1    6    6    0    0  0.85776971298E+02 -0.41652312778E+02  0.36094150010E+03  0.37332475201E+03  0.00000000000E+00 0. -1.
         -5    1    3    3    0  503  0.16712153101E+02 -0.23068746462E+02  0.10246065319E+03  0.10645063916E+03  0.47000000000E+01 0.  1.
         13    1    4    4    0    0 -0.35772798176E+01  0.36674546603E+02  0.29190021137E+02  0.47009324962E+02  0.00000000000E+00 0. -1.
        -14    1    4    4    0    0 -0.11882161420E+03  0.55877573032E+02  0.14346270126E+03  0.19447988539E+03  0.00000000000E+00 0.  1.
</event>
<event>
12    1  0.8196217E-002  0.2460520E+03  0.7818608E-02  0.1115831E+00
         21   -1    0    0  501  502  0.00000000000E+00  0.00000000000E+00  0.45416104879E+02  0.45416104879E+02  0.00000000000E+00 0.  1.
         21   -1    0    0  502  503 -0.00000000000E+00 -0.00000000000E+00 -0.13472120585E+04  0.13472120585E+04  0.00000000000E+00 0. -1.
         -6    2    1    2    0  503 -0.12246389892E+03  0.12672319966E+03 -0.72269853911E+03  0.76342597855E+03  0.17166790736E+03 0.  0.
        -24    2    3    3    0    0 -0.17623156355E+02  0.30207468000E+02 -0.41226460307E+03  0.42181481596E+03  0.82113149093E+02 0.  0.
          6    2    1    2  501    0  0.12246389892E+03 -0.12672319966E+03 -0.57909741453E+03  0.62920218485E+03  0.17171312715E+03 0.  0.
         24    2    5    5    0    0  0.60667115905E+02 -0.51127452566E+02 -0.14034482797E+03  0.17969191625E+03  0.79359931123E+02 0.  0.
          5    1    5    5  501    0  0.61796783015E+02 -0.75595747098E+02 -0.43875258656E+03  0.44951026860E+03  0.47000000000E+01 0. -1.
        -13    1    6    6    0    0  0.63292276552E+00 -0.52142641439E+02 -0.63265795666E+02  0.81986685192E+02  0.00000000000E+00 0.  1.
         14    1    6    6    0    0  0.60034193139E+02  0.10151888727E+01 -0.77079032305E+02  0.97705231055E+02  0.00000000000E+00 0. -1.
         -5    1    3    3    0  503 -0.10484074257E+03  0.96515731665E+02 -0.31043393605E+03  0.34161116260E+03  0.47000000000E+01 0.  1.
         11    1    4    4    0    0  0.29132155741E+02 -0.15585960047E+01 -0.20153995642E+03  0.20364053073E+03  0.00000000000E+00 0. -1.
        -12    1    4    4    0    0 -0.46755312096E+02  0.31766064004E+02 -0.21072464664E+03  0.21817428523E+03  0.00000000000E+00 0.  1.
</event>
<event>
12    1  0.8196217E-002  0.2148330E+03  0.7818608E-02  0.1138071E+00
         21   -1    0    0  503  502  0.00000000000E+00  0.00000000000E+00  0.10371249431E+04  0.10371249431E+04  0.00000000000E+00 0. -1.
         21   -1    0    0  501  503 -0.00000000000E+00 -0.00000000000E+00 -0.65901333318E+02  0.65901333318E+02  0.00000000000E+00 0.  1.
          6    2    1    2  501    0 -0.34712964749E+02 -0.12375157048E+03  0.16807364938E+03  0.27164003880E+03  0.17035292174E+03 0.  0.
         24    2    3    3    0    0 -0.46197367930E+02 -0.14714768800E+03  0.10499462436E+03  0.20322715091E+03  0.80565283062E+02 0.  0.
         -6    2    1    2    0  502  0.34712964749E+02  0.12375157048E+03  0.80314996045E+03  0.83138623767E+03  0.17214463713E+03 0.  0.
        -24    2    5    5    0    0  0.13208230083E+01  0.88954791614E+02  0.25566145050E+03  0.28175762717E+03  0.78165744875E+02 0.  0.
          5    1    3    3  501    0  0.11484403181E+02  0.23396117526E+02  0.63079025017E+02  0.68412887885E+02  0.47000000000E+01 0. -1.
        -11    1    4    4    0    0  0.19199165905E+02 -0.52634752082E+02  0.17227794017E+02  0.58615885090E+02  0.00000000000E+00 0.  1.
         12    1    4    4    0    0 -0.65396533835E+02 -0.94512935921E+02  0.87766830345E+02  0.14461126582E+03  0.00000000000E+00 0. -1.
         -5    1    5    5    0  502  0.33392141740E+02  0.34796778864E+02  0.54748850995E+03  0.54962861049E+03  0.47000000000E+01 0.  1.
         11    1    6    6    0    0  0.14359253288E+02  0.88955929700E+02  0.14773294083E+03  0.17304440872E+03  0.00000000000E+00 0. -1.
        -12    1    6    6    0    0 -0.13038430279E+02 -0.11380862578E-02  0.10792850967E+03  0.10871321845E+03  0.00000000000E+00 0.  1.
</event>
<event>
12    1  0.8196217E-002  0.2048940E+03  0.7818608E-02  0.1145790E+00
         21   -1    0    0  501  502  0.00000000000E+00  0.00000000000E+00  0.11517529380E+03  0.11517529380E+03  0.00000000000E+00 0. -1.
         21   -1    0    0  502  503 -0.00000000000E+00 -0.00000000000E+00 -0.39709106248E+03  0.39709106248E+03  0.00000000000E+00 0.  1.
         -6    2    1    2    0  503 -0.80288079286E+02  0.72299020193E+02 -0.66638753170E+02  0.21545829600E+03  0.17409259001E+03 0.  0.
        -24    2    3    3    0    0  0.18056689032E+01 -0.29393837809E+00  0.11082507068E+02  0.81026880704E+02  0.80244542455E+02 0.  0.
          6    2    1    2  501    0  0.80288079286E+02 -0.72299020193E+02 -0.21527701551E+03  0.29680806028E+03  0.17342868057E+03 0.  0.
         24    2    5    5    0    0  0.21259625642E+02  0.27671260347E+02 -0.88223285820E+02  0.12463618232E+03  0.80827962066E+02 0.  0.
          5    1    5    5  501    0  0.59028453644E+02 -0.99970280540E+02 -0.12705372969E+03  0.17217187795E+03  0.47000000000E+01 0. -1.
        -13    1    6    6    0    0  0.35698373340E+02  0.59244795897E+01 -0.91435380282E+02  0.98335660290E+02  0.00000000000E+00 0.  1.
         14    1    6    6    0    0 -0.14438747698E+02  0.21746780757E+02  0.32120944620E+01  0.26300522033E+02  0.00000000000E+00 0. -1.
         -5    1    3    3    0  503 -0.82093748189E+02  0.72592958571E+02 -0.77721260238E+02  0.13443141530E+03  0.47000000000E+01 0.  1.
         11    1    4    4    0    0 -0.54860237533E+00  0.21236541754E+02  0.39765970248E+02  0.45084632194E+02  0.00000000000E+00 0. -1.
        -12    1    4    4    0    0  0.23542712786E+01 -0.21530480132E+02 -0.28683463181E+02  0.35942248511E+02  0.00000000000E+00 0.  1.
</event>
<event>
12    1  0.8196217E-002  0.2101984E+03  0.7818608E-02  0.1141736E+00
         21   -1    0    0  501  502  0.00000000000E+00  0.00000000000E+00  0.28056190561E+03  0.28056190561E+03  0.00000000000E+00 0. -1.
         21   -1    0    0  502  503 -0.00000000000E+00 -0.00000000000E+00 -0.26207408637E+03  0.26207408637E+03  0.00000000000E+00 0. -1.
         -6    2    1    2    0  503 -0.11877883685E+03 -0.11434420931E+02 -0.16314070116E+03  0.26607944892E+03  0.17304400219E+03 0.  0.
        -24    2    3    3    0    0 -0.98472613262E+01 -0.46464721096E+02 -0.99785292983E+02  0.13520084936E+03  0.77885981475E+02 0.  0.
          6    2    1    2  501    0  0.11877883685E+03  0.11434420931E+02  0.18162852040E+03  0.27655654306E+03  0.17104222877E+03 0.  0.
         24    2    5    5    0    0  0.48714315422E+02  0.53463179708E+02  0.16045456782E+03  0.19202323605E+03  0.76784495416E+02 0.  0.
          5    1    5    5  501    0  0.70064521429E+02 -0.42028758778E+02  0.21173952584E+02  0.84533307018E+02  0.47000000000E+01 0. -1.
        -13    1    6    6    0    0 -0.10629335269E+02  0.19093835791E+02  0.54447957182E+01  0.22521170793E+02  0.00000000000E+00 0.  1.
         14    1    6    6    0    0  0.59343650690E+02  0.34369343917E+02  0.15500977210E+03  0.16950206525E+03  0.00000000000E+00 0. -1.
         -5    1    3    3    0  503 -0.10893157552E+03  0.35030300166E+02 -0.63355408181E+02  0.13087859956E+03  0.47000000000E+01 0.  1.
         13    1    4    4    0    0 -0.39063672771E+02 -0.41877933520E+02 -0.44587332313E+02  0.72579350018E+02  0.00000000000E+00 0. -1.
        -14    1    4    4    0    0  0.29216411445E+02 -0.45867875767E+01 -0.55197960670E+02  0.62621499344E+02  0.00000000000E+00 0.  1.
</event>
<event>
12    1  0.8196217E-002  0.2471066E+03  0.7818608E-02  0.1115671E+00
         21   -1    0    0  503  502  0.00000000000E+00  0.00000000000E+00  0.41413078878E+03  0.41413078878E+03  0.00000000000E+00 0. -1.
         21   -1    0    0  501  503 -0.00000000000E+00 -0.00000000000E+00 -0.15348805963E+03  0.15348805963E+03  0.00000000000E+00 0. -1.
          6    2    1    2  501    0 -0.17313401122E+03 -0.42344694685E+02  0.66456902762E+02  0.25588708930E+03  0.17115263228E+03 0.  0.
         24    2    3    3    0    0 -0.38812104213E+02 -0.49994494881E+02  0.61837195304E+02  0.12118621387E+03  0.82803567297E+02 0.  0.
         -6    2    1    2    0  502  0.17313401122E+03  0.42344694685E+02  0.19418582639E+03  0.31173175911E+03  0.16643345655E+03 0.  0.
        -24    2    5    5    0    0  0.53917656709E+02  0.33613757519E+02  0.24402977258E+02  0.10403709306E+03  0.78684261666E+02 0.  0.
          5    1    3    3  501    0 -0.13432190700E+03  0.76498001957E+01  0.46197074575E+01  0.13470087543E+03  0.47000000000E+01 0. -1.
        -11    1    4    4    0    0 -0.23139048593E+02 -0.37810713318E+02  0.81796060275E+02  0.93035805408E+02  0.00000000000E+00 0.  1.
         12    1    4    4    0    0 -0.15673055620E+02 -0.12183781563E+02 -0.19958864971E+02  0.28150408462E+02  0.00000000000E+00 0. -1.
         -5    1    5    5    0  502  0.11921635451E+03  0.87309371659E+01  0.16978284913E+03  0.20769466605E+03  0.47000000000E+01 0.  1.
         11    1    6    6    0    0  0.32201429658E+02  0.28776442099E+02  0.52640077278E+02  0.68088129859E+02  0.00000000000E+00 0. -1.
        -12    1    6    6    0    0  0.21716227051E+02  0.48373154205E+01 -0.28237100019E+02  0.35948963202E+02  0.00000000000E+00 0.  1.
</event>
<event>
12    1  0.8196217E-002  0.1935085E+03  0.7818608E-02  0.1156886E+00
         21   -1    0    0  501  502  0.00000000000E+00  0.00000000000E+00  0.11036471699E+04  0.11036471699E+04  0.00000000000E+00 0. -1.
         21   -1    0    0  502  503 -0.00000000000E+00 -0.00000000000E+00 -0.64904267741E+02  0.64904267741E+02  0.00000000000E+00 0. -1.
         -6    2    1    2    0  503 -0.62633550891E+02  0.31041502075E+02  0.11278087092E+03  0.22397560494E+03  0.18044115444E+03 0.  0.
        -24    2    3    3    0    0 -0.24817134121E+01  0.24248197140E+02 -0.12175170565E+02  0.85049384066E+02  0.80566922404E+02 0.  0.
          6    2    1    2  501    0  0.62633550891E+02 -0.31041502075E+02  0.92596203126E+03  0.94457583272E+03  0.17300660066E+03 0.  0.
         24    2    5    5    0    0  0.41882968672E+02 -0.64512945414E+02  0.85909855338E+03  0.86683434536E+03  0.86228502792E+02 0.  0.
          5    1    5    5  501    0  0.20750582219E+02  0.33471443339E+02  0.66863477883E+02  0.77741487355E+02  0.47000000000E+01 0. -1.
        -11    1    6    6    0    0  0.28306117330E+02 -0.54949702778E+02  0.25064692329E+03  0.25815612770E+03  0.00000000000E+00 0.  1.
         12    1    6    6    0    0  0.13576851342E+02 -0.95632426366E+01  0.60845163009E+03  0.60867821766E+03  0.00000000000E+00 0. -1.
         -5    1    3    3    0  503 -0.60151837478E+02  0.67933049345E+01  0.12495604148E+03  0.13892622088E+03  0.47000000000E+01 0.  1.
         13    1    4    4    0    0 -0.28136750649E+02  0.43510170940E+02 -0.41589418049E+01  0.51981809407E+02  0.00000000000E+00 0. -1.
        -14    1    4    4    0    0  0.25655037237E+02 -0.19261973800E+02 -0.80162287602E+01  0.33067574659E+02  0.00000000000E+00 0.  1.
</event>
<event>
12    1  0.8196217E-002  0.1832090E+03  0.7818608E-02  0.1164902E+00
         21   -1    0    0  503  502  0.00000000000E+00  0.00000000000E+00  0.29951296185E+02  0.29951296185E+02  0.00000000000E+00 0. -1.
         21   -1    0    0  501  503 -0.00000000000E+00 -0.00000000000E+00 -0.11261382719E+04  0.11261382719E+04  0.00000000000E+00 0. -1.
          6    2    1    2  501    0  0.61270963321E+02 -0.94631885048E+01 -0.60100306599E+03  0.62810033185E+03  0.17164398814E+03 0.  0.
         24    2    3    3    0    0  0.25993406481E+01 -0.63596902401E+02 -0.32760835596E+03  0.34325023836E+03  0.80263121529E+02 0.  0.
         -6    2    1    2    0  502 -0.61270963321E+02  0.94631885048E+01 -0.49518390975E+03  0.52798923625E+03  0.17240025012E+03 0.  0.
        -24    2    5    5    0    0 -0.68715575337E+02 -0.13543152397E+02 -0.15988258989E+03  0.19178427040E+03  0.79457639973E+02 0.  0.
          5    1    3    3  501    0  0.58671622673E+02  0.54133713896E+02 -0.27339471003E+03  0.28485009349E+03  0.47000000000E+01 0. -1.
        -11    1    4    4    0    0  0.25439921133E+02 -0.20268232063E+02 -0.40261958483E+02  0.51759212891E+02  0.00000000000E+00 0.  1.
         12    1    4    4    0    0 -0.22840580485E+02 -0.43328670338E+02 -0.28734639747E+03  0.29149102547E+03  0.00000000000E+00 0. -1.
         -5    1    5    5    0  502  0.74446120156E+01  0.23006340902E+02 -0.33530131985E+03  0.33620496585E+03  0.47000000000E+01 0.  1.
         13    1    6    6    0    0 -0.23986833928E+02  0.26314570283E+02 -0.23064485632E+02  0.42423994490E+02  0.00000000000E+00 0. -1.
        -14    1    6    6    0    0 -0.44728741409E+02 -0.39857722680E+02 -0.13681810426E+03  0.14936027591E+03  0.00000000000E+00 0.  1.
</event>
<event>
12    1  0.8196217E-002  0.2039131E+03  0.7818608E-02  0.1146587E+00
         21   -1    0    0  503  502  0.00000000000E+00  0.00000000000E+00  0.27305275957E+04  0.27305275957E+04  0.00000000000E+00 0.  1.
         21   -1    0    0  501  503 -0.00000000000E+00 -0.00000000000E+00 -0.22022762590E+02  0.22022762590E+02  0.00000000000E+00 0.  1.
          6    2    1    2  501    0  0.86912354142E+01 -0.10502345993E+03  0.58879491398E+03  0.62310513270E+03  0.17457116301E+03 0.  0.
         24    2    3    3    0    0 -0.35382929522E+02 -0.43962256705E+02  0.16277570264E+03  0.19045578163E+03  0.81196327919E+02 0.  0.
         -6    2    1    2    0  502 -0.86912354142E+01  0.10502345993E+03  0.21197099191E+04  0.21294452256E+04  0.17395793410E+03 0.  0.
        -24    2    5    5    0    0 -0.55494673398E+02  0.12451683708E+02  0.11106192703E+04  0.11150261194E+04  0.81076384129E+02 0.  0.
          5    1    3    3  501    0  0.44074164937E+02 -0.61061203221E+02  0.42601921134E+03  0.43264935107E+03  0.47000000000E+01 0. -1.
        -11    1    4    4    0    0  0.95572437851E+01  0.12086231303E+02  0.36061330851E+01  0.15824730383E+02  0.00000000000E+00 0.  1.
         12    1    4    4    0    0 -0.44940173308E+02 -0.56048488008E+02  0.15916956956E+03  0.17463105124E+03  0.00000000000E+00 0. -1.
         -5    1    5    5    0  502  0.46803437984E+02  0.92571776218E+02  0.10090906488E+04  0.10144191062E+04  0.47000000000E+01 0.  1.
         13    1    6    6    0    0 -0.33459276158E+02  0.16654331594E+02  0.16662210355E+03  0.17076245288E+03  0.00000000000E+00 0. -1.
        -14    1    6    6    0    0 -0.22035397240E+02 -0.42026478861E+01  0.94399716678E+03  0.94426366649E+03  0.00000000000E+00 0.  1.
</event>
<event>
12    1  0.8196217E-002  0.2074799E+03  0.7818608E-02  0.1143693E+00
         21   -1    0    0  501  502  0.00000000000E+00  0.00000000000E+00  0.24793381698E+03  0.24793381698E+03  0.00000000000E+00 0. -1.
         21   -1    0    0  502  503 -0.00000000000E+00 -0.00000000000E+00 -0.18956182857E+03  0.18956182857E+03  0.00000000000E+00 0. -1.
         -6    2    1    2    0  503  0.79280554408E+02 -0.83446632952E+02 -0.35149924334E+02  0.21043631212E+03  0.17262438246E+03 0.  0.
        -24    2    3    3    0    0  0.97613012560E+02 -0.11091162007E+03 -0.84160841586E+01  0.16769063690E+03  0.78864640643E+02 0.  0.
          6    2    1    2  501    0 -0.79280554408E+02  0.83446632952E+02  0.93521912743E+02  0.22705933344E+03  0.17193267833E+03 0.  0.
         24    2    5    5    0    0 -0.63911539249E+02  0.43592920441E+02  0.12980874378E+03  0.17081567482E+03  0.79640801348E+02 0.  0.
          5    1    5    5  501    0 -0.15369015160E+02  0.39853712511E+02 -0.36286831039E+02  0.56243658618E+02  0.47000000000E+01 0. -1.
        -11    1    6    6    0    0 -0.55489354930E+02  0.92367764223E+01  0.27600296669E+02  0.62659100899E+02  0.00000000000E+00 0.  1.
         12    1    6    6    0    0 -0.84221843184E+01  0.34356144019E+02  0.10220844711E+03  0.10815657392E+03  0.00000000000E+00 0. -1.
         -5    1    3    3    0  503 -0.18332458152E+02  0.27464987117E+02 -0.26733840176E+02  0.42745675217E+02  0.47000000000E+01 0.  1.
         11    1    4    4    0    0  0.96114475642E+02 -0.79776867849E+02  0.18792670074E+02  0.12631510409E+03  0.00000000000E+00 0. -1.
        -12    1    4    4    0    0  0.14985369181E+01 -0.31134752220E+02 -0.27208754233E+02  0.41375532813E+02  0.00000000000E+00 0.  1.
</event>
<event>
12    1  0.8196217E-002  0.1983394E+03  0.7818608E-02  0.1151464E+00
         21   -1    0    0  501  502  0.00000000000E+00  0.00000000000E+00  0.15057181536E+03  0.15057181536E+03  0.00000000000E+00 0.  1.
         21   -1    0    0  502  503 -0.00000000000E+00 -0.00000000000E+00 -0.26790389307E+03  0.26790389307E+03  0.00000000000E+00 0.  1.
         -6    2    1    2    0  503  0.32944468776E+02 -0.92090320544E+02 -0.96336888119E+02  0.22049788923E+03  0.17254726303E+03 0.  0.
        -24    2    3    3    0    0  0.32204222316E+02 -0.11927308814E+03 -0.32636948187E+02  0.15107726429E+03  0.80597691712E+02 0.  0.
          6    2    1    2  501    0 -0.32944468776E+02  0.92090320544E+02 -0.20995189585E+02  0.19797781920E+03  0.17084628691E+03 0.  0.
         24    2    5    5    0    0 -0.27706761684E+02  0.86506734730E+02 -0.75657384757E+02  0.14258237185E+03  0.79715827148E+02 0.  0.
          5    1    5    5  501    0 -0.52377070918E+01  0.55835858139E+01  0.54662195172E+02  0.55395447350E+02  0.47000000000E+01 0. -1.
        -11    1    6    6    0    0 -0.30533604887E+02  0.77501790381E+01  0.24869184997E+01  0.31599858642E+02  0.00000000000E+00 0.  1.
         12    1    6    6    0    0  0.28268432034E+01  0.78756555692E+02 -0.78144303257E+02  0.11098251321E+03  0.00000000000E+00 0. -1.
         -5    1    3    3    0  503  0.74024645973E+00  0.27182767597E+02 -0.63699939932E+02  0.69420624936E+02  0.47000000000E+01 0.  1.
         13    1    4    4    0    0 -0.10732721149E+02 -0.44704846966E+02  0.20076845300E+02  0.50167662520E+02  0.00000000000E+00 0. -1.
        -14    1    4    4    0    0  0.42936943465E+02 -0.74568241175E+02 -0.52713793487E+02  0.10090960177E+03  0.00000000000E+00 0.  1.
</event>
<event>
12    1  0.8196217E-002  0.1966236E+03  0.7818608E-02  0.1153718E+00
         21   -1    0    0  503  502  0.00000000000E+00  0.00000000000E+00  0.14696044496E+03  0.14696044496E+03  0.00000000000E+00 0.  1.
         21   -1    0    0  501  503 -0.00000000000E+00 -0.00000000000E+00 -0.41063593867E+03  0.41063593867E+03  0.00000000000E+00 0.  1.
          6    2    1    2  501    0  0.62029241233E+02  0.73386508649E+02  0.40090805245E+02  0.19574725300E+03  0.16576039326E+03 0.  0.
         24    2    3    3    0    0  0.11501341321E+02  0.68282955000E+01 -0.24177772498E+02  0.90221879314E+02  0.85886648277E+02 0.  0.
         -6    2    1    2    0  502 -0.62029241233E+02 -0.73386508649E+02 -0.30376629896E+03  0.36184913063E+03  0.17154481204E+03 0.  0.
        -24    2    5    5    0    0 -0.25832877361E+02  0.17411973809E+02 -0.20130385864E+03  0.22016221222E+03  0.83532279989E+02 0.  0.
          5    1    3    3  501    0  0.50527899912E+02  0.66558213149E+02  0.64268577743E+02  0.10552537369E+03  0.47000000000E+01 0. -1.
        -13    1    4    4    0    0 -0.15918735420E+02  0.36795712065E+02  0.47254695014E+01  0.40369055300E+02  0.00000000000E+00 0.  1.
         14    1    4    4    0    0  0.27420076742E+02 -0.29967416565E+02 -0.28903241999E+02  0.49852824014E+02  0.00000000000E+00 0. -1.
         -5    1    5    5    0  502 -0.36196363873E+02 -0.90798482458E+02 -0.10246244031E+03  0.14168691841E+03  0.47000000000E+01 0.  1.
         11    1    6    6    0    0  0.10613450313E+02  0.16049199552E+02 -0.41763896246E+01  0.19689194094E+02  0.00000000000E+00 0. -1.
        -12    1    6    6    0    0 -0.36446327673E+02  0.13627742569E+01 -0.19712746902E+03  0.20047301812E+03  0.00000000000E+00 0.  1.
</event>
<event>
12    1  0.8196217E-002  0.2816684E+03  0.7818608E-02  0.1094784E+00
         21   -1    0    0  501  502  0.00000000000E+00  0.00000000000E+00  0.22245678438E+03  0.22245678438E+03  0.00000000000E+00 0. -1.
         21   -1    0    0  502  503 -0.00000000000E+00 -0.00000000000E+00 -0.59673300654E+03  0.59673300654E+03  0.00000000000E+00 0. -1.
         -6    2    1    2    0  503  0.62186372974E+02  0.21451788870E+03 -0.44696800157E+03  0.52831572814E+03  0.17161598007E+03 0.  0.
        -24    2    3    3    0    0  0.42274560578E+02  0.20169479642E+03 -0.45252912525E+03  0.50353815632E+03  0.79373397916E+02 0.  0.
          6    2    1    2  501    0 -0.62186372974E+02 -0.21451788870E+03  0.72691779419E+02  0.29087406278E+03  0.17157667688E+03 0.  0.
         24    2    5    5    0    0 -0.25527237709E+02 -0.22684038012E+03  0.70373543010E+02  0.25184586511E+03  0.79785376490E+02 0.  0.
          5    1    5    5  501    0 -0.36659135265E+02  0.12322491419E+02  0.23182364091E+01  0.39028197668E+02  0.47000000000E+01 0. -1.
        -11    1    6    6    0    0  0.20770617775E+02 -0.23635193122E+02 -0.11941823606E+01  0.31487568788E+02  0.00000000000E+00 0.  1.
         12    1    6    6    0    0 -0.46297855484E+02 -0.20320518700E+03  0.71567725371E+02  0.22035829633E+03  0.00000000000E+00 0. -1.
         -5    1    3    3    0  503  0.19911812397E+02  0.12823092281E+02  0.55611236799E+01  0.24777571817E+02  0.47000000000E+01 0.  1.
         13    1    4    4    0    0  0.47843544260E+02  0.16726692518E+03 -0.29750556456E+03  0.34464008753E+03  0.00000000000E+00 0. -1.
        -14    1    4    4    0    0 -0.55689836824E+01  0.34427871240E+02 -0.15502356069E+03  0.15889806880E+03  0.00000000000E+00 0.  1.
</event>
<event>
12    1  0.8196217E-002  0.1935964E+03  0.7818608E-02  0.1156194E+00
         21   -1    0    0  501  502  0.00000000000E+00  0.00000000000E+00  0.76861236468E+02  0.76861236468E+02  0.00000000000E+00 0.  1.
         21   -1    0    0  502  503 -0.00000000000E+00 -0.00000000000E+00 -0.50293071836E+03  0.50293071836E+03  0.00000000000E+00 0.  1.
         -6    2    1    2    0  503  0.69816233395E+02 -0.56311686870E+02 -0.27653089620E+03  0.33516703036E+03  0.16680014737E+03 0.  0.
        -24    2    3    3    0    0  0.80718069620E+02  0.13958687533E+02 -0.20224541196E+03  0.23222433407E+03  0.79464979402E+02 0.  0.
          6    2    1    2  501    0 -0.69816233395E+02  0.56311686870E+02 -0.14953858569E+03  0.24462492446E+03  0.17156413535E+03 0.  0.
         24    2    5    5    0    0 -0.35379813420E+02  0.86581084735E+02 -0.15293086170E+03  0.19841127925E+03  0.85036297194E+02 0.  0.
          5    1    5    5  501    0 -0.34436419974E+02 -0.30269397865E+02  0.33922760149E+01  0.46213645217E+02  0.47000000000E+01 0. -1.
        -13    1    6    6    0    0 -0.24265843014E+02  0.83427096421E+02 -0.61971125621E+02  0.10672081318E+03  0.00000000000E+00 0.  1.
         14    1    6    6    0    0 -0.11113970407E+02  0.31539883139E+01 -0.90959736080E+02  0.91690466070E+02  0.00000000000E+00 0. -1.
         -5    1    3    3    0  503 -0.10901836226E+02 -0.70270374403E+02 -0.74285484241E+02  0.10294269630E+03  0.47000000000E+01 0.  1.
         13    1    4    4    0    0  0.44161671196E+02  0.43038927161E+02 -0.77629193025E+02  0.99140779015E+02  0.00000000000E+00 0. -1.
        -14    1    4    4    0    0  0.36556398424E+02 -0.29080239628E+02 -0.12461621894E+03  0.13308355505E+03  0.00000000000E+00 0.  1.
</event>
<event>
12    1  0.8196217E-002  0.1880193E+03  0.7818608E-02  0.1161019E+00
         21   -1    0    0  503  502  0.00000000000E+00  0.00000000000E+00  0.52621291526E+03  0.52621291526E+03  0.00000000000E+00 0.  1.
         21   -1    0    0  501  503 -0.00000000000E+00 -0.00000000000E+00 -0.91006926338E+02  0.91006926338E+02  0.00000000000E+00 0.  1.
          6    2    1    2  501    0  0.78998322422E+00 -0.73504179063E+02  0.37794501840E+03  0.42067445090E+03  0.16947291315E+03 0.  0.
         24    2    3    3    0    0 -0.33658016530E+02 -0.10613414207E+03  0.25148279641E+03  0.28552208221E+03  0.76693835115E+02 0.  0.
         -6    2    1    2    0  502 -0.78998322422E+00  0.73504179063E+02  0.57260970525E+02  0.19654539070E+03  0.17305427891E+03 0.  0.
        -24    2    5    5    0    0 -0.23712662009E+02  0.48257386834E+02  0.10190342148E+03  0.14017263001E+03  0.79831028868E+02 0.  0.
          5    1    3    3  501    0  0.34447999754E+02  0.32629963011E+02  0.12646222199E+03  0.13515236869E+03  0.47000000000E+01 0. -1.
        -13    1    4    4    0    0 -0.46950246980E+02 -0.27635684526E+02  0.12045285436E+03  0.13220040422E+03  0.00000000000E+00 0.  1.
         14    1    4    4    0    0  0.13292230450E+02 -0.78498457549E+02  0.13102994205E+03  0.15332167799E+03  0.00000000000E+00 0. -1.
         -5    1    5    5    0  502  0.22922678784E+02  0.25246792230E+02 -0.44642450959E+02  0.56372760693E+02  0.47000000000E+01 0.  1.
         13    1    6    6    0    0  0.19906297635E+01 -0.11636619916E+00  0.81796086777E+02  0.81820388412E+02  0.00000000000E+00 0. -1.
        -14    1    6    6    0    0 -0.25703291772E+02  0.48373753033E+02  0.20107334707E+02  0.58352241597E+02  0.00000000000E+00 0.  1.
</event>
<event>
12    1  0.8196217E-002  0.2813265E+03  0.7818608E-02  0.1094967E+00
         21   -1    0    0  501  502  0.00000000000E+00  0.00000000000E+00  0.70317979628E+03  0.70317979628E+03  0.00000000000E+00 0. -1.
         21   -1    0    0  502  503 -0.00000000000E+00 -0.00000000000E+00 -0.29219086064E+03  0.29219086064E+03  0.00000000000E+00 0. -1.
         -6    2    1    2    0  503 -0.90305589556E+02  0.20302237587E+03 -0.18473605255E+03  0.33655893198E+03  0.17254367845E+03 0.  0.
        -24    2    3    3    0    0 -0.55714827960E+02  0.14925784398E+03 -0.20445112235E+03  0.26949240042E+03  0.73782426169E+02 0.  0.
          6    2    1    2  501    0  0.90305589556E+02 -0.20302237587E+03  0.59572498819E+03  0.65881172494E+03  0.17254403135E+03 0.  0.
         24    2    5    5    0    0  0.48709986639E+01 -0.24893398709E+02  0.20150339586E+03  0.21783354443E+03  0.78768182720E+02 0.  0.
          5    1    5    5  501    0  0.85434590892E+02 -0.17812897716E+03  0.39422159233E+03  0.44097818051E+03  0.47000000000E+01 0. -1.
        -11    1    6    6    0    0  0.34619442116E+02 -0.26420364209E+01  0.15214851401E+03  0.15605978484E+03  0.00000000000E+00 0.  1.
         12    1    6    6    0    0 -0.29748443452E+02 -0.22251362288E+02  0.49354881844E+02  0.61773759586E+02  0.00000000000E+00 0. -1.
         -5    1    3    3    0  503 -0.34590761596E+02  0.53764531891E+02  0.19715069806E+02  0.67066531554E+02  0.47000000000E+01 0.  1.
         11    1    4    4    0    0 -0.87705219733E+01  0.11875434803E+03 -0.14844149618E+03  0.19030080141E+03  0.00000000000E+00 0. -1.
        -12    1    4    4    0    0 -0.46944305986E+02  0.30503495956E+02 -0.56009626176E+02  0.79191599014E+02  0.00000000000E+00 0.  1.
</event>
<event>
12    1  0.8196217E-002  0.2116924E+03  0.7818608E-02  0.1140398E+00
         21   -1    0    0  503  502  0.00000000000E+00  0.00000000000E+00  0.29630301527E+03  0.29630301527E+03  0.00000000000E+00 0. -1.
         21   -1    0    0  501  503 -0.00000000000E+00 -0.00000000000E+00 -0.16581567259E+03  0.16581567259E+03  0.00000000000E+00 0. -1.
          6    2    1    2  501    0  0.60083803046E+02  0.10755767329E+03 -0.47752621330E+01  0.21090234721E+03  0.17110897247E+03 0.  0.
         24    2    3    3    0    0  0.60997466767E+02  0.12517040817E+02  0.27128177961E+02  0.11053563913E+03  0.87205631787E+02 0.  0.
         -6    2    1    2    0  502 -0.60083803046E+02 -0.10755767329E+03  0.13526260481E+03  0.25121634064E+03  0.17214807891E+03 0.  0.
        -24    2    5    5    0    0 -0.38893839286E+02  0.29191755414E+01  0.29733627295E+02  0.96903010735E+02  0.83575430463E+02 0.  0.
          5    1    3    3  501    0 -0.91366372178E+00  0.95040632473E+02 -0.31903440094E+02  0.10036670809E+03  0.47000000000E+01 0. -1.
        -11    1    4    4    0    0  0.47057591748E+01 -0.11124508383E+02 -0.26595342243E+02  0.29209777219E+02  0.00000000000E+00 0.  1.
         12    1    4    4    0    0  0.56291707593E+02  0.23641549200E+02  0.53723520204E+02  0.81325861910E+02  0.00000000000E+00 0. -1.
         -5    1    5    5    0  502 -0.21189963760E+02 -0.11047684883E+03  0.10552897752E+03  0.15431332991E+03  0.47000000000E+01 0.  1.
         11    1    6    6    0    0  0.56878709177E+01 -0.32486580758E+02  0.68090577869E+00  0.32987777094E+02  0.00000000000E+00 0. -1.
        -12    1    6    6    0    0 -0.44581710204E+02  0.35405756300E+02  0.29052721516E+02  0.63915233641E+02  0.00000000000E+00 0.  1.
</event>
<event>
12    1  0.8196217E-002  0.2048826E+03  0.7818608E-02  0.1145783E+00
         21   -1    0    0  501  502  0.00000000000E+00  0.00000000000E+00  0.90207786693E+02  0.90207786693E+02  0.00000000000E+00 0. -1.
         21   -1    0    0  502  503 -0.00000000000E+00 -0.00000000000E+00 -0.77182958432E+03  0.77182958432E+03  0.00000000000E+00 0. -1.
         -6    2    1    2    0  503  0.89136888863E+02 -0.70217611150E+02 -0.61266480368E+03  0.64586165620E+03  0.17000946859E+03 0.  0.
        -24    2    3    3    0    0 -0.10726314589E+02 -0.54685799392E+02 -0.28918388077E+03  0.30692819066E+03  0.86440770716E+02 0.  0.
          6    2    1    2  501    0 -0.89136888863E+02  0.70217611150E+02 -0.68956993945E+02  0.21617571481E+03  0.17059007822E+03 0.  0.
         24    2    5    5    0    0 -0.77495553951E+02 -0.14048293622E+02 -0.28534244202E+01  0.10834234665E+03  0.74343840431E+02 0.  0.
          5    1    5    5  501    0 -0.11641334912E+02  0.84265904771E+02 -0.66103569525E+02  0.10783336816E+03  0.47000000000E+01 0. -1.
        -13    1    6    6    0    0 -0.46153672617E+02 -0.44738298027E+02 -0.45954302236E+01  0.64442181724E+02  0.00000000000E+00 0.  1.
         14    1    6    6    0    0 -0.31341881335E+02  0.30690004406E+02  0.17420058034E+01  0.43900164922E+02  0.00000000000E+00 0. -1.
         -5    1    3    3    0  503  0.99863203453E+02 -0.15531811757E+02 -0.32348092291E+03  0.33893346554E+03  0.47000000000E+01 0.  1.
         13    1    4    4    0    0  0.30544514811E+02 -0.44292976917E+02 -0.10609512151E+03  0.11895801780E+03  0.00000000000E+00 0. -1.
        -14    1    4    4    0    0 -0.41270829400E+02 -0.10392822476E+02 -0.18308875926E+03  0.18797017286E+03  0.00000000000E+00 0.  1.
</event>
<event>
12    1  0.8196217E-002  0.2325697E+03  0.7818608E-02  0.1125168E+00
         21   -1    0    0  501  502  0.00000000000E+00  0.00000000000E+00  0.25546998311E+03  0.25546998311E+03  0.00000000000E+00 0. -1.
         21   -1    0    0  502  503 -0.00000000000E+00 -0.00000000000E+00 -0.27605999919E+03  0.27605999919E+03  0.00000000000E+00 0.  1.
         -6    2    1    2    0  503 -0.12510959359E+03 -0.88612521025E+02 -0.14023632668E+03  0.26998856559E+03  0.17240362217E+03 0.  0.
        -24    2    3    3    0    0 -0.93256727447E+02 -0.79025187117E+02 -0.23809112267E+02  0.14881138825E+03  0.81462617387E+02 0.  0.
          6    2    1    2  501    0  0.12510959359E+03  0.88612521025E+02  0.11964631060E+03  0.26154141671E+03  0.17488305728E+03 0.  0.
         24    2    5    5    0    0  0.29747542597E+01  0.65796621546E+02  0.74024884769E+02  0.12909939641E+03  0.82758238376E+02 0.  0.
          5    1    5    5  501    0  0.12213483933E+03  0.22815899480E+02  0.45621425836E+02  0.13244202030E+03  0.47000000000E+01 0. -1.
        -11    1    6    6    0    0 -0.46026355163E+01 -0.14665762043E+02  0.37270947880E+02  0.40316155395E+02  0.00000000000E+00 0.  1.
         12    1    6    6    0    0  0.75773897760E+01  0.80462383588E+02  0.36753936889E+02  0.88783241016E+02  0.00000000000E+00 0. -1.
         -5    1    3    3    0  503 -0.31852866139E+02 -0.95873339083E+01 -0.11642721441E+03  0.12117717734E+03  0.47000000000E+01 0.  1.
         11    1    4    4    0    0 -0.46378667872E+02 -0.68927878878E+01 -0.39568659422E+02  0.61352833406E+02  0.00000000000E+00 0. -1.
        -12    1    4    4    0    0 -0.46878059574E+02 -0.72132399229E+02  0.15759547155E+02  0.87458554839E+02  0.00000000000E+00 0.  1.
</event>
<event>
12    1  0.8196217E-002  0.2117054E+03  0.7818608E-02  0.1140930E+00
         21   -1    0    0  501  502  0.00000000000E+00  0.00000000000E+00  0.26235791080E+04  0.26235791080E+04  0.00000000000E+00 0.  1.
         21   -1    0    0  502  503 -0.00000000000E+00 -0.00000000000E+00 -0.53484858898E+02  0.53484858898E+02  0.00000000000E+00 0. -1.
         -6    2    1    2    0  503 -0.11575087062E+03 -0.35032445022E+01  0.17988044485E+03  0.27780597814E+03  0.17722485796E+03 0.  0.
        -24    2    3    3    0    0 -0.86439361074E+02  0.60588540770E+02  0.71051727894E+02  0.14806507802E+03  0.75711193859E+02 0.  0.
          6    2    1    2  501    0  0.11575087062E+03  0.35032445022E+01  0.23902138043E+04  0.23992579888E+04  0.17293446680E+03 0.  0.
         24    2    5    5    0    0  0.41032462810E+02 -0.27175315699E+02  0.19124183916E+04  0.19146606705E+04  0.78480684225E+02 0.  0.
          5    1    5    5  501    0  0.74718407812E+02  0.30678560202E+02  0.47779541264E+03  0.48459731826E+03  0.47000000000E+01 0. -1.
        -13    1    6    6    0    0  0.31420060039E+02 -0.46863072161E+02  0.78315536607E+03  0.78518513429E+03  0.00000000000E+00 0.  1.
         14    1    6    6    0    0  0.96124027705E+01  0.19687756461E+02  0.11292630256E+04  0.11294755362E+04  0.00000000000E+00 0. -1.
         -5    1    3    3    0  503 -0.29311509549E+02 -0.64091785272E+02  0.10882871696E+03  0.12974090013E+03  0.47000000000E+01 0.  1.
         11    1    4    4    0    0 -0.24396441110E+02  0.14984874776E+02 -0.15222832479E+02  0.32426338670E+02  0.00000000000E+00 0. -1.
        -12    1    4    4    0    0 -0.62042919964E+02  0.45603665994E+02  0.86274560373E+02  0.11563873935E+03  0.00000000000E+00 0.  1.
</event>
<event>
12    1  0.8196217E-002  0.1748005E+03  0.7818608E-02  0.1173546E+00
         21   -1    0    0  501  502  0.00000000000E+00  0.00000000000E+00  0.61735884372E+03  0.61735884372E+03  0.00000000000E+00 0. -1.
         21   -1    0    0  502  503 -0.00000000000E+00 -0.00000000000E+00 -0.71749949823E+02  0.71749949823E+02  0.00000000000E+00 0. -1.
         -6    2    1    2    0  503 -0.16785048196E+01  0.33509775618E+00  0.76687100525E+02  0.18866613218E+03  0.17236898902E+03 0.  0.
        -24    2    3    3    0    0  0.37126304925E+02  0.20786686540E+02  0.10300883703E+03  0.13729488969E+03  0.80178659095E+02 0.  0.
          6    2    1    2  501    0  0.16785048196E+01 -0.33509775618E+00  0.46892179337E+03  0.50044266136E+03  0.17479210320E+03 0.  0.
         24    2    5    5    0    0  0.58884970406E+02  0.16261423336E+02  0.18599806038E+03  0.21127842963E+03  0.79444463218E+02 0.  0.
          5    1    5    5  501    0 -0.57206465587E+02 -0.16596521092E+02  0.28292373299E+03  0.28916423172E+03  0.47000000000E+01 0. -1.
        -13    1    6    6    0    0  0.45567108167E+02  0.26318562725E+01  0.31143579200E+02  0.55255864300E+02  0.00000000000E+00 0.  1.
         14    1    6    6    0    0  0.13317862239E+02  0.13629567063E+02  0.15485448118E+03  0.15602256533E+03  0.00000000000E+00 0. -1.
         -5    1    3    3    0  503 -0.38804809745E+02 -0.20451588784E+02 -0.26321736501E+02  0.51371242496E+02  0.47000000000E+01 0.  1.
         13    1    4    4    0    0  0.36336322623E+02 -0.21485611120E+02  0.76552560618E+02  0.87419988356E+02  0.00000000000E+00 0. -1.
        -14    1    4    4    0    0  0.78998230220E+00  0.42272297660E+02  0.26456276407E+02  0.49874901332E+02  0.00000000000E+00 0.  1.
</event>
<event>
12    1  0.8196217E-002  0.1884231E+03  0.7818608E-02  0.1160661E+00
         21   -1    0    0  501  502  0.00000000000E+00  0.00000000000E+00  0.66055962619E+03  0.66055962619E+03  0.00000000000E+00 0.  1.
         21   -1    0    0  502  503 -0.00000000000E+00 -0.00000000000E+00 -0.11399074844E+03  0.11399074844E+03  0.00000000000E+00 0.  1.
         -6    2    1    2    0  503  0.38125719974E+02 -0.64527938366E+02 -0.11594547946E+02  0.18544116844E+03  0.16922342644E+03 0.  0.
        -24    2    3    3    0    0 -0.13738231192E+02 -0.35600334121E+02 -0.61971981023E+02  0.10742417361E+03  0.79014580038E+02 0.  0.
          6    2    1    2  501    0 -0.38125719974E+02  0.64527938366E+02  0.55816342570E+03  0.58910920619E+03  0.17287516213E+03 0.  0.
         24    2    5    5    0    0  0.37821400200E+02  0.26725344515E+02  0.38908055943E+03  0.39987890515E+03  0.79842061037E+02 0.  0.
          5    1    5    5  501    0 -0.75947120173E+02  0.37802593851E+02  0.16908286627E+03  0.18923030104E+03  0.47000000000E+01 0. -1.
        -13    1    6    6    0    0 -0.58619175989E+01 -0.22124945534E+02  0.15930512902E+03  0.16094098118E+03  0.00000000000E+00 0.  1.
         14    1    6    6    0    0  0.43683317799E+02  0.48850290050E+02  0.22977543041E+03  0.23893792397E+03  0.00000000000E+00 0. -1.
         -5    1    3    3    0  503  0.51863951165E+02 -0.28927604245E+02  0.50377433077E+02  0.78016994823E+02  0.47000000000E+01 0.  1.
         11    1    4    4    0    0 -0.40796171070E+02 -0.37268412568E+02 -0.22775162843E+02  0.59765961816E+02  0.00000000000E+00 0. -1.
        -12    1    4    4    0    0  0.27057939878E+02  0.16680784468E+01 -0.39196818180E+02  0.47658211796E+02  0.00000000000E+00 0.  1.
</event>
<event>
12    1  0.8196217E-002  0.2171650E+03  0.7818608E-02  0.1136418E+00
         21   -1    0    0  503  502  0.00000000000E+00  0.00000000000E+00  0.56354133360E+03  0.56354133360E+03  0.00000000000E+00 0.  1.
         21   -1    0    0  501  503 -0.00000000000E+00 -0.00000000000E+00 -0.84114954941E+02  0.84114954941E+02  0.00000000000E+00 0. -1.
          6    2    1    2  501    0 -0.89191635919E+02 -0.92761068101E+02  0.28022645248E+03  0.35452432183E+03  0.17493103335E+03 0.  0.
         24    2    3    3    0    0  0.12335163332E+02 -0.58989087857E+02  0.18885637441E+03  0.21374499529E+03  0.79926992402E+02 0.  0.
         -6    2    1    2    0  502  0.89191635919E+02  0.92761068101E+02  0.19919992618E+03  0.29313196671E+03  0.17229618581E+03 0.  0.
        -24    2    5    5    0    0  0.71739364936E+02  0.10244937803E+03  0.21938404072E+03  0.26435813152E+03  0.78188572303E+02 0.  0.
          5    1    3    3  501    0 -0.10152679925E+03 -0.33771980244E+02  0.91370078072E+02  0.14077932655E+03  0.47000000000E+01 0. -1.
        -11    1    4    4    0    0  0.34925606121E+02  0.19708997587E+01  0.61383041969E+02  0.70650974870E+02  0.00000000000E+00 0.  1.
         12    1    4    4    0    0 -0.22590442789E+02 -0.60959987616E+02  0.12747333244E+03  0.14309402041E+03  0.00000000000E+00 0. -1.
         -5    1    5    5    0  502  0.17452270983E+02 -0.96883099331E+01 -0.20184114538E+02  0.28773835189E+02  0.47000000000E+01 0.  1.
         11    1    6    6    0    0  0.62018998101E+02  0.44927820441E+02  0.69100707162E+02  0.10314927487E+03  0.00000000000E+00 0. -1.
        -12    1    6    6    0    0  0.97203668351E+01  0.57521557593E+02  0.15028333356E+03  0.16120885666E+03  0.00000000000E+00 0.  1.
</event>
<event>
12    1  0.8196217E-002  0.1787889E+03  0.7818608E-02  0.1169216E+00
         21   -1    0    0  503  502  0.00000000000E+00  0.00000000000E+00  0.11887974515E+03  0.11887974515E+03  0.00000000000E+00 0. -1.
         21   -1    0    0  501  503 -0.00000000000E+00 -0.00000000000E+00 -0.26779081967E+03  0.26779081967E+03  0.00000000000E+00 0.  1.
          6    2    1    2  501    0  0.45352117589E+02 -0.14780581845E+01 -0.67312283744E+02  0.19014109156E+03  0.17194095478E+03 0.  0.
         24    2    3    3    0    0  0.13686022108E+02 -0.54328685048E+02 -0.80551903689E+02  0.12694846621E+03  0.80550547263E+02 0.  0.
         -6    2    1    2    0  502 -0.45352117589E+02  0.14780581845E+01 -0.81598790768E+02  0.19652947326E+03  0.17293487785E+03 0.  0.
        -24    2    5    5    0    0 -0.52230533084E+01 -0.60303900487E+02 -0.68525690979E+02  0.12156049197E+03  0.80108315323E+02 0.  0.
          5    1    3    3  501    0  0.31666095481E+02  0.52850626864E+02  0.13239619946E+02  0.63192625354E+02  0.47000000000E+01 0. -1.
        -13    1    4    4    0    0 -0.18173079322E+02 -0.32585993555E+02 -0.80112225595E+02  0.88374637073E+02  0.00000000000E+00 0.  1.
         14    1    4    4    0    0  0.31859101430E+02 -0.21742691493E+02 -0.43967809448E+00  0.38573829135E+02  0.00000000000E+00 0. -1.
         -5    1    5    5    0  502 -0.40129064281E+02  0.61781958672E+02 -0.13073099789E+02  0.74968981289E+02  0.47000000000E+01 0.  1.
         11    1    6    6    0    0  0.25169373320E+02 -0.76265418297E+01  0.43344003905E+01  0.26654240195E+02  0.00000000000E+00 0. -1.
        -12    1    6    6    0    0 -0.30392426629E+02 -0.52677358658E+02 -0.72860091369E+02  0.94906251774E+02  0.00000000000E+00 0.  1.
</event>
<event>
12    1  0.8196217E-002  0.1724103E+03  0.7818608E-02  0.1176164E+00
         21   -1    0    0  501  502  0.00000000000E+00  0.00000000000E+00  0.11427740466E+04  0.11427740466E+04  0.00000000000E+00 0. -1.
         21   -1    0    0  502  503 -0.00000000000E+00 -0.00000000000E+00 -0.25629406894E+02  0.25629406894E+02  0.00000000000E+00 0. -1.
         -6    2    1    2    0  503 -0.69896407806E+01 -0.17991711590E+01  0.59763241162E+03  0.62200467023E+03  0.17225916022E+03 0.  0.
        -24    2    3    3    0    0 -0.39731985459E+01  0.81325075900E+01  0.60513421022E+03  0.60836267079E+03  0.61933858619E+02 0.  0.
          6    2    1    2  501    0  0.69896407806E+01  0.17991711590E+01  0.51951222807E+03  0.54639878324E+03  0.16913480754E+03 0.  0.
         24    2    5    5    0    0  0.29317857693E+02  0.25303890993E+02  0.14725321009E+03  0.17270119482E+03  0.81500743138E+02 0.  0.
          5    1    5    5  501    0 -0.22328216912E+02 -0.23504719834E+02  0.37225901798E+03  0.37369758842E+03  0.47000000000E+01 0. -1.
        -11    1    6    6    0    0  0.24322188388E+02  0.40051385081E+02  0.14976943586E+03  0.15692853855E+03  0.00000000000E+00 0.  1.
         12    1    6    6    0    0  0.49956693050E+01 -0.14747494088E+02 -0.25162257683E+01  0.15772656270E+02  0.00000000000E+00 0. -1.
         -5    1    3    3    0  503 -0.30164422347E+01 -0.99316787490E+01 -0.75017986025E+01  0.13641999443E+02  0.47000000000E+01 0.  1.
         13    1    4    4    0    0 -0.22872006456E+02  0.23485692811E+02  0.21666202931E+03  0.21912813920E+03  0.00000000000E+00 0. -1.
        -14    1    4    4    0    0  0.18898807910E+02 -0.15353185220E+02  0.38847218091E+03  0.38923453159E+03  0.00000000000E+00 0.  1.
</event>
<event>
12    1  0.8196217E-002  0.1881474E+03  0.7818608E-02  0.1161046E+00
         21   -1    0    0  503  502  0.00000000000E+00  0.00000000000E+00  0.35215254913E+03  0.35215254913E+03  0.00000000000E+00 0. -1.
         21   -1    0    0  501  503 -0.00000000000E+00 -0.00000000000E+00 -0.15767586205E+03  0.15767586205E+03  0.00000000000E+00 0. -1.
          6    2    1    2  501    0 -0.29665344846E+02  0.67211927829E+02 -0.58356258577E+02  0.19698954279E+03  0.17321071308E+03 0.  0.
         24    2    3    3    0    0  0.36701095882E+02  0.67527443834E+02 -0.44990731586E+01  0.11138994918E+03  0.80501882022E+02 0.  0.
         -6    2    1    2    0  502  0.29665344846E+02 -0.67211927829E+02  0.25283294566E+03  0.31283886840E+03  0.16895615775E+03 0.  0.
        -24    2    5    5    0    0 -0.42774976425E+02 -0.16817863335E+02  0.99773199827E+02  0.13610025440E+03  0.80349540816E+02 0.  0.
          5    1    3    3  501    0 -0.66366440728E+02 -0.31551600544E+00 -0.53857185419E+02  0.85599593611E+02  0.47000000000E+01 0. -1.
        -11    1    4    4    0    0 -0.22011398454E+02  0.10272655413E+01  0.35348778596E+01  0.22317085336E+02  0.00000000000E+00 0.  1.
         12    1    4    4    0    0  0.58712494336E+02  0.66500178293E+02 -0.80339510181E+01  0.89072863843E+02  0.00000000000E+00 0. -1.
         -5    1    5    5    0  502  0.72440321271E+02 -0.50394064493E+02  0.15305974583E+03  0.17673861399E+03  0.47000000000E+01 0.  1.
         13    1    6    6    0    0 -0.99393165864E+01 -0.17411661608E+02  0.10125989770E+03  0.10322559206E+03  0.00000000000E+00 0. -1.
        -14    1    6    6    0    0 -0.32835659839E+02  0.59379827236E+00 -0.14866978739E+01  0.32874662340E+02  0.00000000000E+00 0.  1.
</event>
<event>
12    1  0.8196217E-002  0.2795945E+03  0.7818608E-02  0.1096174E+00
         21   -1    0    0  501  502  0.00000000000E+00  0.00000000000E+00  0.27972883673E+03  0.27972883673E+03  0.00000000000E+00 0. -1.
         21   -1    0    0  502  503 -0.00000000000E+00 -0.00000000000E+00 -0.60537860172E+03  0.60537860172E+03  0.00000000000E+00 0.  1.
         -6    2    1    2    0  503  0.14975874742E+03  0.15857998435E+03 -0.48823879141E+03  0.56167544277E+03  0.17183390733E+03 0.  0.
        -24    2    3    3    0    0  0.16694164078E+02  0.10439184447E+03 -0.26087895362E+03  0.29268264792E+03  0.80180743590E+02 0.  0.
          6    2    1    2  501    0 -0.14975874742E+03 -0.15857998435E+03  0.16258902642E+03  0.32343199569E+03  0.17492218401E+03 0.  0.
         24    2    5    5    0    0 -0.63301326612E+01 -0.29502587436E+02  0.40232195590E+02  0.94901853310E+02  0.80481419935E+02 0.  0.
          5    1    5    5  501    0 -0.14342861476E+03 -0.12907739691E+03  0.12235683083E+03  0.22853014238E+03  0.47000000000E+01 0. -1.
        -13    1    6    6    0    0  0.50155529205E+01 -0.54270696597E+02  0.40089886401E+02  0.67658430900E+02  0.00000000000E+00 0.  1.
         14    1    6    6    0    0 -0.11345685582E+02  0.24768109160E+02  0.14230918920E+00  0.27243422410E+02  0.00000000000E+00 0. -1.
         -5    1    3    3    0  503  0.13306458334E+03  0.54188139878E+02 -0.22735983779E+03  0.26899279485E+03  0.47000000000E+01 0.  1.
         13    1    4    4    0    0 -0.14851637059E+02  0.78285462863E+00 -0.83794558746E+02  0.85104124813E+02  0.00000000000E+00 0. -1.
        -14    1    4    4    0    0  0.31545801136E+02  0.10360898984E+03 -0.17708439487E+03  0.20757852310E+03  0.00000000000E+00 0.  1.
</event>
<event>
12    1  0.8196217E-002  0.2046224E+03  0.7818608E-02  0.1146107E+00
         21   -1    0    0  501  502  0.00000000000E+00  0.00000000000E+00  0.29047627301E+03  0.29047627301E+03  0.00000000000E+00 0. -1.
         21   -1    0    0  502  503 -0.00000000000E+00 -0.00000000000E+00 -0.36269478949E+03  0.36269478949E+03  0.00000000000E+00 0. -1.
         -6    2    1    2    0  503  0.15703357620E+02  0.10790929884E+03 -0.29007770133E+03  0.35498646720E+03  0.17314533454E+03 0.  0.
        -24    2    3    3    0    0 -0.32497635643E+02  0.26148528002E+02 -0.13397361617E+03  0.17223325984E+03  0.99877545649E+02 0.  0.
          6    2    1    2  501    0 -0.15703357620E+02 -0.10790929884E+03  0.21785918485E+03  0.29818459529E+03  0.17193142887E+03 0.  0.
         24    2    5    5    0    0  0.49085381345E+02 -0.43043633633E+02  0.15636135114E+03  0.18768930685E+03  0.80723445878E+02 0.  0.
          5    1    5    5  501    0 -0.64788738965E+02 -0.64865665205E+02  0.61497833704E+02  0.11049528845E+03  0.47000000000E+01 0. -1.
        -11    1    6    6    0    0 -0.54141391507E+01  0.14763824168E+02  0.45902744916E+01  0.16381514787E+02  0.00000000000E+00 0.  1.
         12    1    6    6    0    0  0.54499520496E+02 -0.57807457801E+02  0.15177107665E+03  0.17130779206E+03  0.00000000000E+00 0. -1.
         -5    1    3    3    0  503  0.48200993263E+02  0.81760770836E+02 -0.15610408516E+03  0.18275320737E+03  0.47000000000E+01 0.  1.
         13    1    4    4    0    0 -0.31224869978E+01  0.28022259749E+02 -0.13946837947E+03  0.14228993583E+03  0.00000000000E+00 0. -1.
        -14    1    4    4    0    0 -0.29375148645E+02 -0.18737317469E+01  0.54947633027E+01  0.29943324003E+02  0.00000000000E+00 0.  1.
</event>
<event>
12    1  0.8196217E-002  0.2344943E+03  0.7818608E-02  0.1124036E+00
         21   -1    0    0  503  502  0.00000000000E+00  0.00000000000E+00  0.41965333685E+03  0.41965333685E+03  0.00000000000E+00 0.  1.
         21   -1    0    0  501  503 -0.00000000000E+00 -0.00000000000E+00 -0.13160387754E+03  0.13160387754E+03  0.00000000000E+00 0.  1.
          6    2    1    2  501    0  0.11540648685E+03  0.10363235132E+03  0.18097770329E+03  0.29621025513E+03  0.17586717916E+03 0.  0.
         24    2    3    3    0    0  0.28558253918E+02  0.11055981244E+03  0.14778719198E+03  0.20285981152E+03  0.79195978575E+02 0.  0.
         -6    2    1    2    0  502 -0.11540648685E+03 -0.10363235132E+03  0.10707175602E+03  0.25504695927E+03  0.17183209551E+03 0.  0.
        -24    2    5    5    0    0 -0.14627293754E+03 -0.10916658433E+03  0.99697786052E+02  0.22249191440E+03  0.79056233414E+02 0.  0.
          5    1    3    3  501    0  0.86848232930E+02 -0.69274611153E+01  0.33190511310E+02  0.93350443607E+02  0.47000000000E+01 0. -1.
        -13    1    4    4    0    0  0.42527977362E+00  0.89083881725E+02  0.14105631410E+03  0.16683225885E+03  0.00000000000E+00 0.  1.
         14    1    4    4    0    0  0.28132974144E+02  0.21475930710E+02  0.67308778836E+01  0.36027552667E+02  0.00000000000E+00 0. -1.
         -5    1    5    5    0  502  0.30866450688E+02  0.55342330082E+01  0.73739699634E+01  0.32555044864E+02  0.47000000000E+01 0.  1.
         13    1    6    6    0    0 -0.84260823829E+02 -0.49011093944E+02  0.94774028372E+02  0.13595620698E+03  0.00000000000E+00 0. -1.
        -14    1    6    6    0    0 -0.62012113708E+02 -0.60155490385E+02  0.49237576796E+01  0.86535707425E+02  0.00000000000E+00 0.  1.
</event>
<event>
12    1  0.8196217E-002  0.1901917E+03  0.7818608E-02  0.1158337E+00
         21   -1    0    0  501  502  0.00000000000E+00  0.00000000000E+00  0.15101076975E+03  0.15101076975E+03  0.00000000000E+00 0. -1.
         21   -1    0    0  502  503 -0.00000000000E+00 -0.00000000000E+00 -0.23927041843E+03  0.23927041843E+03  0.00000000000E+00 0.  1.
         -6    2    1    2    0  503  0.80918844708E+02 -0.11124536196E+02 -0.45005326583E+02  0.19523293117E+03  0.17151910465E+03 0.  0.
        -24    2    3    3    0    0  0.25984228975E+02  0.22502622557E+02  0.34161816051E+02  0.93065792210E+02  0.79452273890E+02 0.  0.
          6    2    1    2  501    0 -0.80918844708E+02  0.11124536196E+02 -0.43254322101E+02  0.19504825701E+03  0.17175934166E+03 0.  0.
         24    2    5    5    0    0  0.63136033023E+00  0.47101779999E+02 -0.50986162342E+02  0.10545657566E+03  0.79388439366E+02 0.  0.
          5    1    5    5  501    0 -0.81550205038E+02 -0.35977243803E+02  0.77318402411E+01  0.89591681349E+02  0.47000000000E+01 0. -1.
        -11    1    6    6    0    0 -0.34715456224E+02  0.44540503455E+02 -0.26495296405E+02  0.62378041653E+02  0.00000000000E+00 0.  1.
         12    1    6    6    0    0  0.35346816554E+02  0.25612765445E+01 -0.24490865937E+02  0.43078534009E+02  0.00000000000E+00 0. -1.
         -5    1    3    3    0  503  0.54934615733E+02 -0.33627158754E+02 -0.79167142634E+02  0.10216713897E+03  0.47000000000E+01 0.  1.
         13    1    4    4    0    0  0.27620498860E+02 -0.13141160579E+02  0.46200591334E+02  0.55408272832E+02  0.00000000000E+00 0. -1.
        -14    1    4    4    0    0 -0.16362698857E+01  0.35643783136E+02 -0.12038775282E+02  0.37657519378E+02  0.00000000000E+00 0.  1.
</event>
<event>
12    1  0.8196217E-002  0.2311526E+03  0.7818608E-02  0.1127227E+00
         21   -1    0    0  503  502  0.00000000000E+00  0.00000000000E+00  0.57851444503E+03  0.57851444503E+03  0.00000000000E+00 0. -1.
         21   -1    0    0  501  503 -0.00000000000E+00 -0.00000000000E+00 -0.16369911297E+03  0.16369911297E+03  0.00000000000E+00 0.  1.
          6    2    1    2  501    0  0.12382284076E+03 -0.66161267397E+02 -0.40882007685E+02  0.23474003768E+03  0.18363588305E+03 0.  0.
         24    2    3    3    0    0  0.12162412186E+02 -0.50723263793E+02  0.30931744991E+02  0.10100265197E+03  0.80771214528E+02 0.  0.
         -6    2    1    2    0  502 -0.12382284076E+03  0.66161267397E+02  0.45569733974E+03  0.50747352031E+03  0.17366605649E+03 0.  0.
        -24    2    5    5    0    0 -0.12966161812E+03 -0.95864082373E+00  0.26873221471E+03  0.30868413081E+03  0.79093837858E+02 0.  0.
          5    1    3    3  501    0  0.11166042857E+03 -0.15438003604E+02 -0.71813752676E+02  0.13373738572E+03  0.47000000000E+01 0. -1.
        -13    1    4    4    0    0  0.32971429531E+01 -0.49769922194E+02 -0.16656235784E+02  0.52586561947E+02  0.00000000000E+00 0.  1.
         14    1    4    4    0    0  0.88652692327E+01 -0.95334159905E+00  0.47587980775E+02  0.48416090022E+02  0.00000000000E+00 0. -1.
         -5    1    5    5    0  502  0.58387773584E+01  0.67119908221E+02  0.18696512503E+03  0.19878938951E+03  0.47000000000E+01 0.  1.
         13    1    6    6    0    0 -0.44495110714E+02  0.20586425061E+01  0.18090272706E+03  0.18630579579E+03  0.00000000000E+00 0. -1.
        -14    1    6    6    0    0 -0.85166507404E+02 -0.30172833298E+01  0.87829487643E+02  0.12237833502E+03  0.00000000000E+00 0.  1.
</event>
<event>
12    1  0.8196217E-002  0.3522193E+03  0.7818608E-02  0.1061718E+00
         21   -1    0    0  503  502  0.00000000000E+00  0.00000000000E+00  0.75810081519E+02  0.75810081519E+02  0.00000000000E+00 0. -1.
         21   -1    0    0  501  503 -0.00000000000E+00 -0.00000000000E+00 -0.17095247418E+04  0.17095247418E+04  0.00000000000E+00 0. -1.
          6    2    1    2  501    0 -0.29042937922E+02  0.30613286910E+03 -0.63156335254E+03  0.72308924107E+03  0.17153704118E+03 0.  0.
         24    2    3    3    0    0  0.17655659114E+01  0.26469741792E+03 -0.60597338351E+03  0.66527058459E+03  0.72892859164E+02 0.  0.
         -6    2    1    2    0  502  0.29042937922E+02 -0.30613286910E+03 -0.10021513078E+04  0.10622455823E+04  0.17174867573E+03 0.  0.
        -24    2    5    5    0    0 -0.45963472363E+02 -0.17997404945E+03 -0.51082260438E+03  0.54944153185E+03  0.80268079014E+02 0.  0.
          5    1    3    3  501    0 -0.30808503833E+02  0.41435451176E+02 -0.25589969029E+02  0.57818656483E+02  0.47000000000E+01 0. -1.
        -13    1    4    4    0    0 -0.54804210150E+01 -0.28703354683E+01 -0.22430183032E+02  0.23267723375E+02  0.00000000000E+00 0.  1.
         14    1    4    4    0    0  0.72459869264E+01  0.26756775339E+03 -0.58354320048E+03  0.64200286122E+03  0.00000000000E+00 0. -1.
         -5    1    5    5    0  502  0.75006410285E+02 -0.12615881965E+03 -0.49132870339E+03  0.51280405043E+03  0.47000000000E+01 0.  1.
         13    1    6    6    0    0 -0.27943337653E+01 -0.14854700155E+03 -0.36043572090E+03  0.38985629259E+03  0.00000000000E+00 0. -1.
        -14    1    6    6    0    0 -0.43169138597E+02 -0.31427047897E+02 -0.15038688347E+03  0.15958523925E+03  0.00000000000E+00 0.  1.
</event>
<event>
12    1  0.8196217E-002  0.2372517E+03  0.7818608E-02  0.1121663E+00
         21   -1    0    0  503  502  0.00000000000E+00  0.00000000000E+00  0.38173063957E+03  0.38173063957E+03  0.00000000000E+00 0.  1.
         21   -1    0    0  501  503 -0.00000000000E+00 -0.00000000000E+00 -0.37154980621E+03  0.37154980621E+03  0.00000000000E+00 0. -1.
          6    2    1    2  501    0  0.16275346918E+03 -0.12775973808E+02 -0.28747618435E+03  0.37273436498E+03  0.17215235413E+03 0.  0.
         24    2    3    3    0    0  0.32242243983E+02  0.16205966126E+02 -0.56036826997E+02  0.10541545642E+03  0.81670660805E+02 0.  0.
         -6    2    1    2    0  502 -0.16275346918E+03  0.12775973808E+02  0.29765701770E+03  0.38054608080E+03  0.17194098460E+03 0.  0.
        -24    2    5    5    0    0 -0.86432220358E+02 -0.41965468551E+02  0.95692377193E+02  0.15776061325E+03  0.80621031832E+02 0.  0.
          5    1    3    3  501    0  0.13051122519E+03 -0.28981939934E+02 -0.23143935735E+03  0.26731890856E+03  0.47000000000E+01 0. -1.
        -13    1    4    4    0    0 -0.62212967232E+01 -0.20854864216E+02 -0.46248252351E+02  0.51112921458E+02  0.00000000000E+00 0.  1.
         14    1    4    4    0    0  0.38463540706E+02  0.37060830342E+02 -0.97885746461E+01  0.54302534958E+02  0.00000000000E+00 0. -1.
         -5    1    5    5    0  502 -0.76321248820E+02  0.54741442359E+02  0.20196464051E+03  0.22278546755E+03  0.47000000000E+01 0.  1.
         11    1    6    6    0    0  0.11270498015E+02  0.59070045268E+01 -0.21033548593E+00  0.12726392616E+02  0.00000000000E+00 0. -1.
        -12    1    6    6    0    0 -0.97702718373E+02 -0.47872473077E+02  0.95902712679E+02  0.14503422063E+03  0.00000000000E+00 0.  1.
</event>
<event>
12    1  0.8196217E-002  0.1749376E+03  0.7818608E-02  0.1173091E+00
         21   -1    0    0  503  502  0.00000000000E+00  0.00000000000E+00  0.28699086451E+04  0.28699086451E+04  0.00000000000E+00 0. -1.
         21   -1    0    0  501  503 -0.00000000000E+00 -0.00000000000E+00 -0.24099478275E+02  0.24099478275E+02  0.00000000000E+00 0. -1.
          6    2    1    2  501    0 -0.19006793124E+02  0.20750580192E+02  0.33747847269E+03  0.37958452712E+03  0.17146675754E+03 0.  0.
         24    2    3    3    0    0 -0.81685231665E+00 -0.24416564400E+02  0.31460412332E+03  0.32558202018E+03  0.80193899960E+02 0.  0.
         -6    2    1    2    0  502  0.19006793124E+02 -0.20750580192E+02  0.25083306942E+04  0.25144235963E+04  0.17265950731E+03 0.  0.
        -24    2    5    5    0    0  0.24840134124E+01 -0.70358979287E+02  0.14030443401E+04  0.14078911702E+04  0.93099787931E+02 0.  0.
          5    1    3    3  501    0 -0.18189940808E+02  0.45167144592E+02  0.22874349369E+02  0.54002506944E+02  0.47000000000E+01 0. -1.
        -11    1    4    4    0    0  0.32243275915E+02  0.71619760366E+01  0.19012664020E+03  0.19297425232E+03  0.00000000000E+00 0.  1.
         12    1    4    4    0    0 -0.33060128232E+02 -0.31578540436E+02  0.12447748311E+03  0.13260776786E+03  0.00000000000E+00 0. -1.
         -5    1    5    5    0  502  0.16522779712E+02  0.49608399095E+02  0.11052863540E+04  0.11065324261E+04  0.47000000000E+01 0.  1.
         11    1    6    6    0    0 -0.26747385713E+00 -0.64855478266E+02  0.13990563894E+04  0.14005588475E+04  0.00000000000E+00 0. -1.
        -12    1    6    6    0    0  0.27514872695E+01 -0.55035010205E+01  0.39879507841E+01  0.73323227652E+01  0.00000000000E+00 0.  1.
</event>
<event>
12    1  0.8196217E-002  0.2005919E+03  0.7818608E-02  0.1149313E+00
         21   -1    0    0  501  502  0.00000000000E+00  0.00000000000E+00  0.47630059472E+03  0.47630059472E+03  0.00000000000E+00 0. -1.
         21   -1    0    0  502  503 -0.00000000000E+00 -0.00000000000E+00 -0.99880163573E+02  0.99880163573E+02  0.00000000000E+00 0.  1.
         -6    2    1    2    0  503  0.94632870189E+02  0.38259821350E+02  0.74416556057E+02  0.21362947293E+03  0.17228039307E+03 0.  0.
        -24    2    3    3    0    0  0.79695520355E+01  0.20916247884E+02 -0.17127025022E+02  0.86296651193E+02  0.81564537857E+02 0.  0.
          6    2    1    2  501    0 -0.94632870189E+02 -0.38259821350E+02  0.30200387509E+03  0.36255128537E+03  0.17267860291E+03 0.  0.
         24    2    5    5    0    0 -0.10505521676E+03  0.21238371425E+02  0.15960024392E+03  0.20779488188E+03  0.78859419756E+02 0.  0.
          5    1    5    5  501    0  0.10422346572E+02 -0.59498192775E+02  0.14240363117E+03  0.15475640349E+03  0.47000000000E+01 0. -1.
        -11    1    6    6    0    0 -0.93887179875E+02  0.31050675366E+02  0.16467575973E+03  0.19208605578E+03  0.00000000000E+00 0.  1.
         12    1    6    6    0    0 -0.11168036887E+02 -0.98123039408E+01 -0.50755158030E+01  0.15708826092E+02  0.00000000000E+00 0. -1.
         -5    1    3    3    0  503  0.86663318154E+02  0.17343573466E+02  0.91543581079E+02  0.12733282173E+03  0.47000000000E+01 0.  1.
         13    1    4    4    0    0  0.31941421833E+02 -0.19073889035E+02 -0.13324300672E+02  0.39517143875E+02  0.00000000000E+00 0. -1.
        -14    1    4    4    0    0 -0.23971869798E+02  0.39990136919E+02 -0.38027243497E+01  0.46779507318E+02  0.00000000000E+00 0.  1.
</event>
<event>
12    1  0.8196217E-002  0.1748162E+03  0.7818608E-02  0.1173094E+00
         21   -1    0    0  503  502  0.00000000000E+00  0.00000000000E+00  0.25035316731E+03  0.25035316731E+03  0.00000000000E+00 0.  1.
         21   -1    0    0  501  503 -0.00000000000E+00 -0.00000000000E+00 -0.14099279089E+03  0.14099279089E+03  0.00000000000E+00 0.  1.
          6    2    1    2  501    0  0.29740471964E+02 -0.82838004872E+01 -0.18026638347E+02  0.17504024972E+03  0.17135055386E+03 0.  0.
         24    2    3    3    0    0  0.44402794280E+02 -0.65450852925E+02 -0.25544159846E+02  0.11536061576E+03  0.80000907976E+02 0.  0.
         -6    2    1    2    0  502 -0.29740471964E+02  0.82838004872E+01  0.12738701476E+03  0.21630570849E+03  0.17206856474E+03 0.  0.
        -24    2    5    5    0    0 -0.69896610363E+02  0.10325509197E+02  0.13793900178E+03  0.17447129137E+03  0.80130587298E+02 0.  0.
          5    1    3    3  501    0 -0.14662322317E+02  0.57167052438E+02  0.75175214986E+01  0.59679633960E+02  0.47000000000E+01 0. -1.
        -11    1    4    4    0    0  0.27583824079E+02  0.12996020364E+02  0.19407187170E+01  0.30553727845E+02  0.00000000000E+00 0.  1.
         12    1    4    4    0    0  0.16818970202E+02 -0.78446873290E+02 -0.27484878562E+02  0.84806887911E+02  0.00000000000E+00 0. -1.
         -5    1    5    5    0  502  0.40156138399E+02 -0.20417087098E+01 -0.10551987012E+02  0.41834417117E+02  0.47000000000E+01 0.  1.
         13    1    6    6    0    0 -0.75606955699E+01 -0.64766105972E+01 -0.93478235951E+01  0.13656222329E+02  0.00000000000E+00 0. -1.
        -14    1    6    6    0    0 -0.62335914793E+02  0.16802119794E+02  0.14728682537E+03  0.16081506904E+03  0.00000000000E+00 0.  1.
</event>
<event>
12    1  0.8196217E-002  0.1731642E+03  0.7818608E-02  0.1174744E+00
         21   -1    0    0  501  502  0.00000000000E+00  0.00000000000E+00  0.20921299504E+03  0.20921299504E+03  0.00000000000E+00 0. -1.
         21   -1    0    0  502  503 -0.00000000000E+00 -0.00000000000E+00 -0.15227586738E+03  0.15227586738E+03  0.00000000000E+00 0. -1.
         -6    2    1    2    0  503 -0.13660890927E+02 -0.10099165910E+02  0.73555601562E+02  0.18813899770E+03  0.17232887988E+03 0.  0.
        -24    2    3    3    0    0 -0.44592575724E+02 -0.47573271921E+02  0.89593427943E+02  0.13675437334E+03  0.80144009663E+02 0.  0.
          6    2    1    2  501    0  0.13660890927E+02  0.10099165910E+02 -0.16618473908E+02  0.17334986472E+03  0.17171310035E+03 0.  0.
         24    2    5    5    0    0  0.31102197745E+01 -0.20195904894E+02  0.51816560869E+02  0.97623040139E+02  0.80173274500E+02 0.  0.
          5    1    5    5  501    0  0.10550671153E+02  0.30295070804E+02 -0.68435034777E+02  0.75726824585E+02  0.47000000000E+01 0. -1.
        -13    1    6    6    0    0  0.34516593116E+02  0.10721805460E+02  0.35405626899E+02  0.50595560366E+02  0.00000000000E+00 0.  1.
         14    1    6    6    0    0 -0.31406373341E+02 -0.30917710354E+02  0.16410933971E+02  0.47027479773E+02  0.00000000000E+00 0. -1.
         -5    1    3    3    0  503  0.30931684797E+02  0.37474106011E+02 -0.16037826381E+02  0.51384624361E+02  0.47000000000E+01 0.  1.
         13    1    4    4    0    0  0.51446716450E+01 -0.52038709276E+02  0.35907591388E+02  0.63433824011E+02  0.00000000000E+00 0. -1.
        -14    1    4    4    0    0 -0.49737247369E+02  0.44654373549E+01  0.53685836555E+02  0.73320549324E+02  0.00000000000E+00 0.  1.
</event>
<event>
12    1  0.8196217E-002  0.2318233E+03  0.7818608E-02  0.1126152E+00
         21   -1    0    0  503  502  0.00000000000E+00  0.00000000000E+00  0.13680145492E+03  0.13680145492E+03  0.00000000000E+00 0.  1.
         21   -1    0    0  501  503 -0.00000000000E+00 -0.00000000000E+00 -0.46715261475E+03  0.46715261475E+03  0.00000000000E+00 0.  1.
          6    2    1    2  501    0 -0.14767575190E+03  0.49875609154E+02 -0.29291654747E+03  0.37355339649E+03  0.17159933613E+03 0.  0.
         24    2    3    3    0    0 -0.15996957484E+03 -0.36186830819E+01 -0.20510217463E+03  0.26988936482E+03  0.71902763964E+02 0.  0.
         -6    2    1    2    0  502  0.14767575190E+03 -0.49875609154E+02 -0.37434612355E+02  0.23040067318E+03  0.16549143759E+03 0.  0.
        -24    2    5    5    0    0  0.16396717036E+03 -0.11398971204E+02 -0.46014980545E+02  0.18748710072E+03  0.77581344409E+02 0.  0.
          5    1    3    3  501    0  0.12293822936E+02  0.53494292236E+02 -0.87814372838E+02  0.10366403167E+03  0.47000000000E+01 0. -1.
        -11    1    4    4    0    0 -0.56401854611E+02 -0.31644146258E+02 -0.52262531948E+02  0.83149825265E+02  0.00000000000E+00 0.  1.
         12    1    4    4    0    0 -0.10356772022E+03  0.28025463176E+02 -0.15283964268E+03  0.18673953956E+03  0.00000000000E+00 0. -1.
         -5    1    5    5    0  502 -0.16291418463E+02 -0.38476637950E+02  0.85803681904E+01  0.42913572465E+02  0.47000000000E+01 0.  1.
         13    1    6    6    0    0 -0.11188700884E+01 -0.62559542510E+01 -0.19116232452E+02  0.20144954133E+02  0.00000000000E+00 0. -1.
        -14    1    6    6    0    0  0.16508604045E+03 -0.51430169532E+01 -0.26898748093E+02  0.16734214659E+03  0.00000000000E+00 0.  1.
</event>
<event>
12    1  0.8196217E-002  0.2406521E+03  0.7818608E-02  0.1119496E+00
         21   -1    0    0  503  502  0.00000000000E+00  0.00000000000E+00  0.90009437826E+02  0.90009437826E+02  0.00000000000E+00 0. -1.
         21   -1    0    0  501  503 -0.00000000000E+00 -0.00000000000E+00 -0.67925238848E+03  0.67925238848E+03  0.00000000000E+00 0.  1.
          6    2    1    2  501    0  0.21950139358E+02  0.16720333959E+03 -0.38516699950E+03  0.45372987286E+03  0.17052394153E+03 0.  0.
         24    2    3    3    0    0 -0.19144596618E+02  0.17868119009E+03 -0.32984964567E+03  0.38371117527E+03  0.78358113886E+02 0.  0.
         -6    2    1    2    0  502 -0.21950139358E+02 -0.16720333959E+03 -0.20407595115E+03  0.31553195344E+03  0.17168184067E+03 0.  0.
        -24    2    5    5    0    0 -0.74864069814E+02 -0.65126502367E+02 -0.10313196748E+03  0.16245895591E+03  0.76880552673E+02 0.  0.
          5    1    3    3  501    0  0.41094735976E+02 -0.11477850492E+02 -0.55317353827E+02  0.70018697584E+02  0.47000000000E+01 0. -1.
        -13    1    4    4    0    0 -0.11769246080E+02 -0.45230759518E+01 -0.24095839425E+02  0.27195272511E+02  0.00000000000E+00 0.  1.
         14    1    4    4    0    0 -0.73753505381E+01  0.18320426604E+03 -0.30575380624E+03  0.35651590276E+03  0.00000000000E+00 0. -1.
         -5    1    5    5    0  502  0.52913930456E+02 -0.10207683723E+03 -0.10094398367E+03  0.15307299753E+03  0.47000000000E+01 0.  1.
         13    1    6    6    0    0 -0.68117557997E+02 -0.82435469284E+02 -0.88626245321E+02  0.13888923523E+03  0.00000000000E+00 0. -1.
        -14    1    6    6    0    0 -0.67465118163E+01  0.17308966918E+02 -0.14505722162E+02  0.23569720679E+02  0.00000000000E+00 0.  1.
</event>
<event>
12    1  0.8196217E-002  0.2423432E+03  0.7818608E-02  0.1118338E+00
         21   -1    0    0  501  502  0.00000000000E+00  0.00000000000E+00  0.17097424308E+04  0.17097424308E+04  0.00000000000E+00 0. -1.
         21   -1    0    0  502  503 -0.00000000000E+00 -0.00000000000E+00 -0.38543796103E+02  0.38543796103E+02  0.00000000000E+00 0.  1.
         -6    2    1    2    0  503 -0.16532907337E+03 -0.37355320164E+02  0.11258700844E+04  0.11515338193E+04  0.17238784057E+03 0.  0.
        -24    2    3    3    0    0 -0.63785133351E+02  0.36653678554E+02  0.44807470288E+03  0.46217384595E+03  0.86149225903E+02 0.  0.
          6    2    1    2  501    0  0.16532907337E+03  0.37355320164E+02  0.54532855031E+03  0.59675240763E+03  0.17320821510E+03 0.  0.
         24    2    5    5    0    0  0.15281133838E+03 -0.17328952309E+02  0.48149582407E+03  0.51164206581E+03  0.79295505425E+02 0.  0.
          5    1    5    5  501    0  0.12517734984E+02  0.54684272473E+02  0.63832726242E+02  0.85110341819E+02  0.47000000000E+01 0. -1.
        -13    1    6    6    0    0  0.43094531318E+02 -0.38052544898E+02  0.11589140517E+03  0.12936750981E+03  0.00000000000E+00 0.  1.
         14    1    6    6    0    0  0.10971680707E+03  0.20723592589E+02  0.36560441890E+03  0.38227455600E+03  0.00000000000E+00 0. -1.
         -5    1    3    3    0  503 -0.10154394002E+03 -0.74008998718E+02  0.67779538151E+03  0.68935997333E+03  0.47000000000E+01 0.  1.
         13    1    4    4    0    0 -0.84850629236E+02  0.28212652307E+02  0.38144424951E+03  0.39178476045E+03  0.00000000000E+00 0. -1.
        -14    1    4    4    0    0  0.21065495885E+02  0.84410262468E+01  0.66630453369E+02  0.70389085497E+02  0.00000000000E+00 0.  1.
</event>
<event>
12    1  0.8196217E-002  0.2648744E+03  0.7818608E-02  0.1104425E+00
         21   -1    0    0  503  502  0.00000000000E+00  0.00000000000E+00  0.92974436803E+03  0.92974436803E+03  0.00000000000E+00 0. -1.
         21   -1    0    0  501  503 -0.00000000000E+00 -0.00000000000E+00 -0.18773779203E+03  0.18773779203E+03  0.00000000000E+00 0. -1.
          6    2    1    2  501    0 -0.15958624119E+03 -0.12280747511E+03 -0.61412630823E+02  0.27190067195E+03  0.17207271678E+03 0.  0.
         24    2    3    3    0    0 -0.15852424407E+02 -0.86083830559E+02 -0.17093698292E+02  0.11699975543E+03  0.75729934679E+02 0.  0.
         -6    2    1    2    0  502  0.15958624119E+03  0.12280747511E+03  0.80341920682E+03  0.84558148811E+03  0.17022393144E+03 0.  0.
        -24    2    5    5    0    0  0.55020587444E+02  0.47737537026E+01  0.21440268074E+03  0.23580407518E+03  0.81148004259E+02 0.  0.
          5    1    3    3  501    0 -0.14373381679E+03 -0.36723644548E+02 -0.44318932531E+02  0.15490091652E+03  0.47000000000E+01 0. -1.
        -13    1    4    4    0    0 -0.37610065208E+02 -0.69902659420E+02  0.83502022883E+01  0.79816193077E+02  0.00000000000E+00 0.  1.
         14    1    4    4    0    0  0.21757640802E+02 -0.16181171139E+02 -0.25443900580E+02  0.37183562355E+02  0.00000000000E+00 0. -1.
         -5    1    5    5    0  502  0.10456565375E+03  0.11803372140E+03  0.58901652608E+03  0.60977741294E+03  0.47000000000E+01 0.  1.
         13    1    6    6    0    0  0.23487339070E+02  0.27391172943E+02  0.18112380994E+03  0.18468287950E+03  0.00000000000E+00 0. -1.
        -14    1    6    6    0    0  0.31533248374E+02 -0.22617419241E+02  0.33278870795E+02  0.51121195678E+02  0.00000000000E+00 0.  1.
</event>
<event>
12    1  0.8196217E-002  0.3623957E+03  0.7818608E-02  0.1057683E+00
         21   -1    0    0  501  502  0.00000000000E+00  0.00000000000E+00  0.47956114522E+03  0.47956114522E+03  0.00000000000E+00 0.  1.
         21   -1    0    0  502  503 -0.00000000000E+00 -0.00000000000E+00 -0.43152484128E+03  0.43152484128E+03  0.00000000000E+00 0.  1.
         -6    2    1    2    0  503  0.10412517457E+03 -0.30124196032E+03 -0.25162424633E+03  0.44118635669E+03  0.17245831191E+03 0.  0.
        -24    2    3    3    0    0 -0.31441066781E+01 -0.18387507468E+03 -0.10388814750E+03  0.22409253032E+03  0.74865121796E+02 0.  0.
          6    2    1    2  501    0 -0.10412517457E+03  0.30124196032E+03  0.29966055027E+03  0.46989962982E+03  0.17152389360E+03 0.  0.
         24    2    5    5    0    0 -0.36293527769E+02  0.23356354093E+03  0.27642238070E+03  0.37118993787E+03  0.74185508119E+02 0.  0.
          5    1    5    5  501    0 -0.67831646804E+02  0.67678419391E+02  0.23238169573E+02  0.98709691948E+02  0.47000000000E+01 0. -1.
        -13    1    6    6    0    0 -0.54364040543E+02  0.12054725921E+03  0.16507287534E+03  0.21150920732E+03  0.00000000000E+00 0.  1.
         14    1    6    6    0    0  0.18070512774E+02  0.11301628172E+03  0.11134950536E+03  0.15968073055E+03  0.00000000000E+00 0. -1.
         -5    1    3    3    0  503  0.10726928125E+03 -0.11736688564E+03 -0.14773609884E+03  0.21709382636E+03  0.47000000000E+01 0.  1.
         13    1    4    4    0    0  0.23208998680E+02 -0.19428421590E+02 -0.58284360411E+01  0.30823560013E+02  0.00000000000E+00 0. -1.
        -14    1    4    4    0    0 -0.26353105358E+02 -0.16444665309E+03 -0.98059711457E+02  0.19326897031E+03  0.00000000000E+00 0.  1.
</event>
<event>
12    1  0.8196217E-002  0.2219787E+03  0.7818608E-02  0.1133587E+00
         21   -1    0    0  503  502  0.00000000000E+00  0.00000000000E+00  0.57611523228E+03  0.57611523228E+03  0.00000000000E+00 0. -1.
         21   -1    0    0  501  503 -0.00000000000E+00 -0.00000000000E+00 -0.10279952067E+03  0.10279952067E+03  0.00000000000E+00 0.  1.
          6    2    1    2  501    0 -0.12567364433E+03  0.55286662287E+02  0.90937406213E+02  0.23988366333E+03  0.17442499872E+03 0.  0.
         24    2    3    3    0    0 -0.80063576997E+02  0.94695316105E+02  0.25518310855E+02  0.15080466314E+03  0.81935846740E+02 0.  0.
         -6    2    1    2    0  502  0.12567364433E+03 -0.55286662287E+02  0.38237830540E+03  0.43903108962E+03  0.16638704670E+03 0.  0.
        -24    2    5    5    0    0  0.36560998830E+02 -0.13352398398E+02  0.29151923180E+03  0.30495272697E+03  0.80608374261E+02 0.  0.
          5    1    3    3  501    0 -0.45610067330E+02 -0.39408653818E+02  0.65419095358E+02  0.89079000191E+02  0.47000000000E+01 0. -1.
        -13    1    4    4    0    0 -0.53627978715E+01 -0.12875399573E+02  0.13298619214E+02  0.19271450079E+02  0.00000000000E+00 0.  1.
         14    1    4    4    0    0 -0.74700779125E+02  0.10757071568E+03  0.12219691641E+02  0.13153321306E+03  0.00000000000E+00 0. -1.
         -5    1    5    5    0  502  0.89112645496E+02 -0.41934263889E+02  0.90859073605E+02  0.13407836265E+03  0.47000000000E+01 0.  1.
         13    1    6    6    0    0  0.13227297134E+02 -0.43563796077E+02  0.10308957212E+03  0.11269527762E+03  0.00000000000E+00 0. -1.
        -14    1    6    6    0    0  0.23333701696E+02  0.30211397679E+02  0.18842965968E+03  0.19225744935E+03  0.00000000000E+00 0.  1.
</event>
<event>
12    1  0.8196217E-002  0.1787227E+03  0.7818608E-02  0.1169077E+00
         21   -1    0    0  503  502  0.00000000000E+00  0.00000000000E+00  0.79007745231E+03  0.79007745231E+03  0.00000000000E+00 0.  1.
         21   -1    0    0  501  503 -0.00000000000E+00 -0.00000000000E+00 -0.15383414736E+03  0.15383414736E+03  0.00000000000E+00 0.  1.
          6    2    1    2  501    0  0.39573965439E+02 -0.27691955391E+02 -0.87121750952E+02  0.19882657509E+03  0.17207226488E+03 0.  0.
         24    2    3    3    0    0  0.85046138738E+01 -0.77506678715E+02 -0.77859103728E+02  0.13920528779E+03  0.85067375719E+02 0.  0.
         -6    2    1    2    0  502 -0.39573965439E+02  0.27691955391E+02  0.72336505591E+03  0.74508502458E+03  0.17193529773E+03 0.  0.
        -24    2    5    5    0    0 -0.89345573363E+02 -0.23463873167E+01  0.50040839733E+03  0.51462618532E+03  0.80270850768E+02 0.  0.
          5    1    3    3  501    0  0.31069351565E+02  0.49814723323E+02 -0.92626472242E+01  0.59621287306E+02  0.47000000000E+01 0. -1.
        -13    1    4    4    0    0 -0.17285257975E+02 -0.35574973140E+02 -0.80725317789E+02  0.89894025326E+02  0.00000000000E+00 0.  1.
         14    1    4    4    0    0  0.25789871848E+02 -0.41931705575E+02  0.28662140611E+01  0.49311262460E+02  0.00000000000E+00 0. -1.
         -5    1    5    5    0  502  0.49771607924E+02  0.30038342708E+02  0.22295665858E+03  0.23045883926E+03  0.47000000000E+01 0.  1.
         13    1    6    6    0    0 -0.34402864209E+02 -0.35114228727E+02  0.30704459159E+03  0.31095489601E+03  0.00000000000E+00 0. -1.
        -14    1    6    6    0    0 -0.54942709154E+02  0.32767841410E+02  0.19336380574E+03  0.20367128931E+03  0.00000000000E+00 0.  1.
</event>
<event>
12    1  0.8196217E-002  0.2138012E+03  0.7818608E-02  0.1138661E+00
         21   -1    0    0  503  502  0.00000000000E+00  0.00000000000E+00  0.50063572140E+03  0.50063572140E+03  0.00000000000E+00 0.  1.
         21   -1    0    0  501  503 -0.00000000000E+00 -0.00000000000E+00 -0.94668812636E+02  0.94668812636E+02  0.00000000000E+00 0.  1.
          6    2    1    2  501    0 -0.25611820924E+00 -0.12674146849E+03  0.14544074797E+03  0.25828102878E+03  0.17173413529E+03 0.  0.
         24    2    3    3    0    0 -0.11622531709E+02 -0.14414049013E+03  0.68173396091E+02  0.17812957853E+03  0.78555526064E+02 0.  0.
         -6    2    1    2    0  502  0.25611820924E+00  0.12674146849E+03  0.26052616079E+03  0.33702350525E+03  0.17218448596E+03 0.  0.
        -24    2    5    5    0    0  0.78446397888E+01 -0.34174940447E+00  0.13613839017E+03  0.15897256475E+03  0.81712666715E+02 0.  0.
          5    1    3    3  501    0  0.11366413500E+02  0.17399021639E+02  0.77267351881E+02  0.80151450246E+02  0.47000000000E+01 0. -1.
        -13    1    4    4    0    0 -0.23640392485E+02 -0.13731886017E+03  0.79356845357E+02  0.16035225729E+03  0.00000000000E+00 0.  1.
         14    1    4    4    0    0  0.12017860775E+02 -0.68216299666E+01 -0.11183449266E+02  0.17777321241E+02  0.00000000000E+00 0. -1.
         -5    1    5    5    0  502 -0.75885215796E+01  0.12708321790E+03  0.12438777062E+03  0.17805094050E+03  0.47000000000E+01 0.  1.
         13    1    6    6    0    0  0.97995203216E+01 -0.78841620124E+01 -0.78155698107E+01  0.14807894538E+02  0.00000000000E+00 0. -1.
        -14    1    6    6    0    0 -0.19548805327E+01  0.75424126080E+01  0.14395395998E+03  0.14416467022E+03  0.00000000000E+00 0.  1.
</event>
<event>
12    1  0.8196217E-002  0.2488937E+03  0.7818608E-02  0.1114610E+00
         21   -1    0    0  503  502  0.00000000000E+00  0.00000000000E+00  0.52900633192E+03  0.52900633192E+03  0.00000000000E+00 0.  1.
         21   -1    0    0  501  503 -0.00000000000E+00 -0.00000000000E+00 -0.14077219173E+03  0.14077219173E+03  0.00000000000E+00 0. -1.
          6    2    1    2  501    0  0.69378410772E+02 -0.16508132529E+03  0.50556159250E+02  0.25028539009E+03  0.16739666488E+03 0.  0.
         24    2    3    3    0    0  0.77401020549E+01 -0.14482785584E+03 -0.32508633391E+01  0.16586519223E+03  0.80409432750E+02 0.  0.
         -6    2    1    2    0  502 -0.69378410772E+02  0.16508132529E+03  0.33767798094E+03  0.41949313357E+03  0.17286660307E+03 0.  0.
        -24    2    5    5    0    0  0.27695677328E+02  0.71204535963E+02  0.11866941376E+03  0.16215469366E+03  0.79840957095E+02 0.  0.
          5    1    3    3  501    0  0.61638308717E+02 -0.20253469454E+02  0.53807022589E+02  0.84420197858E+02  0.47000000000E+01 0. -1.
        -13    1    4    4    0    0 -0.16401026014E+02 -0.70749465934E+02  0.33191648563E+02  0.79850899297E+02  0.00000000000E+00 0.  1.
         14    1    4    4    0    0  0.24141128069E+02 -0.74078389902E+02 -0.36442511902E+02  0.86014292932E+02  0.00000000000E+00 0. -1.
         -5    1    5    5    0  502 -0.97074088100E+02  0.93876789327E+02  0.21900856718E+03  0.25733843991E+03  0.47000000000E+01 0.  1.
         13    1    6    6    0    0 -0.26890428513E+02  0.10551116834E+02  0.32417994370E+02  0.43420589253E+02  0.00000000000E+00 0. -1.
        -14    1    6    6    0    0  0.54586105841E+02  0.60653419128E+02  0.86251419388E+02  0.11873410441E+03  0.00000000000E+00 0.  1.
</event>
<event>
12    1  0.8196217E-002  0.1929771E+03  0.7818608E-02  0.1156097E+00
         21   -1    0    0  503  502  0.00000000000E+00  0.00000000000E+00  0.53500657374E+03  0.53500657374E+03  0.00000000000E+00 0. -1.
         21   -1    0    0  501  503 -0.00000000000E+00 -0.00000000000E+00 -0.74674848057E+02  0.74674848057E+02  0.00000000000E+00 0.  1.
          6    2    1    2  501    0 -0.53902706824E+02 -0.63800326800E+02  0.31397168704E+03  0.36853547202E+03  0.17396606098E+03 0.  0.
         24    2    3    3    0    0 -0.34836082170E+02 -0.18741928933E+02  0.30630159462E+03  0.31878895745E+03  0.78999493697E+02 0.  0.
         -6    2    1    2    0  502  0.53902706824E+02  0.63800326800E+02  0.14636003864E+03  0.24114594978E+03  0.17249383954E+03 0.  0.
        -24    2    5    5    0    0 -0.18260925016E+02  0.11458848980E+02  0.12458615750E+03  0.14925790942E+03  0.79318637666E+02 0.  0.
          5    1    3    3  501    0 -0.19066624654E+02 -0.45058397867E+02  0.76700924182E+01  0.49746514569E+02  0.47000000000E+01 0. -1.
        -11    1    4    4    0    0  0.10858623418E+02 -0.36687521465E+02  0.11088787287E+03  0.11730304464E+03  0.00000000000E+00 0.  1.
         12    1    4    4    0    0 -0.45694705587E+02  0.17945592532E+02  0.19541372175E+03  0.20148591281E+03  0.00000000000E+00 0. -1.
         -5    1    5    5    0  502  0.72163631840E+02  0.52341477821E+02  0.21773881144E+02  0.91888040358E+02  0.47000000000E+01 0.  1.
         13    1    6    6    0    0 -0.42628747786E+02  0.28293691347E+01  0.32688610876E+02  0.53793686883E+02  0.00000000000E+00 0. -1.
        -14    1    6    6    0    0  0.24367822769E+02  0.86294798449E+01  0.91897546623E+02  0.95464222535E+02  0.00000000000E+00 0.  1.
</event>
<event>
12    1  0.8196217E-002  0.1859325E+03  0.7818608E-02  0.1162327E+00
         21   -1    0    0  503  502  0.00000000000E+00  0.00000000000E+00  0.14331518134E+03  0.14331518134E+03  0.00000000000E+00 0.  1.
         21   -1    0    0  501  503 -0.00000000000E+00 -0.00000000000E+00 -0.28358755729E+03  0.28358755729E+03  0.00000000000E+00 0.  1.
          6    2    1    2  501    0 -0.16353881505E+02 -0.69995585186E+02  0.13049086984E+02  0.18638979925E+03  0.17147608348E+03 0.  0.
         24    2    3    3    0    0  0.54886813577E+02 -0.39183203966E+02 -0.70071042874E+01  0.10608425597E+03  0.81589730216E+02 0.  0.
         -6    2    1    2    0  502  0.16353881505E+02  0.69995585186E+02 -0.15332146294E+03  0.24051293938E+03  0.17079862888E+03 0.  0.
        -24    2    5    5    0    0 -0.33254715336E+02  0.72154023525E+01 -0.13092978359E+03  0.15729129832E+03  0.80249649052E+02 0.  0.
          5    1    3    3  501    0 -0.71240695082E+02 -0.30812381220E+02  0.20056191272E+02  0.80305543274E+02  0.47000000000E+01 0. -1.
        -13    1    4    4    0    0  0.20831527285E+01 -0.51008902151E+02  0.26387603987E+01  0.51119572381E+02  0.00000000000E+00 0.  1.
         14    1    4    4    0    0  0.52803660849E+02  0.11825698186E+02 -0.96458646861E+01  0.54964683590E+02  0.00000000000E+00 0. -1.
         -5    1    5    5    0  502  0.49608596841E+02  0.62780182833E+02 -0.22391679341E+02  0.83221641061E+02  0.47000000000E+01 0.  1.
         13    1    6    6    0    0  0.19541389635E+02 -0.19496623813E+02 -0.48820746071E+02  0.56084307038E+02  0.00000000000E+00 0. -1.
        -14    1    6    6    0    0 -0.52796104971E+02  0.26712026166E+02 -0.82109037524E+02  0.10120699129E+03  0.00000000000E+00 0.  1.
</event>
<event>
12    1  0.8196217E-002  0.1904742E+03  0.7818608E-02  0.1160985E+00
         21   -1    0    0  501  502  0.00000000000E+00  0.00000000000E+00  0.80311744965E+02  0.80311744965E+02  0.00000000000E+00 0.  1.
         21   -1    0    0  502  503 -0.00000000000E+00 -0.00000000000E+00 -0.42277448253E+03  0.42277448253E+03  0.00000000000E+00 0.  1.
         -6    2    1    2    0  503  0.33678832086E+02  0.15920473221E+02 -0.17436402697E+03  0.24904374572E+03  0.17387423094E+03 0.  0.
        -24    2    3    3    0    0  0.60998065401E+02  0.73398309318E+01 -0.19107670938E+03  0.21555685748E+03  0.78611785617E+02 0.  0.
          6    2    1    2  501    0 -0.33678832086E+02 -0.15920473221E+02 -0.16809871059E+03  0.25404248177E+03  0.18679582662E+03 0.  0.
         24    2    5    5    0    0  0.11669166973E+02 -0.63473365683E+02 -0.42183653554E+02  0.11193544398E+03  0.81148292541E+02 0.  0.
          5    1    5    5  501    0 -0.45347999059E+02  0.47552892462E+02 -0.12591505704E+03  0.14210703779E+03  0.47000000000E+01 0. -1.
        -11    1    6    6    0    0 -0.35073248296E+02 -0.28536643227E+02 -0.15856698271E+02  0.47915630359E+02  0.00000000000E+00 0.  1.
         12    1    6    6    0    0  0.46742415269E+02 -0.34936722456E+02 -0.26326955283E+02  0.64019813618E+02  0.00000000000E+00 0. -1.
         -5    1    3    3    0  503 -0.27319233316E+02  0.85806422893E+01  0.16712682411E+02  0.33486888246E+02  0.47000000000E+01 0.  1.
         13    1    4    4    0    0 -0.18690588964E+02 -0.35630707087E+01 -0.30193293897E+02  0.35688493734E+02  0.00000000000E+00 0. -1.
        -14    1    4    4    0    0  0.79688654365E+02  0.10902901640E+02 -0.16088341548E+03  0.17986836374E+03  0.00000000000E+00 0.  1.
</event>
<event>
12    1  0.8196217E-002  0.2302730E+03  0.7818608E-02  0.1126675E+00
         21   -1    0    0  503  502  0.00000000000E+00  0.00000000000E+00  0.47645533883E+03  0.47645533883E+03  0.00000000000E+00 0.  1.
         21   -1    0    0  501  503 -0.00000000000E+00 -0.00000000000E+00 -0.11066972571E+03  0.11066972571E+03  0.00000000000E+00 0.  1.
          6    2    1    2  501    0 -0.73811558079E+02 -0.12692354981E+03  0.18150193611E+03  0.29219096699E+03  0.17571247757E+03 0.  0.
         24    2    3    3    0    0 -0.62874637688E+02 -0.40324723737E+02  0.17249195414E+03  0.20431467508E+03  0.80073146558E+02 0.  0.
         -6    2    1    2    0  502  0.73811558079E+02  0.12692354981E+03  0.18428367701E+03  0.29493409755E+03  0.17739198033E+03 0.  0.
        -24    2    5    5    0    0  0.10236312432E+03  0.10852275466E+03  0.77290965205E+02  0.18258058592E+03  0.71458936127E+02 0.  0.
          5    1    3    3  501    0 -0.10936920390E+02 -0.86598826073E+02  0.90099819683E+01  0.87876291910E+02  0.47000000000E+01 0. -1.
        -11    1    4    4    0    0 -0.10124595257E+02 -0.36923494734E+02  0.20576257603E+02  0.43465322608E+02  0.00000000000E+00 0.  1.
         12    1    4    4    0    0 -0.52750042432E+02 -0.34012290035E+01  0.15191569654E+03  0.16084935247E+03  0.00000000000E+00 0. -1.
         -5    1    5    5    0  502 -0.28551566244E+02  0.18400795150E+02  0.10699271180E+03  0.11235351163E+03  0.47000000000E+01 0.  1.
         13    1    6    6    0    0  0.74980397598E+02  0.33979851897E+02  0.20163257416E+02  0.84754040072E+02  0.00000000000E+00 0. -1.
        -14    1    6    6    0    0  0.27382726724E+02  0.74542902764E+02  0.57127707789E+02  0.97826545848E+02  0.00000000000E+00 0.  1.
</event>
<event>
12    1  0.8196217E-002  0.1736195E+03  0.7818608E-02  0.1174251E+00
         21   -1    0    0  501  502  0.00000000000E+00  0.00000000000E+00  0.52061508794E+02  0.52061508794E+02  0.00000000000E+00 0. -1.
         21   -1    0    0  502  503 -0.00000000000E+00 -0.00000000000E+00 -0.58247971680E+03  0.58247971680E+03  0.00000000000E+00 0. -1.
         -6    2    1    2    0  503 -0.16216430737E+02  0.82568583387E+01 -0.29459617042E+03  0.34170038603E+03  0.17216591373E+03 0.  0.
        -24    2    3    3    0    0  0.29437113435E+02 -0.81609639201E+01 -0.55153929942E+02  0.97347224585E+02  0.74171296111E+02 0.  0.
          6    2    1    2  501    0  0.16216430737E+02 -0.82568583387E+01 -0.23582203758E+03  0.29284083956E+03  0.17266318533E+03 0.  0.
         24    2    5    5    0    0  0.42516261975E+02  0.53781647360E+02 -0.15390084419E+03  0.18666349151E+03  0.80359760421E+02 0.  0.
          5    1    5    5  501    0 -0.26299831238E+02 -0.62038505698E+02 -0.81921193391E+02  0.10617734805E+03  0.47000000000E+01 0. -1.
        -11    1    6    6    0    0 -0.34013385245E+00 -0.77151171087E+01 -0.83414059392E+02  0.83770782659E+02  0.00000000000E+00 0.  1.
         12    1    6    6    0    0  0.42856395828E+02  0.61496764469E+02 -0.70486784799E+02  0.10289270885E+03  0.00000000000E+00 0. -1.
         -5    1    3    3    0  503 -0.45653544172E+02  0.16417822259E+02 -0.23944224048E+03  0.24435316145E+03  0.47000000000E+01 0.  1.
         11    1    4    4    0    0  0.21822317994E+02 -0.39044841359E+02 -0.46193451226E+02  0.64300452063E+02  0.00000000000E+00 0. -1.
        -12    1    4    4    0    0  0.76147954407E+01  0.30883877439E+02 -0.89604787160E+01  0.33046772521E+02  0.00000000000E+00 0.  1.
</event>
<event>
12    1  0.8196217E-002  0.2384437E+03  0.7818608E-02  0.1121024E+00
         21   -1    0    0  503  502  0.00000000000E+00  0.00000000000E+00  0.77931137577E+02  0.77931137577E+02  0.00000000000E+00 0.  1.
         21   -1    0    0  501  503 -0.00000000000E+00 -0.00000000000E+00 -0.81179393474E+03  0.81179393474E+03  0.00000000000E+00 0.  1.
          6    2    1    2  501    0  0.15623724302E+03  0.51844762546E+02 -0.22317758476E+03  0.32659395832E+03  0.17250340217E+03 0.  0.
         24    2    3    3    0    0  0.14307244918E+03  0.39546108416E+02 -0.10336372212E+03  0.20534207020E+03  0.97199209562E+02 0.  0.
         -6    2    1    2    0  502 -0.15623724302E+03 -0.51844762546E+02 -0.51068521240E+03  0.56313111400E+03  0.17093656682E+03 0.  0.
        -24    2    5    5    0    0 -0.13045953096E+03 -0.36523771653E+02 -0.21853233214E+03  0.26940570031E+03  0.80432431606E+02 0.  0.
          5    1    3    3  501    0  0.13164793842E+02  0.12298654130E+02 -0.11981386265E+03  0.12125188812E+03  0.47000000000E+01 0. -1.
        -13    1    4    4    0    0  0.82120682947E+02 -0.29676469369E+01 -0.10204275719E+03  0.13101655541E+03  0.00000000000E+00 0.  1.
         14    1    4    4    0    0  0.60951766234E+02  0.42513755353E+02 -0.13209649286E+01  0.74325514795E+02  0.00000000000E+00 0. -1.
         -5    1    5    5    0  502 -0.25777712058E+02 -0.15320990893E+02 -0.29215288026E+03  0.29372541369E+03  0.47000000000E+01 0.  1.
         11    1    6    6    0    0 -0.78186883864E+01 -0.31529344421E+02 -0.28691104567E+02  0.43340638309E+02  0.00000000000E+00 0. -1.
        -12    1    6    6    0    0 -0.12264084258E+03 -0.49944272320E+01 -0.18984122757E+03  0.22606506200E+03  0.00000000000E+00 0.  1.
</event>
<event>
12    1  0.8196217E-002  0.2165273E+03  0.7818608E-02  0.1136719E+00
         21   -1    0    0  501  502  0.00000000000E+00  0.00000000000E+00  0.44879283279E+03  0.44879283279E+03  0.00000000000E+00 0. -1.
         21   -1    0    0  502  503 -0.00000000000E+00 -0.00000000000E+00 -0.11148953979E+03  0.11148953979E+03  0.00000000000E+00 0. -1.
         -6    2    1    2    0  503 -0.12892428194E+03  0.69405956530E+01  0.96034360889E+02  0.23686848021E+03  0.17382300223E+03 0.  0.
        -24    2    3    3    0    0 -0.10880034699E+03  0.55232165676E+02  0.10910272728E+03  0.18273973837E+03  0.81254533707E+02 0.  0.
          6    2    1    2  501    0  0.12892428194E+03 -0.69405956530E+01  0.24126893211E+03  0.32341389237E+03  0.17238389088E+03 0.  0.
         24    2    5    5    0    0  0.59486874812E+02  0.63577387931E+02  0.12060712599E+03  0.16728669752E+03  0.76537492736E+02 0.  0.
          5    1    5    5  501    0  0.69437407126E+02 -0.70517983584E+02  0.12066180612E+03  0.15612719486E+03  0.47000000000E+01 0. -1.
        -13    1    6    6    0    0  0.25685950514E+02  0.63823776718E+02  0.11353449610E+03  0.13275286940E+03  0.00000000000E+00 0.  1.
         14    1    6    6    0    0  0.33800924298E+02 -0.24638878730E+00  0.70726298912E+01  0.34533828117E+02  0.00000000000E+00 0. -1.
         -5    1    3    3    0  503 -0.20123934948E+02 -0.48291570023E+02 -0.13068366395E+02  0.54128741842E+02  0.47000000000E+01 0.  1.
         11    1    4    4    0    0 -0.74596404034E+02  0.63594702374E+02  0.41362076975E+02  0.10639422483E+03  0.00000000000E+00 0. -1.
        -12    1    4    4    0    0 -0.34203942956E+02 -0.83625366973E+01  0.67740650309E+02  0.76345513542E+02  0.00000000000E+00 0.  1.
</event>
<event>
12    1  0.8196217E-002  0.2155644E+03  0.7818608E-02  0.1137420E+00
         21   -1    0    0  501  502  0.00000000000E+00  0.00000000000E+00  0.88669258379E+02  0.88669258379E+02  0.00000000000E+00 0.  1.
         21   -1    0    0  502  503 -0.00000000000E+00 -0.00000000000E+00 -0.17446993759E+04  0.17446993759E+04  0.00000000000E+00 0.  1.
         -6    2    1    2    0  503 -0.72978802499E+02 -0.10704104861E+03 -0.15949445511E+04  0.16093162866E+04  0.17107629146E+03 0.  0.
        -24    2    3    3    0    0 -0.85783240478E+02 -0.74139864640E+02 -0.15208802332E+04  0.15271332304E+04  0.78763797386E+02 0.  0.
          6    2    1    2  501    0  0.72978802499E+02  0.10704104861E+03 -0.61085566357E+02  0.22405234762E+03  0.17229137052E+03 0.  0.
         24    2    5    5    0    0  0.63765581197E+02  0.13087488515E+03 -0.69602909579E+01  0.16401427097E+03  0.75219349409E+02 0.  0.
          5    1    5    5  501    0  0.92132213019E+01 -0.23833836534E+02 -0.54125275399E+02  0.60038076649E+02  0.47000000000E+01 0. -1.
        -13    1    6    6    0    0  0.39287205066E+02  0.29717555731E+02 -0.29646234295E+02  0.57493624067E+02  0.00000000000E+00 0.  1.
         14    1    6    6    0    0  0.24478376132E+02  0.10115732942E+03  0.22685943337E+02  0.10652064691E+03  0.00000000000E+00 0. -1.
         -5    1    3    3    0  503  0.12804437979E+02 -0.32901183973E+02 -0.74064317897E+02  0.82183056187E+02  0.47000000000E+01 0.  1.
         11    1    4    4    0    0 -0.13324436131E+01  0.77855084626E+01 -0.40313360887E+03  0.40321098218E+03  0.00000000000E+00 0. -1.
        -12    1    4    4    0    0 -0.84450796865E+02 -0.81925373102E+02 -0.11177466244E+04  0.11239222483E+04  0.00000000000E+00 0.  1.
</event>
<event>
12    1  0.8196217E-002  0.1804143E+03  0.7818608E-02  0.1167629E+00
         21   -1    0    0  501  502  0.00000000000E+00  0.00000000000E+00  0.18071725623E+03  0.18071725623E+03  0.00000000000E+00 0. -1.
         21   -1    0    0  502  503 -0.00000000000E+00 -0.00000000000E+00 -0.24273727244E+03  0.24273727244E+03  0.00000000000E+00 0. -1.
         -6    2    1    2    0  503  0.44097077931E+02 -0.27903831715E+02  0.77391924197E+02  0.19545233420E+03  0.17172340815E+03 0.  0.
        -24    2    3    3    0    0  0.23428935177E+02  0.47548903990E+02  0.19982109832E+02  0.98301604732E+02  0.80337460162E+02 0.  0.
          6    2    1    2  501    0 -0.44097077931E+02  0.27903831715E+02 -0.13941194040E+03  0.22800219448E+03  0.17270244773E+03 0.  0.
         24    2    5    5    0    0 -0.90319854748E+01  0.29386590490E+02 -0.16402579988E+03  0.18487805552E+03  0.79563081409E+02 0.  0.
          5    1    5    5  501    0 -0.35065092457E+02 -0.14827587757E+01  0.24613859479E+02  0.43124138960E+02  0.47000000000E+01 0. -1.
        -13    1    6    6    0    0 -0.16914419852E+02 -0.17029643059E+02 -0.14333150422E+02  0.27956136047E+02  0.00000000000E+00 0.  1.
         14    1    6    6    0    0  0.78824343776E+01  0.46416233549E+02 -0.14969264946E+03  0.15692191947E+03  0.00000000000E+00 0. -1.
         -5    1    3    3    0  503  0.20668142754E+02 -0.75452735705E+02  0.57409814364E+02  0.97150729465E+02  0.47000000000E+01 0.  1.
         13    1    4    4    0    0 -0.52131693873E+01  0.19777752205E+02  0.46225878199E+02  0.50548673895E+02  0.00000000000E+00 0. -1.
        -14    1    4    4    0    0  0.28642104565E+02  0.27771151786E+02 -0.26243768367E+02  0.47752930837E+02  0.00000000000E+00 0.  1.
</event>
<event>
12    1  0.8196217E-002  0.2053996E+03  0.7818608E-02  0.1145319E+00
         21   -1    0    0  501  502  0.00000000000E+00  0.00000000000E+00  0.87533192778E+02  0.87533192778E+02  0.00000000000E+00 0.  1.
         21   -1    0    0  502  503 -0.00000000000E+00 -0.00000000000E+00 -0.54792778497E+03  0.54792778497E+03  0.00000000000E+00 0. -1.
         -6    2    1    2    0  503 -0.54278165816E+02  0.10021366168E+03 -0.34111569220E+03  0.39818200038E+03  0.17088034613E+03 0.  0.
        -24    2    3    3    0    0 -0.80036045449E+02  0.37032428826E+02 -0.28754363499E+03  0.31130627384E+03  0.80331094590E+02 0.  0.
          6    2    1    2  501    0  0.54278165816E+02 -0.10021366168E+03 -0.11927889999E+03  0.23727897736E+03  0.17054313192E+03 0.  0.
         24    2    5    5    0    0 -0.32094564932E+02 -0.73158047903E+02 -0.50768709852E+02  0.12366563745E+03  0.79583710105E+02 0.  0.
          5    1    5    5  501    0  0.86372730749E+02 -0.27055613774E+02 -0.68510190139E+02  0.11361333991E+03  0.47000000000E+01 0. -1.
        -13    1    6    6    0    0 -0.18276874080E+02 -0.16109455746E+02  0.20142952270E+02  0.31611662669E+02  0.00000000000E+00 0.  1.
         14    1    6    6    0    0 -0.13817690853E+02 -0.57048592157E+02 -0.70911662122E+02  0.92053974778E+02  0.00000000000E+00 0. -1.
         -5    1    3    3    0  503  0.25757879633E+02  0.63181232851E+02 -0.53572057214E+02  0.86875726540E+02  0.47000000000E+01 0.  1.
         11    1    4    4    0    0  0.87231969251E+01 -0.35042366122E+01 -0.94851998341E+02  0.95316711170E+02  0.00000000000E+00 0. -1.
        -12    1    4    4    0    0 -0.88759242374E+02  0.40536665438E+02 -0.19269163664E+03  0.21598956267E+03  0.00000000000E+00 0.  1.
</event>
<event>
12    1  0.8196217E-002  0.1938870E+03  0.7818608E-02  0.1155015E+00
         21   -1    0    0  503  502  0.00000000000E+00  0.00000000000E+00  0.75831475283E+03  0.75831475283E+03  0.00000000000E+00 0. -1.
         21   -1    0    0  501  503 -0.00000000000E+00 -0.00000000000E+00 -0.98326428756E+02  0.98326428756E+02  0.00000000000E+00 0.  1.
          6    2    1    2  501    0  0.84352292884E+02  0.25332565739E+02  0.28368677601E+02  0.19595136548E+03  0.17272842141E+03 0.  0.
         24    2    3    3    0    0  0.11663701193E+02 -0.53178507499E+02  0.18681648863E+02  0.88417424286E+02  0.67116624824E+02 0.  0.
         -6    2    1    2    0  502 -0.84352292884E+02 -0.25332565739E+02  0.63161964647E+03  0.66068981610E+03  0.17265748490E+03 0.  0.
        -24    2    5    5    0    0 -0.69477560048E+02 -0.36796953950E+02  0.20532731151E+03  0.23395812673E+03  0.79974702490E+02 0.  0.
          5    1    3    3  501    0  0.72688591691E+02  0.78511073238E+02  0.96870287379E+01  0.10753394119E+03  0.47000000000E+01 0. -1.
        -11    1    4    4    0    0  0.40421131040E+01 -0.29847825896E+02 -0.24447713484E+02  0.38793325246E+02  0.00000000000E+00 0.  1.
         12    1    4    4    0    0  0.76215880894E+01 -0.23330681604E+02  0.43129362347E+02  0.49624099040E+02  0.00000000000E+00 0. -1.
         -5    1    5    5    0  502 -0.14874732837E+02  0.11464388211E+02  0.42629233496E+03  0.42673168937E+03  0.47000000000E+01 0.  1.
         11    1    6    6    0    0 -0.46896813223E+01 -0.64385537000E+01  0.12935005991E+03  0.12959508511E+03  0.00000000000E+00 0. -1.
        -12    1    6    6    0    0 -0.64787878725E+02 -0.30358400250E+02  0.75977251604E+02  0.10436304162E+03  0.00000000000E+00 0.  1.
</event>
<event>
12    1  0.8196217E-002  0.1757862E+03  0.7818608E-02  0.1173095E+00
         21   -1    0    0  501  502  0.00000000000E+00  0.00000000000E+00  0.65937057180E+03  0.65937057180E+03  0.00000000000E+00 0. -1.
         21   -1    0    0  502  503 -0.00000000000E+00 -0.00000000000E+00 -0.10830416814E+03  0.10830416814E+03  0.00000000000E+00 0. -1.
         -6    2    1    2    0  503 -0.29431267224E+02  0.15058633237E+02 -0.14854964817E+02  0.17641279638E+03  0.17264947965E+03 0.  0.
        -24    2    3    3    0    0  0.39402963527E+02 -0.99769535944E+01 -0.40125385982E+02  0.98787954244E+02  0.80603226771E+02 0.  0.
          6    2    1    2  501    0  0.29431267224E+02 -0.15058633237E+02  0.56592136848E+03  0.59126194356E+03  0.16802002463E+03 0.  0.
         24    2    5    5    0    0 -0.45200629041E+02 -0.24033170476E+02  0.26700992956E+03  0.28300782668E+03  0.78603036378E+02 0.  0.
          5    1    5    5  501    0  0.74631896265E+02  0.89745372393E+01  0.29891143892E+03  0.30825411688E+03  0.47000000000E+01 0. -1.
        -11    1    6    6    0    0 -0.12862821514E+02 -0.33549594912E+02  0.41077742997E+02  0.54574796984E+02  0.00000000000E+00 0.  1.
         12    1    6    6    0    0 -0.32337807526E+02  0.95164244359E+01  0.22593218656E+03  0.22843302969E+03  0.00000000000E+00 0. -1.
         -5    1    3    3    0  503 -0.68834230751E+02  0.25035586831E+02  0.25270421165E+02  0.77624842138E+02  0.47000000000E+01 0.  1.
         13    1    4    4    0    0  0.29681211107E+02  0.33981442881E+02 -0.17410015756E+02  0.48361362695E+02  0.00000000000E+00 0. -1.
        -14    1    4    4    0    0  0.97217524199E+01 -0.43958396476E+02 -0.22715370226E+02  0.50426591550E+02  0.00000000000E+00 0.  1.
</event>
<event>
12    1  0.8196217E-002  0.1751317E+03  0.7818608E-02  0.1172629E+00
         21   -1    0    0  503  502  0.00000000000E+00  0.00000000000E+00  0.14819539837E+04  0.14819539837E+04  0.00000000000E+00 0.  1.
         21   -1    0    0  501  503 -0.00000000000E+00 -0.00000000000E+00 -0.22425163627E+02  0.22425163627E+02  0.00000000000E+00 0.  1.
          6    2    1    2  501    0  0.38009084859E+01 -0.17659189088E+02  0.93968085094E+03  0.95586150059E+03  0.17419762578E+03 0.  0.
         24    2    3    3    0    0  0.65759488893E+02  0.89280296627E+01  0.64359509724E+03  0.65215998688E+03  0.81816741588E+02 0.  0.
         -6    2    1    2    0  502 -0.38009084859E+01  0.17659189088E+02  0.51984796911E+03  0.54851764671E+03  0.17407872903E+03 0.  0.
        -24    2    5    5    0    0  0.14622132112E+02  0.21264623861E+01  0.51741315675E+03  0.52384595575E+03  0.80497714177E+02 0.  0.
          5    1    3    3  501    0 -0.61958580407E+02 -0.26587218751E+02  0.29608575370E+03  0.30370151372E+03  0.47000000000E+01 0. -1.
        -13    1    4    4    0    0  0.58758681295E+02 -0.29343587315E+01  0.20309248506E+03  0.21144207381E+03  0.00000000000E+00 0.  1.
         14    1    4    4    0    0  0.70008075986E+01  0.11862388394E+02  0.44050261218E+03  0.44071791307E+03  0.00000000000E+00 0. -1.
         -5    1    5    5    0  502 -0.18423040598E+02  0.15532726702E+02  0.24348123619E+01  0.24671690962E+02  0.47000000000E+01 0.  1.
         13    1    6    6    0    0 -0.38689590051E+01  0.16908087633E+02  0.22707280714E+02  0.28573989371E+02  0.00000000000E+00 0. -1.
        -14    1    6    6    0    0  0.18491091118E+02 -0.14781625247E+02  0.49470587604E+03  0.49527196638E+03  0.00000000000E+00 0.  1.
</event>
<event>
12    1  0.8196217E-002  0.2169931E+03  0.7818608E-02  0.1136887E+00
         21   -1    0    0  503  502  0.00000000000E+00  0.00000000000E+00  0.78325404905E+03  0.78325404905E+03  0.00000000000E+00 0. -1.
         21   -1    0    0  501  503 -0.00000000000E+00 -0.00000000000E+00 -0.93961429148E+02  0.93961429148E+02  0.00000000000E+00 0.  1.
          6    2    1    2  501    0 -0.84597767458E+01  0.13162776125E+03  0.75343587936E+02  0.22604775938E+03  0.16740220406E+03 0.  0.
         24    2    3    3    0    0 -0.25592824977E+02  0.14911375456E+03  0.28925923765E+02  0.17336008672E+03  0.79543108519E+02 0.  0.
         -6    2    1    2    0  502  0.84597767458E+01 -0.13162776125E+03  0.61394903196E+03  0.65116771881E+03  0.17230365296E+03 0.  0.
        -24    2    5    5    0    0 -0.48573365884E+02 -0.97472522107E+02  0.51111310563E+03  0.52862516513E+03  0.79672416947E+02 0.  0.
          5    1    3    3  501    0  0.17133048231E+02 -0.17485993308E+02  0.46417664171E+02  0.52687672664E+02  0.47000000000E+01 0. -1.
        -13    1    4    4    0    0 -0.50146495025E+02  0.60847083859E+02  0.70243161652E+01  0.79160467375E+02  0.00000000000E+00 0.  1.
         14    1    4    4    0    0  0.24553670048E+02  0.88266670696E+02  0.21901607600E+02  0.94199619341E+02  0.00000000000E+00 0. -1.
         -5    1    5    5    0  502  0.57033142630E+02 -0.34155239141E+02  0.10283592634E+03  0.12254255369E+03  0.47000000000E+01 0.  1.
         13    1    6    6    0    0  0.53835351029E+01 -0.36695279095E+01  0.18323474848E+03  0.18335054114E+03  0.00000000000E+00 0. -1.
        -14    1    6    6    0    0 -0.53956900987E+02 -0.93802994197E+02  0.32787835714E+03  0.34527462399E+03  0.00000000000E+00 0.  1.
</event>
<event>
12    1  0.8196217E-002  0.2720038E+03  0.7818608E-02  0.1100144E+00
         21   -1    0    0  501  502  0.00000000000E+00  0.00000000000E+00  0.40051242552E+03  0.40051242552E+03  0.00000000000E+00 0.  1.
         21   -1    0    0  502  503 -0.00000000000E+00 -0.00000000000E+00 -0.20861008852E+03  0.20861008852E+03  0.00000000000E+00 0. -1.
         -6    2    1    2    0  503 -0.13995226946E+03  0.15807376698E+03  0.19906051721E+03  0.33706257160E+03  0.17149966218E+03 0.  0.
        -24    2    3    3    0    0 -0.11704447059E+03  0.11813924096E+03  0.58410477908E+02  0.18899482639E+03  0.68198036053E+02 0.  0.
          6    2    1    2  501    0  0.13995226946E+03 -0.15807376698E+03 -0.71581802153E+01  0.27205994244E+03  0.17143925805E+03 0.  0.
         24    2    5    5    0    0  0.15418941050E+01 -0.78982969727E+02  0.75569477937E+00  0.11238055856E+03  0.79925790106E+02 0.  0.
          5    1    5    5  501    0  0.13841037536E+03 -0.79090797250E+02 -0.79138749946E+01  0.15967938387E+03  0.47000000000E+01 0. -1.
        -13    1    6    6    0    0  0.95119342454E+01  0.11705118462E+02 -0.13489739637E+02  0.20235112225E+02  0.00000000000E+00 0.  1.
         14    1    6    6    0    0 -0.79700401404E+01 -0.90688088188E+02  0.14245434416E+02  0.92145446338E+02  0.00000000000E+00 0. -1.
         -5    1    3    3    0  503 -0.22907798875E+02  0.39934526013E+02  0.14065003930E+03  0.14806774521E+03  0.47000000000E+01 0.  1.
         13    1    4    4    0    0 -0.10498659718E+03  0.12665010034E+03  0.57275909424E+02  0.17419231700E+03  0.00000000000E+00 0. -1.
        -14    1    4    4    0    0 -0.12057873411E+02 -0.85108593739E+01  0.11345684839E+01  0.14802509386E+02  0.00000000000E+00 0.  1.
</event>
<event>
12    1  0.8196217E-002  0.2037218E+03  0.7818608E-02  0.1146680E+00
         21   -1    0    0  501  502  0.00000000000E+00  0.00000000000E+00  0.44102639229E+03  0.44102639229E+03  0.00000000000E+00 0. -1.
         21   -1    0    0  502  503 -0.00000000000E+00 -0.00000000000E+00 -0.94681946295E+02  0.94681946295E+02  0.00000000000E+00 0. -1.
         -6    2    1    2    0  503  0.11059061016E+03 -0.71378225866E+01  0.15047652859E+03  0.25310114754E+03  0.17069204336E+03 0.  0.
        -24    2    3    3    0    0  0.12878421569E+03 -0.46458308008E+02  0.13173551506E+03  0.20566251936E+03  0.78734219663E+02 0.  0.
          6    2    1    2  501    0 -0.11059061016E+03  0.71378225866E+01  0.19586791740E+03  0.28260719104E+03  0.17094253945E+03 0.  0.
         24    2    5    5    0    0 -0.56001058694E+02 -0.20565658413E+02  0.27534926700E+02  0.10342686916E+03  0.79874152237E+02 0.  0.
          5    1    5    5  501    0 -0.54589551464E+02  0.27703481000E+02  0.16833299071E+03  0.17918032188E+03  0.47000000000E+01 0. -1.
        -11    1    6    6    0    0 -0.37777393460E+02 -0.49799600512E+02  0.29086346384E+02  0.68943072268E+02  0.00000000000E+00 0.  1.
         12    1    6    6    0    0 -0.18223665234E+02  0.29233942099E+02 -0.15514196842E+01  0.34483796895E+02  0.00000000000E+00 0. -1.
         -5    1    3    3    0  503 -0.18193605533E+02  0.39320485421E+02  0.18741013525E+02  0.47438628184E+02  0.47000000000E+01 0.  1.
         13    1    4    4    0    0  0.64938649140E+02 -0.11389312483E+02  0.11237984945E+03  0.13029188445E+03  0.00000000000E+00 0. -1.
        -14    1    4    4    0    0  0.63845566552E+02 -0.35068995525E+02  0.19355665614E+02  0.75370634910E+02  0.00000000000E+00 0.  1.
</event>
<event>
12    1  0.8196217E-002  0.2145909E+03  0.7818608E-02  0.1137994E+00
         21   -1    0    0  501  502  0.00000000000E+00  0.00000000000E+00  0.28083325263E+03  0.28083325263E+03  0.00000000000E+00 0.  1.
         21   -1    0    0  502  503 -0.00000000000E+00 -0.00000000000E+00 -0.51160986447E+03  0.51160986447E+03  0.00000000000E+00 0.  1.
         -6    2    1    2    0  503 -0.86384747788E+02  0.94883118562E+02 -0.44202997692E+03  0.49136521059E+03  0.17200040362E+03 0.  0.
        -24    2    3    3    0    0  0.15381392019E+02  0.63874066281E+02 -0.15728596309E+03  0.18736002652E+03  0.77771600125E+02 0.  0.
          6    2    1    2  501    0  0.86384747788E+02 -0.94883118562E+02  0.21125336509E+03  0.30107790651E+03  0.17191506823E+03 0.  0.
         24    2    5    5    0    0  0.51813626169E+02 -0.52189990616E+02  0.21994834444E+03  0.24526072018E+03  0.79794107940E+02 0.  0.
          5    1    5    5  501    0  0.34571121619E+02 -0.42693127946E+02 -0.86949793513E+01  0.55817186329E+02  0.47000000000E+01 0. -1.
        -11    1    6    6    0    0  0.80566293390E+01  0.20742730395E+02  0.61937568776E+02  0.65813619916E+02  0.00000000000E+00 0.  1.
         12    1    6    6    0    0  0.43756996830E+02 -0.72932721012E+02  0.15801077566E+03  0.17944710026E+03  0.00000000000E+00 0. -1.
         -5    1    3    3    0  503 -0.10176613981E+03  0.31009052281E+02 -0.28474401383E+03  0.30400518408E+03  0.47000000000E+01 0.  1.
         13    1    4    4    0    0  0.12731804558E+02  0.29851266664E+02 -0.14865976287E+03  0.15216084275E+03  0.00000000000E+00 0. -1.
        -14    1    4    4    0    0  0.26495874615E+01  0.34022799618E+02 -0.86262002199E+01  0.35199183766E+02  0.00000000000E+00 0.  1.
</event>
<event>
12    1  0.8196217E-002  0.2260439E+03  0.7818608E-02  0.1129764E+00
         21   -1    0    0  503  502  0.00000000000E+00  0.00000000000E+00  0.76467789118E+03  0.76467789118E+03  0.00000000000E+00 0.  1.
         21   -1    0    0  501  503 -0.00000000000E+00 -0.00000000000E+00 -0.43453429516E+03  0.43453429516E+03  0.00000000000E+00 0.  1.
          6    2    1    2  501    0  0.93425000634E+02 -0.11189901094E+03 -0.38679067272E+03  0.44799873858E+03  0.17276060278E+03 0.  0.
         24    2    3    3    0    0  0.11481690235E+01  0.10542859805E+02 -0.19443880430E+03  0.20197362473E+03  0.53613676246E+02 0.  0.
         -6    2    1    2    0  502 -0.93425000634E+02  0.11189901094E+03  0.71693426874E+03  0.75121344777E+03  0.17052061173E+03 0.  0.
        -24    2    5    5    0    0  0.13252403883E+02  0.13647675873E+02  0.26022176243E+03  0.27200389351E+03  0.76869156204E+02 0.  0.
          5    1    3    3  501    0  0.92276831611E+02 -0.12244187074E+03 -0.19235186842E+03  0.24602511385E+03  0.47000000000E+01 0. -1.
        -11    1    4    4    0    0 -0.14388176416E+02 -0.12106629890E+02 -0.13723991996E+03  0.13852214891E+03  0.00000000000E+00 0.  1.
         12    1    4    4    0    0  0.15536345439E+02  0.22649489695E+02 -0.57198884346E+02  0.63451475818E+02  0.00000000000E+00 0. -1.
         -5    1    5    5    0  502 -0.10667740452E+03  0.98251335063E+02  0.45671250631E+03  0.47920955426E+03  0.47000000000E+01 0.  1.
         11    1    6    6    0    0  0.34764552763E+02 -0.10967137866E+02  0.69292340689E+02  0.78296109226E+02  0.00000000000E+00 0. -1.
        -12    1    6    6    0    0 -0.21512148879E+02  0.24614813739E+02  0.19092942174E+03  0.19370778428E+03  0.00000000000E+00 0.  1.
</event>
<event>
12    1  0.8196217E-002  0.2312625E+03  0.7818608E-02  0.1126156E+00
         21   -1    0    0  501  502  0.00000000000E+00  0.00000000000E+00  0.10521155575E+03  0.10521155575E+03  0.00000000000E+00 0. -1.
         21   -1    0    0  502  503 -0.00000000000E+00 -0.00000000000E+00 -0.59051082364E+03  0.59051082364E+03  0.00000000000E+00 0.  1.
         -6    2    1    2    0  503 -0.15166459165E+03 -0.30030618679E+02 -0.37529167325E+03  0.43962865813E+03  0.16889502840E+03 0.  0.
        -24    2    3    3    0    0 -0.94096227045E+02 -0.67957437280E+02 -0.32248277035E+03  0.35266067323E+03  0.83078878458E+02 0.  0.
          6    2    1    2  501    0  0.15166459165E+03  0.30030618679E+02 -0.11000759463E+03  0.25609372126E+03  0.17198353635E+03 0.  0.
         24    2    5    5    0    0  0.16877655968E+03 -0.10387334451E+02 -0.85735955556E+02  0.20571879845E+03  0.79850774230E+02 0.  0.
          5    1    5    5  501    0 -0.17111968032E+02  0.40417953131E+02 -0.24271639074E+02  0.50374922814E+02  0.47000000000E+01 0. -1.
        -13    1    6    6    0    0  0.11659315292E+03 -0.24610406146E+02 -0.20392655079E+02  0.12089456472E+03  0.00000000000E+00 0.  1.
         14    1    6    6    0    0  0.52183406758E+02  0.14223071695E+02 -0.65343300478E+02  0.84824233722E+02  0.00000000000E+00 0. -1.
         -5    1    3    3    0  503 -0.57568364601E+02  0.37926818600E+02 -0.52808902909E+02  0.86967984905E+02  0.47000000000E+01 0.  1.
         11    1    4    4    0    0 -0.83620465004E+02 -0.34262286862E+02 -0.13884119909E+03  0.16565978701E+03  0.00000000000E+00 0. -1.
        -12    1    4    4    0    0 -0.10475762042E+02 -0.33695150418E+02 -0.18364157125E+03  0.18700088621E+03  0.00000000000E+00 0.  1.
</event>
<event>
12    1  0.8196217E-002  0.2234645E+03  0.7818608E-02  0.1131801E+00
         21   -1    0    0  501  502  0.00000000000E+00  0.00000000000E+00  0.69859264463E+03  0.69859264463E+03  0.00000000000E+00 0. -1.
         21   -1    0    0  502  503 -0.00000000000E+00 -0.00000000000E+00 -0.81618901887E+02  0.81618901887E+02  0.00000000000E+00 0. -1.
         -6    2    1    2    0  503 -0.13844407045E+03 -0.40166566193E+01  0.16708272438E+03  0.27902157419E+03  0.17536678107E+03 0.  0.
        -24    2    3    3    0    0 -0.36177293869E+02  0.26380023009E+02  0.14221480695E+03  0.16937233780E+03  0.80356924333E+02 0.  0.
          6    2    1    2  501    0  0.13844407045E+03  0.40166566193E+01  0.44989101836E+03  0.50118997233E+03  0.17206558571E+03 0.  0.
         24    2    5    5    0    0  0.92961350552E+02 -0.62862923449E+02  0.25197877133E+03  0.28733744472E+03  0.80473263230E+02 0.  0.
          5    1    5    5  501    0  0.45482719900E+02  0.66879580068E+02  0.19791224703E+03  0.21385252761E+03  0.47000000000E+01 0. -1.
        -11    1    6    6    0    0  0.39105109430E+01 -0.51897406825E+01  0.10951761540E+03  0.10971022553E+03  0.00000000000E+00 0.  1.
         12    1    6    6    0    0  0.89050839609E+02 -0.57673182766E+02  0.14246115593E+03  0.17762721918E+03  0.00000000000E+00 0. -1.
         -5    1    3    3    0  503 -0.10226677658E+03 -0.30396679628E+02  0.24867917431E+02  0.10964923640E+03  0.47000000000E+01 0.  1.
         13    1    4    4    0    0 -0.26494020802E+02  0.23296065387E+02  0.98647336957E+01  0.36632673554E+02  0.00000000000E+00 0. -1.
        -14    1    4    4    0    0 -0.96832730664E+01  0.30839576213E+01  0.13235007326E+03  0.13273966424E+03  0.00000000000E+00 0.  1.
</event>
<event>
12    1  0.8196217E-002  0.2300700E+03  0.7818608E-02  0.1127214E+00
         21   -1    0    0  501  502  0.00000000000E+00  0.00000000000E+00  0.97094370361E+02  0.97094370361E+02  0.00000000000E+00 0.  1.
         21   -1    0    0  502  503 -0.00000000000E+00 -0.00000000000E+00 -0.53687272849E+03  0.53687272849E+03  0.00000000000E+00 0.  1.
         -6    2    1    2    0  503 -0.13659863257E+03  0.69509350897E+02 -0.21924333278E+03  0.31526987269E+03  0.16684339177E+03 0.  0.
        -24    2    3    3    0    0 -0.11182280892E+03  0.69520214751E+02 -0.79387159857E+02  0.17315836485E+03  0.79649841906E+02 0.  0.
          6    2    1    2  501    0  0.13659863257E+03 -0.69509350897E+02 -0.22053502535E+03  0.31869722616E+03  0.17158522160E+03 0.  0.
         24    2    5    5    0    0  0.52123843219E+02 -0.33437414815E+02 -0.45341339994E+02  0.12082835039E+03  0.93320401867E+02 0.  0.
          5    1    5    5  501    0  0.84474789353E+02 -0.36071936082E+02 -0.17519368535E+03  0.19786887577E+03  0.47000000000E+01 0. -1.
        -13    1    6    6    0    0  0.32983381173E+02 -0.65745504688E+02 -0.37102009272E+02  0.82382849624E+02  0.00000000000E+00 0.  1.
         14    1    6    6    0    0  0.19140462046E+02  0.32308089872E+02 -0.82393307224E+01  0.38445500768E+02  0.00000000000E+00 0. -1.
         -5    1    3    3    0  503 -0.24775823656E+02 -0.10863853475E-01 -0.13985617293E+03  0.14211150784E+03  0.47000000000E+01 0.  1.
         13    1    4    4    0    0 -0.26381416769E+01 -0.18205928536E+01 -0.35356023324E+02  0.35501024424E+02  0.00000000000E+00 0. -1.
        -14    1    4    4    0    0 -0.10918466724E+03  0.71340807604E+02 -0.44031136532E+02  0.13765734043E+03  0.00000000000E+00 0.  1.
</event>
<event>
12    1  0.8196217E-002  0.1816751E+03  0.7818608E-02  0.1167016E+00
         21   -1    0    0  501  502  0.00000000000E+00  0.00000000000E+00  0.19430810153E+04  0.19430810153E+04  0.00000000000E+00 0.  1.
         21   -1    0    0  502  503 -0.00000000000E+00 -0.00000000000E+00 -0.17506170812E+02  0.17506170812E+02  0.00000000000E+00 0.  1.
         -6    2    1    2    0  503  0.50565521491E+02 -0.29563441350E+02  0.73968789352E+03  0.76086484088E+03  0.16836346763E+03 0.  0.
        -24    2    3    3    0    0  0.65497357724E+02 -0.97742864476E+01  0.25563791648E+03  0.27615767087E+03  0.80789072854E+02 0.  0.
          6    2    1    2  501    0 -0.50565521491E+02  0.29563441350E+02  0.11858869510E+04  0.11997223453E+04  0.17197376590E+03 0.  0.
         24    2    5    5    0    0  0.35050713920E+02 -0.20672551407E+01  0.45292814709E+03  0.46108756478E+03  0.78898731760E+02 0.  0.
          5    1    5    5  501    0 -0.85616235411E+02  0.31630696491E+02  0.73295880391E+03  0.73863478050E+03  0.47000000000E+01 0. -1.
        -13    1    6    6    0    0 -0.49192834500E+01 -0.28258205204E+02  0.77634304473E+02  0.82763583429E+02  0.00000000000E+00 0.  1.
         14    1    6    6    0    0  0.39969997370E+02  0.26190950063E+02  0.37529384262E+03  0.37832398135E+03  0.00000000000E+00 0. -1.
         -5    1    3    3    0  503 -0.14931836232E+02 -0.19789154902E+02  0.48404997704E+03  0.48470717001E+03  0.47000000000E+01 0.  1.
         11    1    4    4    0    0  0.17641967065E+02 -0.42621539005E+02  0.12349066322E+03  0.13182480226E+03  0.00000000000E+00 0. -1.
        -12    1    4    4    0    0  0.47855390659E+02  0.32847252557E+02  0.13214725326E+03  0.14433286861E+03  0.00000000000E+00 0.  1.
</event>
<event>
12    1  0.8196217E-002  0.2142211E+03  0.7818608E-02  0.1138475E+00
         21   -1    0    0  503  502  0.00000000000E+00  0.00000000000E+00  0.92509168112E+02  0.92509168112E+02  0.00000000000E+00 0.  1.
         21   -1    0    0  501  503 -0.00000000000E+00 -0.00000000000E+00 -0.81840046029E+03  0.81840046029E+03  0.00000000000E+00 0.  1.
          6    2    1    2  501    0  0.11740906724E+03 -0.50223001729E+02 -0.64933256042E+03  0.68341916032E+03  0.17065091767E+03 0.  0.
         24    2    3    3    0    0  0.28155649472E+02 -0.78297885466E+02 -0.29194605195E+03  0.31395796058E+03  0.80086230380E+02 0.  0.
         -6    2    1    2    0  502 -0.11740906724E+03  0.50223001729E+02 -0.76558731759E+02  0.22749046808E+03  0.17199835664E+03 0.  0.
        -24    2    5    5    0    0 -0.33574640778E+02  0.15125859912E+02  0.28088158030E+02  0.88807080591E+02  0.75774037771E+02 0.  0.
          5    1    3    3  501    0  0.89253417763E+02  0.28074883736E+02 -0.35738650847E+03  0.36946119974E+03  0.47000000000E+01 0. -1.
        -11    1    4    4    0    0  0.51246791148E+02 -0.73631805800E+02 -0.25308220974E+03  0.26851160369E+03  0.00000000000E+00 0.  1.
         12    1    4    4    0    0 -0.23091141676E+02 -0.46660796655E+01 -0.38863842208E+02  0.45446356890E+02  0.00000000000E+00 0. -1.
         -5    1    5    5    0  502 -0.83834426457E+02  0.35097141817E+02 -0.10464688979E+03  0.13868338749E+03  0.47000000000E+01 0.  1.
         11    1    6    6    0    0 -0.47283028777E+02 -0.10596860684E+02  0.18461366335E+00  0.48456293181E+02  0.00000000000E+00 0. -1.
        -12    1    6    6    0    0  0.13708387998E+02  0.25722720597E+02  0.27903544366E+02  0.40350787410E+02  0.00000000000E+00 0.  1.
</event>
<event>
12    1  0.8196217E-002  0.2762443E+03  0.7818608E-02  0.1097775E+00
         21   -1    0    0  503  502  0.00000000000E+00  0.00000000000E+00  0.19541819789E+03  0.19541819789E+03  0.00000000000E+00 0.  1.
         21   -1    0    0  501  503 -0.00000000000E+00 -0.00000000000E+00 -0.50154479106E+03  0.50154479106E+03  0.00000000000E+00 0.  1.
          6    2    1    2  501    0  0.16160723180E+03  0.14347685682E+03  0.11011012723E+02  0.27646369928E+03  0.17207099932E+03 0.  0.
         24    2    3    3    0    0  0.92794526785E+02  0.14469755297E+03  0.52010821645E+02  0.19621562888E+03  0.79039492748E+02 0.  0.
         -6    2    1    2    0  502 -0.16160723180E+03 -0.14347685682E+03 -0.31713760590E+03  0.42049928967E+03  0.17187462213E+03 0.  0.
        -24    2    5    5    0    0 -0.99972021500E+02 -0.25153796501E+02 -0.95383412758E+02  0.16166293611E+03  0.80061169875E+02 0.  0.
          5    1    3    3  501    0  0.68812705017E+02 -0.12206961525E+01 -0.40999808923E+02  0.80248070397E+02  0.47000000000E+01 0. -1.
        -13    1    4    4    0    0  0.24306738881E+02  0.62563009937E+01 -0.13432825360E+02  0.28467519286E+02  0.00000000000E+00 0.  1.
         14    1    4    4    0    0  0.68487787903E+02  0.13844125197E+03  0.65443647005E+02  0.16774810960E+03  0.00000000000E+00 0. -1.
         -5    1    5    5    0  502 -0.61635210301E+02 -0.11832306031E+03 -0.22175419314E+03  0.25883635356E+03  0.47000000000E+01 0.  1.
         11    1    6    6    0    0 -0.86614710343E+00 -0.15960262986E+02  0.82391169850E+01  0.17982303914E+02  0.00000000000E+00 0. -1.
        -12    1    6    6    0    0 -0.99105874397E+02 -0.91935335158E+01 -0.10362252974E+03  0.14368063220E+03  0.00000000000E+00 0.  1.
</event>
<event>
12    1  0.8196217E-002  0.1924606E+03  0.7818608E-02  0.1156329E+00
         21   -1    0    0  503  502  0.00000000000E+00  0.00000000000E+00  0.18192422010E+03  0.18192422010E+03  0.00000000000E+00 0. -1.
         21   -1    0    0  501  503 -0.00000000000E+00 -0.00000000000E+00 -0.23640419252E+03  0.23640419252E+03  0.00000000000E+00 0.  1.
          6    2    1    2  501    0  0.42791897179E+02 -0.79187954060E+02 -0.10551552807E+03  0.21921609921E+03  0.16976540565E+03 0.  0.
         24    2    3    3    0    0  0.91236013280E+02 -0.62057256754E+02 -0.95685691750E+02  0.16668983095E+03  0.80340742474E+02 0.  0.
         -6    2    1    2    0  502 -0.42791897179E+02  0.79187954060E+02  0.51035555650E+02  0.19911231341E+03  0.17011527526E+03 0.  0.
        -24    2    5    5    0    0  0.55689304829E+01  0.55263973314E+02 -0.29407220446E+02  0.10213676632E+03  0.80510960041E+02 0.  0.
          5    1    3    3  501    0 -0.48444116101E+02 -0.17130697306E+02 -0.98298363229E+01  0.52526268258E+02  0.47000000000E+01 0. -1.
        -13    1    4    4    0    0  0.14251795288E+02 -0.56547173259E+02 -0.31333414937E+02  0.66200297311E+02  0.00000000000E+00 0.  1.
         14    1    4    4    0    0  0.76984217991E+02 -0.55100834957E+01 -0.64352276813E+02  0.10048953364E+03  0.00000000000E+00 0. -1.
         -5    1    5    5    0  502 -0.48360827662E+02  0.23923980746E+02  0.80442776096E+02  0.96975547087E+02  0.47000000000E+01 0.  1.
         11    1    6    6    0    0 -0.28052019941E+02  0.45675071099E+02  0.40386361116E+01  0.53753497787E+02  0.00000000000E+00 0. -1.
        -12    1    6    6    0    0  0.33620950423E+02  0.95889022151E+01 -0.33445856557E+02  0.48383268533E+02  0.00000000000E+00 0.  1.
</event>
<event>
12    1  0.8196217E-002  0.2228927E+03  0.7818608E-02  0.1132900E+00
         21   -1    0    0  501  502  0.00000000000E+00  0.00000000000E+00  0.25811017058E+03  0.25811017058E+03  0.00000000000E+00 0. -1.
         21   -1    0    0  502  503 -0.00000000000E+00 -0.00000000000E+00 -0.90739726879E+03  0.90739726879E+03  0.00000000000E+00 0. -1.
         -6    2    1    2    0  503  0.13908474412E+03 -0.85521844229E+01 -0.84287635122E+03  0.87028216827E+03  0.16593011496E+03 0.  0.
        -24    2    3    3    0    0  0.92083952000E+02  0.49736748973E+02 -0.39836471855E+03  0.41948359264E+03  0.79491113253E+02 0.  0.
          6    2    1    2  501    0 -0.13908474412E+03  0.85521844229E+01  0.19358925301E+03  0.29522527109E+03  0.17396395002E+03 0.  0.
         24    2    5    5    0    0 -0.38004387071E+02 -0.10545582677E+02  0.17060852708E+03  0.18971618593E+03  0.73002869380E+02 0.  0.
          5    1    5    5  501    0 -0.10108035705E+03  0.19097767100E+02  0.22980725930E+02  0.10550908517E+03  0.47000000000E+01 0. -1.
        -13    1    6    6    0    0 -0.10864989462E+02  0.27434237947E+02  0.10585808482E+03  0.10989367375E+03  0.00000000000E+00 0.  1.
         14    1    6    6    0    0 -0.27139397610E+02 -0.37979820624E+02  0.64750442265E+02  0.79822512180E+02  0.00000000000E+00 0. -1.
         -5    1    3    3    0  503  0.47000792116E+02 -0.58288933396E+02 -0.44451163267E+03  0.45079857563E+03  0.47000000000E+01 0.  1.
         13    1    4    4    0    0  0.37989571486E+02  0.52970729469E+02 -0.30173350056E+03  0.30869436516E+03  0.00000000000E+00 0. -1.
        -14    1    4    4    0    0  0.54094380515E+02 -0.32339804967E+01 -0.96631217999E+02  0.11078922748E+03  0.00000000000E+00 0.  1.
</event>
<event>
12    1  0.8196217E-002  0.2596643E+03  0.7818608E-02  0.1107874E+00
         21   -1    0    0  501  502  0.00000000000E+00  0.00000000000E+00  0.21126042863E+03  0.21126042863E+03  0.00000000000E+00 0.  1.
         21   -1    0    0  502  503 -0.00000000000E+00 -0.00000000000E+00 -0.38447643376E+03  0.38447643376E+03  0.00000000000E+00 0. -1.
         -6    2    1    2    0  503  0.81378045397E+02  0.17587862395E+03 -0.21381069536E+03  0.33636373616E+03  0.17282902799E+03 0.  0.
        -24    2    3    3    0    0  0.95260779955E+02  0.59427873882E+02 -0.12054900212E+03  0.18645262604E+03  0.87328296987E+02 0.  0.
          6    2    1    2  501    0 -0.81378045397E+02 -0.17587862395E+03  0.40594690235E+02  0.25937312623E+03  0.16754346630E+03 0.  0.
         24    2    5    5    0    0 -0.48509086227E+02 -0.16696596501E+03 -0.17248181997E+02  0.19208500072E+03  0.79802147846E+02 0.  0.
          5    1    5    5  501    0 -0.32868959171E+02 -0.89126589345E+01  0.57842872232E+02  0.67288125507E+02  0.47000000000E+01 0. -1.
        -13    1    6    6    0    0 -0.29907393442E+02 -0.15404746325E+03  0.92879056783E+01  0.15719840428E+03  0.00000000000E+00 0.  1.
         14    1    6    6    0    0 -0.18601692785E+02 -0.12918501765E+02 -0.26536087675E+02  0.34886596444E+02  0.00000000000E+00 0. -1.
         -5    1    3    3    0  503 -0.13882734558E+02  0.11645075006E+03 -0.93261693245E+02  0.14991111012E+03  0.47000000000E+01 0.  1.
         13    1    4    4    0    0  0.59945141043E+02  0.43003402480E+02 -0.16841491449E+02  0.75672639665E+02  0.00000000000E+00 0. -1.
        -14    1    4    4    0    0  0.35315638912E+02  0.16424471402E+02 -0.10370751067E+03  0.11077998638E+03  0.00000000000E+00 0.  1.
</event>
<event>
12    1  0.8196217E-002  0.1733823E+03  0.7818608E-02  0.1174374E+00
         21   -1    0    0  503  502  0.00000000000E+00  0.00000000000E+00  0.52559496598E+02  0.52559496598E+02  0.00000000000E+00 0.  1.
         21   -1    0    0  501  503 -0.00000000000E+00 -0.00000000000E+00 -0.60632902388E+03  0.60632902388E+03  0.00000000000E+00 0.  1.
          6    2    1    2  501    0  0.23232998591E+01 -0.26930239115E+02 -0.19829410640E+03  0.26338355012E+03  0.17122998084E+03 0.  0.
         24    2    3    3    0    0 -0.79849115194E+01 -0.39022526840E+02 -0.27409410157E+02  0.91697347836E+02  0.77914128513E+02 0.  0.
         -6    2    1    2    0  502 -0.23232998591E+01  0.26930239115E+02 -0.35547542088E+03  0.39550497036E+03  0.17126228781E+03 0.  0.
        -24    2    5    5    0    0 -0.47299472519E+02  0.27369358707E+02 -0.32701714284E+03  0.34207265315E+03  0.84185310030E+02 0.  0.
          5    1    3    3  501    0  0.10308211379E+02  0.12092287724E+02 -0.17088469625E+03  0.17168620229E+03  0.47000000000E+01 0. -1.
        -11    1    4    4    0    0  0.20667382978E+02 -0.52070027424E+02 -0.17467031531E+02  0.58681561547E+02  0.00000000000E+00 0.  1.
         12    1    4    4    0    0 -0.28652294498E+02  0.13047500584E+02 -0.99423786265E+01  0.33015786288E+02  0.00000000000E+00 0. -1.
         -5    1    5    5    0  502  0.44976172660E+02 -0.43911959131E+00 -0.28458278038E+02  0.53432317206E+02  0.47000000000E+01 0.  1.
         11    1    6    6    0    0  0.13851341402E+02 -0.17697800078E+02 -0.10628285463E+03  0.10863294608E+03  0.00000000000E+00 0. -1.
        -12    1    6    6    0    0 -0.61150813921E+02  0.45067158784E+02 -0.22073428822E+03  0.23343970707E+03  0.00000000000E+00 0.  1.
</event>
<event>
12    1  0.8196217E-002  0.1833194E+03  0.7818608E-02  0.1164906E+00
         21   -1    0    0  501  502  0.00000000000E+00  0.00000000000E+00  0.75771611273E+02  0.75771611273E+02  0.00000000000E+00 0.  1.
         21   -1    0    0  502  503 -0.00000000000E+00 -0.00000000000E+00 -0.67649975542E+03  0.67649975542E+03  0.00000000000E+00 0.  1.
         -6    2    1    2    0  503 -0.28641227513E+02  0.54022204016E+02 -0.52180612341E+03  0.55268510282E+03  0.17158226601E+03 0.  0.
        -24    2    3    3    0    0 -0.41747301862E+02  0.83858887801E+02 -0.49401621296E+03  0.50959953671E+03  0.82852392059E+02 0.  0.
          6    2    1    2  501    0  0.28641227513E+02 -0.54022204016E+02 -0.78922020743E+02  0.19958626388E+03  0.17282150598E+03 0.  0.
         24    2    5    5    0    0  0.76882310558E+02 -0.45657324226E+02 -0.88529427302E+02  0.14947074165E+03  0.80675660390E+02 0.  0.
          5    1    5    5  501    0 -0.48241083045E+02 -0.83648797907E+01  0.96074065592E+01  0.50115522227E+02  0.47000000000E+01 0. -1.
        -13    1    6    6    0    0  0.58108528002E+02 -0.26614263864E+02 -0.77516766998E+01  0.64381740884E+02  0.00000000000E+00 0.  1.
         14    1    6    6    0    0  0.18773782556E+02 -0.19043060362E+02 -0.80777750602E+02  0.85089000768E+02  0.00000000000E+00 0. -1.
         -5    1    3    3    0  503  0.13106074349E+02 -0.29836683784E+02 -0.27789910442E+02  0.43085566104E+02  0.47000000000E+01 0.  1.
         11    1    4    4    0    0 -0.91962112602E+01 -0.12484446742E+02 -0.15189061649E+03  0.15268002846E+03  0.00000000000E+00 0. -1.
        -12    1    4    4    0    0 -0.32551090601E+02  0.96343334543E+02 -0.34212559647E+03  0.35691950826E+03  0.00000000000E+00 0.  1.
</event>
<event>
12    1  0.8196217E-002  0.2268731E+03  0.7818608E-02  0.1129941E+00
         21   -1    0    0  501  502  0.00000000000E+00  0.00000000000E+00  0.27468463818E+03  0.27468463818E+03  0.00000000000E+00 0. -1.
         21   -1    0    0  502  503 -0.00000000000E+00 -0.00000000000E+00 -0.18361065768E+03  0.18361065768E+03  0.00000000000E+00 0.  1.
         -6    2    1    2    0  503 -0.14932727212E+03 -0.17548380170E+02  0.63948985191E+02  0.23571352726E+03  0.16989648137E+03 0.  0.
        -24    2    3    3    0    0 -0.94030816247E+02  0.55323999513E+02  0.34885915739E+02  0.13961548483E+03  0.79830552803E+02 0.  0.
          6    2    1    2  501    0  0.14932727212E+03  0.17548380170E+02  0.27124995312E+02  0.22258176860E+03  0.16186506263E+03 0.  0.
         24    2    5    5    0    0  0.95502993370E+01  0.19890852830E+02  0.11051682347E+02  0.81785707982E+02  0.77973765483E+02 0.  0.
          5    1    5    5  501    0  0.13977697278E+03 -0.23424726602E+01  0.16073312965E+02  0.14079606062E+03  0.47000000000E+01 0. -1.
        -13    1    6    6    0    0  0.31155517557E+02 -0.83376195197E+01 -0.17041408599E+02  0.36477277592E+02  0.00000000000E+00 0.  1.
         14    1    6    6    0    0 -0.21605218220E+02  0.28228472350E+02  0.28093090946E+02  0.45308430390E+02  0.00000000000E+00 0. -1.
         -5    1    3    3    0  503 -0.55296455869E+02 -0.72872379683E+02  0.29063069453E+02  0.96098042427E+02  0.47000000000E+01 0.  1.
         11    1    4    4    0    0 -0.10863247413E+03  0.50140398736E+02  0.32046163891E+02  0.12386295105E+03  0.00000000000E+00 0. -1.
        -12    1    4    4    0    0  0.14601657886E+02  0.51836007772E+01  0.28397518482E+01  0.15752533783E+02  0.00000000000E+00 0.  1.
</event>
<event>
12    1  0.8196217E-002  0.2957664E+03  0.7818608E-02  0.1088783E+00
         21   -1    0    0  501  502  0.00000000000E+00  0.00000000000E+00  0.53468882578E+03  0.53468882578E+03  0.00000000000E+00 0. -1.
         21   -1    0    0  502  503 -0.00000000000E+00 -0.00000000000E+00 -0.15789893902E+03  0.15789893902E+03  0.00000000000E+00 0.  1.
         -6    2    1    2    0  503 -0.15453923423E+02 -0.23979946043E+03  0.17157526483E+03  0.33260056724E+03  0.15310931016E+03 0.  0.
        -24    2    3    3    0    0 -0.11681988694E+02 -0.78826281988E+02  0.27784253911E+02  0.11667341172E+03  0.80564686099E+02 0.  0.
          6    2    1    2  501    0  0.15453923423E+02  0.23979946043E+03  0.20521462193E+03  0.35998719756E+03  0.17243879024E+03 0.  0.
         24    2    5    5    0    0 -0.15294338823E+02  0.14719345795E+03  0.48109758806E+02  0.17498623717E+03  0.80036263300E+02 0.  0.
          5    1    5    5  501    0  0.30748262246E+02  0.92606002477E+02  0.15710486313E+03  0.18500096039E+03  0.47000000000E+01 0. -1.
        -11    1    6    6    0    0 -0.32346982479E+02  0.96080130823E+02  0.62650937700E+02  0.11917574757E+03  0.00000000000E+00 0.  1.
         12    1    6    6    0    0  0.17052643656E+02  0.51113327129E+02 -0.14541178893E+02  0.55810489600E+02  0.00000000000E+00 0. -1.
         -5    1    3    3    0  503 -0.37719347282E+01 -0.16097317844E+03  0.14379101092E+03  0.21592715552E+03  0.47000000000E+01 0.  1.
         13    1    4    4    0    0 -0.10725047730E+01 -0.81796977591E+02  0.47130699922E+02  0.94409738293E+02  0.00000000000E+00 0. -1.
        -14    1    4    4    0    0 -0.10609483921E+02  0.29706956028E+01 -0.19346446011E+02  0.22263673432E+02  0.00000000000E+00 0.  1.
</event>
<event>
12    1  0.8196217E-002  0.1812516E+03  0.7818608E-02  0.1166614E+00
         21   -1    0    0  503  502  0.00000000000E+00  0.00000000000E+00  0.37403265453E+03  0.37403265453E+03  0.00000000000E+00 0.  1.
         21   -1    0    0  501  503 -0.00000000000E+00 -0.00000000000E+00 -0.11530149528E+03  0.11530149528E+03  0.00000000000E+00 0.  1.
          6    2    1    2  501    0  0.54111635909E+02 -0.16392845794E+01  0.98900007754E+01  0.18152124678E+03  0.17297801746E+03 0.  0.
         24    2    3    3    0    0  0.55271514972E+02  0.63793139188E+02  0.11376935161E+02  0.11589314020E+03  0.78595676200E+02 0.  0.
         -6    2    1    2    0  502 -0.54111635909E+02  0.16392845794E+01  0.24884115848E+03  0.30781290303E+03  0.17290490080E+03 0.  0.
        -24    2    5    5    0    0 -0.16208391631E+01  0.34758141037E+02  0.59933814105E+02  0.10891539888E+03  0.84022297949E+02 0.  0.
          5    1    3    3  501    0 -0.11598790623E+01 -0.65432423767E+02 -0.14869343852E+01  0.65628106581E+02  0.47000000000E+01 0. -1.
        -13    1    4    4    0    0  0.47662461029E+02 -0.30955535723E+01  0.84869806490E+01  0.48511044967E+02  0.00000000000E+00 0.  1.
         14    1    4    4    0    0  0.76090539423E+01  0.66888692760E+02  0.28899545116E+01  0.67382095234E+02  0.00000000000E+00 0. -1.
         -5    1    5    5    0  502 -0.52490796746E+02 -0.33118856458E+02  0.18890734437E+03  0.19889750414E+03  0.47000000000E+01 0.  1.
         11    1    6    6    0    0 -0.31840009452E+02  0.35473327468E+01 -0.32889161307E+01  0.32205383724E+02  0.00000000000E+00 0. -1.
        -12    1    6    6    0    0  0.30219170289E+02  0.31210808290E+02  0.63222730236E+02  0.76710015158E+02  0.00000000000E+00 0.  1.
</event>
<event>
12    1  0.8196217E-002  0.2328310E+03  0.7818608E-02  0.1124853E+00
         21   -1    0    0  503  502  0.00000000000E+00  0.00000000000E+00  0.51017439191E+02  0.51017439191E+02  0.00000000000E+00 0. -1.
         21   -1    0    0  501  503 -0.00000000000E+00 -0.00000000000E+00 -0.15500201173E+04  0.15500201173E+04  0.00000000000E+00 0. -1.
          6    2    1    2  501    0  0.14719611840E+03 -0.49737479916E+02 -0.12019053121E+04  0.12242494250E+04  0.17340634684E+03 0.  0.
         24    2    3    3    0    0  0.30699759286E+02 -0.75863722545E+02 -0.55624914813E+03  0.56763084900E+03  0.78063348168E+02 0.  0.
         -6    2    1    2    0  502 -0.14719611840E+03  0.49737479916E+02 -0.29709736607E+03  0.37678813157E+03  0.17193585137E+03 0.  0.
        -24    2    5    5    0    0 -0.12588185326E+03  0.22021150769E+02 -0.11076871437E+03  0.18714913441E+03  0.80149350380E+02 0.  0.
          5    1    3    3  501    0  0.11649635912E+03  0.26126242629E+02 -0.64565616395E+03  0.65661857595E+03  0.47000000000E+01 0. -1.
        -11    1    4    4    0    0  0.50331060893E+02 -0.71361080885E+02 -0.36394069389E+03  0.37427055485E+03  0.00000000000E+00 0.  1.
         12    1    4    4    0    0 -0.19631301607E+02 -0.45026416600E+01 -0.19230845423E+03  0.19336029415E+03  0.00000000000E+00 0. -1.
         -5    1    5    5    0  502 -0.21314265145E+02  0.27716329148E+02 -0.18632865170E+03  0.18963899716E+03  0.47000000000E+01 0.  1.
         13    1    6    6    0    0 -0.43347493022E+02  0.17242677903E+02 -0.90824504072E+02  0.10210487566E+03  0.00000000000E+00 0. -1.
        -14    1    6    6    0    0 -0.82534360237E+02  0.47784728661E+01 -0.19944210295E+02  0.85044258754E+02  0.00000000000E+00 0.  1.
</event>
<event>
12    1  0.8196217E-002  0.1883467E+03  0.7818608E-02  0.1160932E+00
         21   -1    0    0  503  502  0.00000000000E+00  0.00000000000E+00  0.10585634203E+03  0.10585634203E+03  0.00000000000E+00 0. -1.
         21   -1    0    0  501  503 -0.00000000000E+00 -0.00000000000E+00 -0.38328531559E+03  0.38328531559E+03  0.00000000000E+00 0. -1.
          6    2    1    2  501    0 -0.33824901812E+02  0.61598568392E+02 -0.23320744177E+03  0.29976689112E+03  0.17474544488E+03 0.  0.
         24    2    3    3    0    0 -0.62072070349E+02 -0.18507733876E+02 -0.12891937943E+03  0.16518230010E+03  0.80433250240E+02 0.  0.
         -6    2    1    2    0  502  0.33824901812E+02 -0.61598568392E+02 -0.44221531795E+02  0.18937476650E+03  0.17020208783E+03 0.  0.
        -24    2    5    5    0    0  0.45866230987E+02 -0.50086725092E+02  0.32974617140E+02  0.11026186266E+03  0.80361444770E+02 0.  0.
          5    1    3    3  501    0  0.28247168537E+02  0.80106302268E+02 -0.10428806234E+03  0.13458459102E+03  0.47000000000E+01 0. -1.
        -11    1    4    4    0    0 -0.89826038939E+01 -0.25873345701E+02 -0.20607054368E+01  0.27465682176E+02  0.00000000000E+00 0.  1.
         12    1    4    4    0    0 -0.53089466455E+02  0.73656118248E+01 -0.12685867399E+03  0.13771661793E+03  0.00000000000E+00 0. -1.
         -5    1    5    5    0  502 -0.12041329175E+02 -0.11511843300E+02 -0.77196148935E+02  0.79112903845E+02  0.47000000000E+01 0.  1.
         13    1    6    6    0    0  0.43046830579E+02 -0.11018956240E+02 -0.16287178775E+02  0.47325671807E+02  0.00000000000E+00 0. -1.
        -14    1    6    6    0    0  0.28194004077E+01 -0.39067768852E+02  0.49261795916E+02  0.62936190849E+02  0.00000000000E+00 0.  1.
</event>
<event>
12    1  0.8196217E-002  0.1774181E+03  0.7818608E-02  0.1170365E+00
         21   -1    0    0  501  502  0.00000000000E+00  0.00000000000E+00  0.14952158147E+03  0.14952158147E+03  0.00000000000E+00 0. -1.
         21   -1    0    0  502  503 -0.00000000000E+00 -0.00000000000E+00 -0.31994194813E+03  0.31994194813E+03  0.00000000000E+00 0. -1.
         -6    2    1    2    0  503 -0.35685384573E+02 -0.15871349469E+02 -0.22257921937E+03  0.28453727679E+03  0.17290056848E+03 0.  0.
        -24    2    3    3    0    0 -0.86291770434E+02 -0.80882310588E+01 -0.19331034332E+03  0.22537360274E+03  0.76893971475E+02 0.  0.
          6    2    1    2  501    0  0.35685384573E+02  0.15871349469E+02  0.52158852716E+02  0.18492625281E+03  0.17306596042E+03 0.  0.
         24    2    5    5    0    0 -0.38457105937E+02  0.26134934645E+02 -0.11238072723E+02  0.86723858567E+02  0.72337746442E+02 0.  0.
          5    1    5    5  501    0  0.74142490509E+02 -0.10263585176E+02  0.63396925439E+02  0.98202394241E+02  0.47000000000E+01 0. -1.
        -11    1    6    6    0    0 -0.17451916223E+02 -0.24782757301E+02 -0.89144936414E+01  0.31594661514E+02  0.00000000000E+00 0.  1.
         12    1    6    6    0    0 -0.21005189714E+02  0.50917691945E+02 -0.23235790811E+01  0.55129197053E+02  0.00000000000E+00 0. -1.
         -5    1    3    3    0  503  0.50606385861E+02 -0.77831184101E+01 -0.29268876052E+02  0.59163674053E+02  0.47000000000E+01 0.  1.
         13    1    4    4    0    0 -0.57617723178E+02 -0.35127509889E+02 -0.16043776505E+03  0.17405177514E+03  0.00000000000E+00 0. -1.
        -14    1    4    4    0    0 -0.28674047255E+02  0.27039278830E+02 -0.32872578273E+02  0.51321827598E+02  0.00000000000E+00 0.  1.
</event>
<event>
12    1  0.8196217E-002  0.2634967E+03  0.7818608E-02  0.1105221E+00
         21   -1    0    0  503  502  0.00000000000E+00  0.00000000000E+00  0.47236248102E+03  0.47236248102E+03  0.00000000000E+00 0.  1.
         21   -1    0    0  501  503 -0.00000000000E+00 -0.00000000000E+00 -0.29525702924E+03  0.29525702924E+03  0.00000000000E+00 0.  1.
          6    2    1    2  501    0 -0.38671047057E+02  0.19573776772E+03 -0.18407663056E+03  0.32053672746E+03  0.17044314049E+03 0.  0.
         24    2    3    3    0    0  0.34905065830E+02  0.14107090958E+03 -0.14785407336E+03  0.22186518437E+03  0.79018781781E+02 0.  0.
         -6    2    1    2    0  502  0.38671047057E+02 -0.19573776772E+03  0.36118208233E+03  0.44708278281E+03  0.17210983264E+03 0.  0.
        -24    2    5    5    0    0 -0.40636085864E+02 -0.13217814104E+03  0.25190945946E+03  0.29777758000E+03  0.78043314518E+02 0.  0.
          5    1    3    3  501    0 -0.73576112887E+02  0.54666858135E+02 -0.36222557191E+02  0.98671543088E+02  0.47000000000E+01 0. -1.
        -13    1    4    4    0    0  0.26165102710E+02  0.65790705084E+02 -0.20574548935E+02  0.73731550500E+02  0.00000000000E+00 0.  1.
         14    1    4    4    0    0  0.87399631195E+01  0.75280204501E+02 -0.12727952443E+03  0.14813363387E+03  0.00000000000E+00 0. -1.
         -5    1    5    5    0  502  0.79307132921E+02 -0.63559626677E+02  0.10927262287E+03  0.14930520281E+03  0.47000000000E+01 0.  1.
         11    1    6    6    0    0 -0.26065656109E+02 -0.72754181658E+02  0.64592257970E+02  0.10072114558E+03  0.00000000000E+00 0. -1.
        -12    1    6    6    0    0 -0.14570429755E+02 -0.59423959384E+02  0.18731720149E+03  0.19705643442E+03  0.00000000000E+00 0.  1.
</event>
<event>
12    1  0.8196217E-002  0.1922169E+03  0.7818608E-02  0.1156992E+00
         21   -1    0    0  503  502  0.00000000000E+00  0.00000000000E+00  0.16023156515E+03  0.16023156515E+03  0.00000000000E+00 0.  1.
         21   -1    0    0  501  503 -0.00000000000E+00 -0.00000000000E+00 -0.90654148577E+03  0.90654148577E+03  0.00000000000E+00 0.  1.
          6    2    1    2  501    0 -0.25218607278E+02 -0.77268206183E+02 -0.83410702559E+03  0.85545421699E+03  0.17164216668E+03 0.  0.
         24    2    3    3    0    0 -0.65234123969E+02 -0.50333047982E+02 -0.74783514182E+03  0.75650133803E+03  0.79044091894E+02 0.  0.
         -6    2    1    2    0  502  0.25218607278E+02  0.77268206183E+02  0.87797104977E+02  0.21131883392E+03  0.17418657838E+03 0.  0.
        -24    2    5    5    0    0  0.25863665677E+02 -0.20665431362E+02  0.72294040351E+02  0.11205228127E+03  0.78951226787E+02 0.  0.
          5    1    3    3  501    0  0.40015516691E+02 -0.26935158201E+02 -0.86271883779E+02  0.98952878958E+02  0.47000000000E+01 0. -1.
        -11    1    4    4    0    0 -0.24658957793E+02 -0.65696262749E+02 -0.42285635240E+03  0.42863919315E+03  0.00000000000E+00 0.  1.
         12    1    4    4    0    0 -0.40575166176E+02  0.15363214767E+02 -0.32497878941E+03  0.32786214488E+03  0.00000000000E+00 0. -1.
         -5    1    5    5    0  502 -0.64505839926E+00  0.97933637545E+02  0.15503064626E+02  0.99266552655E+02  0.47000000000E+01 0.  1.
         13    1    6    6    0    0  0.23429219972E+02 -0.39957409266E+02  0.10806974465E+02  0.47563784551E+02  0.00000000000E+00 0. -1.
        -14    1    6    6    0    0  0.24344457051E+01  0.19291977904E+02  0.61487065886E+02  0.64488496715E+02  0.00000000000E+00 0.  1.
</event>
<event>
12    1  0.8196217E-002  0.1970643E+03  0.7818608E-02  0.1152695E+00
         21   -1    0    0  501  502  0.00000000000E+00  0.00000000000E+00  0.17252359785E+03  0.17252359785E+03  0.00000000000E+00 0. -1.
         21   -1    0    0  502  503 -0.00000000000E+00 -0.00000000000E+00 -0.54141666988E+03  0.54141666988E+03  0.00000000000E+00 0.  1.
         -6    2    1    2    0  503  0.60069762996E+02  0.73582862437E+02 -0.45792356452E+03  0.49769793297E+03  0.17025400866E+03 0.  0.
        -24    2    3    3    0    0  0.26384857853E+02  0.16504836155E+02 -0.93120662784E+02  0.12689364357E+03  0.80386370738E+02 0.  0.
          6    2    1    2  501    0 -0.60069762996E+02 -0.73582862437E+02  0.89030492500E+02  0.21624233476E+03  0.17266008420E+03 0.  0.
         24    2    5    5    0    0 -0.73427808338E+02 -0.10331955111E+03  0.34475696332E+02  0.15251617206E+03  0.77498622071E+02 0.  0.
          5    1    5    5  501    0  0.13358045342E+02  0.29736688668E+02  0.54554796167E+02  0.63726162705E+02  0.47000000000E+01 0. -1.
        -13    1    6    6    0    0  0.34054317570E+01  0.35612608169E+01  0.19409567555E+02  0.20025255473E+02  0.00000000000E+00 0.  1.
         14    1    6    6    0    0 -0.76833240095E+02 -0.10688081192E+03  0.15066128777E+02  0.13249091658E+03  0.00000000000E+00 0. -1.
         -5    1    3    3    0  503  0.33684905143E+02  0.57078026282E+02 -0.36480290174E+03  0.37080428940E+03  0.47000000000E+01 0.  1.
         11    1    4    4    0    0  0.48761935553E+02  0.22126575485E+02 -0.88384850816E+02  0.10334018364E+03  0.00000000000E+00 0. -1.
        -12    1    4    4    0    0 -0.22377077700E+02 -0.56217393301E+01 -0.47358119681E+01  0.23553459926E+02  0.00000000000E+00 0.  1.
</event>
<event>
12    1  0.8196217E-002  0.3119041E+03  0.7818608E-02  0.1079517E+00
         21   -1    0    0  501  502  0.00000000000E+00  0.00000000000E+00  0.13757078625E+03  0.13757078625E+03  0.00000000000E+00 0. -1.
         21   -1    0    0  502  503 -0.00000000000E+00 -0.00000000000E+00 -0.12553688497E+04  0.12553688497E+04  0.00000000000E+00 0. -1.
         -6    2    1    2    0  503  0.25573169993E+03 -0.46485795545E+02 -0.10194470351E+04  0.10658966664E+04  0.17118356956E+03 0.  0.
        -24    2    3    3    0    0  0.15890963061E+03 -0.41819803042E+02 -0.41232641052E+03  0.45106837541E+03  0.80302203273E+02 0.  0.
          6    2    1    2  501    0 -0.25573169993E+03  0.46485795545E+02 -0.98351028309E+02  0.32704296952E+03  0.17240808452E+03 0.  0.
         24    2    5    5    0    0 -0.18962297025E+03 -0.22485686676E+02 -0.30295214361E+02  0.20964998288E+03  0.81073043362E+02 0.  0.
          5    1    5    5  501    0 -0.66108729684E+02  0.68971482220E+02 -0.68055813948E+02  0.11739298664E+03  0.47000000000E+01 0. -1.
        -11    1    6    6    0    0 -0.10780648680E+03 -0.14835173996E+02  0.23635583320E+02  0.11135960571E+03  0.00000000000E+00 0.  1.
         12    1    6    6    0    0 -0.81816483444E+02 -0.76505126792E+01 -0.53930797681E+02  0.98290377179E+02  0.00000000000E+00 0. -1.
         -5    1    3    3    0  503  0.96822069319E+02 -0.46659925031E+01 -0.60712062458E+03  0.61482829097E+03  0.47000000000E+01 0.  1.
         11    1    4    4    0    0  0.11447265758E+03 -0.19837858424E+02 -0.36297820607E+03  0.38111770890E+03  0.00000000000E+00 0. -1.
        -12    1    4    4    0    0  0.44436973030E+02 -0.21981944618E+02 -0.49348204456E+02  0.69950666503E+02  0.00000000000E+00 0.  1.
</event>
<event>
12    1  0.8196217E-002  0.1954033E+03  0.7818608E-02  0.1153802E+00
         21   -1    0    0  503  502  0.00000000000E+00  0.00000000000E+00  0.36705052316E+03  0.36705052316E+03  0.00000000000E+00 0. -1.
         21   -1    0    0  501  503 -0.00000000000E+00 -0.00000000000E+00 -0.23644525130E+03  0.23644525130E+03  0.00000000000E+00 0. -1.
          6    2    1    2  501    0  0.14089480414E+02  0.90872103891E+02 -0.16081810584E+03  0.25262537932E+03  0.17175816250E+03 0.  0.
         24    2    3    3    0    0  0.73274969356E+02  0.65568131875E+02 -0.92836113086E+02  0.15888715638E+03  0.83415727039E+02 0.  0.
         -6    2    1    2    0  502 -0.14089480414E+02 -0.90872103891E+02  0.29142337769E+03  0.35087039515E+03  0.17241286612E+03 0.  0.
        -24    2    5    5    0    0  0.29569984451E+02  0.88063339257E+01  0.11091233015E+03  0.14004281601E+03  0.79740264867E+02 0.  0.
          5    1    3    3  501    0 -0.59185488943E+02  0.25303972016E+02 -0.67981992750E+02  0.93738222937E+02  0.47000000000E+01 0. -1.
        -13    1    4    4    0    0  0.21021483516E+02  0.61438681223E+02 -0.17754355798E+02  0.67318878997E+02  0.00000000000E+00 0.  1.
         14    1    4    4    0    0  0.52253485840E+02  0.41294506517E+01 -0.75081757288E+02  0.91568277381E+02  0.00000000000E+00 0. -1.
         -5    1    5    5    0  502 -0.43659464865E+02 -0.99678437817E+02  0.18051104755E+03  0.21082757914E+03  0.47000000000E+01 0.  1.
         11    1    6    6    0    0 -0.23542532910E+02  0.33546527614E+01  0.66400951738E+02  0.70530780108E+02  0.00000000000E+00 0. -1.
        -12    1    6    6    0    0  0.53112517361E+02  0.54516811643E+01  0.44511378408E+02  0.69512035905E+02  0.00000000000E+00 0.  1.
</event>
<event>
12    1  0.8196217E-002  0.1869338E+03  0.7818608E-02  0.1161355E+00
         21   -1    0    0  501  502  0.00000000000E+00  0.00000000000E+00  0.11599040443E+04  0.11599040443E+04  0.00000000000E+00 0. -1.
         21   -1    0    0  502  503 -0.00000000000E+00 -0.00000000000E+00 -0.31886612711E+02  0.31886612711E+02  0.00000000000E+00 0. -1.
         -6    2    1    2    0  503 -0.72032632187E+02 -0.62925718895E+01  0.42191522815E+03  0.46147231468E+03  0.17238312247E+03 0.  0.
        -24    2    3    3    0    0 -0.78216822752E+02 -0.67828098412E+02  0.32573679515E+03  0.34702911387E+03  0.60051843134E+02 0.  0.
          6    2    1    2  501    0  0.72032632187E+02  0.62925718895E+01  0.70610220340E+03  0.73031834229E+03  0.17191934992E+03 0.  0.
         24    2    5    5    0    0  0.53195412624E+02  0.55463713726E+02  0.61630351729E+03  0.62611404268E+03  0.79264074789E+02 0.  0.
          5    1    5    5  501    0  0.18837219563E+02 -0.49171141836E+02  0.89798686116E+02  0.10420429962E+03  0.47000000000E+01 0. -1.
        -13    1    6    6    0    0  0.20942346118E+02  0.75865685201E+01  0.44075558883E+03  0.44131805647E+03  0.00000000000E+00 0.  1.
         14    1    6    6    0    0  0.32253066506E+02  0.47877145206E+02  0.17554792846E+03  0.18479598621E+03  0.00000000000E+00 0. -1.
         -5    1    3    3    0  503  0.61841905650E+01  0.61535526523E+02  0.96178432998E+02  0.11444320081E+03  0.47000000000E+01 0.  1.
         13    1    4    4    0    0 -0.28785430419E+02 -0.35794438189E+02  0.23062543566E+03  0.23515512834E+03  0.00000000000E+00 0. -1.
        -14    1    4    4    0    0 -0.49431392332E+02 -0.32033660223E+02  0.95111359489E+02  0.11187398553E+03  0.00000000000E+00 0.  1.
</event>
<event>
12    1  0.8196217E-002  0.1993833E+03  0.7818608E-02  0.1150807E+00
         21   -1    0    0  501  502  0.00000000000E+00  0.00000000000E+00  0.30313195737E+02  0.30313195737E+02  0.00000000000E+00 0. -1.
         21   -1    0    0  502  503 -0.00000000000E+00 -0.00000000000E+00 -0.14135100485E+04  0.14135100485E+04  0.00000000000E+00 0.  1.
         -6    2    1    2    0  503 -0.87501738437E+02  0.41961587942E+02 -0.90506404986E+03  0.92676567664E+03  0.17417335033E+03 0.  0.
        -24    2    3    3    0    0 -0.10210962483E+03  0.88019689839E+01 -0.42624304526E+03  0.44655260402E+03  0.84983788945E+02 0.  0.
          6    2    1    2  501    0  0.87501738437E+02 -0.41961587942E+02 -0.47813280293E+03  0.51705756762E+03  0.17123148630E+03 0.  0.
         24    2    5    5    0    0  0.12118093946E+03 -0.61220887679E+02 -0.39606713453E+03  0.42616162086E+03  0.79446427607E+02 0.  0.
          5    1    5    5  501    0 -0.33679201022E+02  0.19259299737E+02 -0.82065668398E+02  0.90895946760E+02  0.47000000000E+01 0. -1.
        -11    1    6    6    0    0  0.80706759701E+02 -0.79140572255E+02 -0.28624798780E+03  0.30775756978E+03  0.00000000000E+00 0.  1.
         12    1    6    6    0    0  0.40474179758E+02  0.17919684576E+02 -0.10981914673E+03  0.11840405108E+03  0.00000000000E+00 0. -1.
         -5    1    3    3    0  503  0.14607886392E+02  0.33159618958E+02 -0.47882100460E+03  0.48021307262E+03  0.47000000000E+01 0.  1.
         13    1    4    4    0    0  0.35729578594E+01 -0.14503380015E+02 -0.13550846181E+03  0.13632922388E+03  0.00000000000E+00 0. -1.
        -14    1    4    4    0    0 -0.10568258269E+03  0.23305348999E+02 -0.29073458345E+03  0.31022338014E+03  0.00000000000E+00 0.  1.
</event>
<event>
12    1  0.8196217E-002  0.2071416E+03  0.7818608E-02  0.1144247E+00
         21   -1    0    0  503  502  0.00000000000E+00  0.00000000000E+00  0.22761374595E+03  0.22761374595E+03  0.00000000000E+00 0.  1.
         21   -1    0    0  501  503 -0.00000000000E+00 -0.00000000000E+00 -0.31321035521E+03  0.31321035521E+03  0.00000000000E+00 0.  1.
          6    2    1    2  501    0 -0.10692213789E+03 -0.39073967340E+02 -0.21451375607E+03  0.29684202570E+03  0.17070418326E+03 0.  0.
         24    2    3    3    0    0 -0.14234098962E+03 -0.39853831989E+02 -0.17583201737E+03  0.24417827957E+03  0.82806090544E+02 0.  0.
         -6    2    1    2    0  502  0.10692213789E+03  0.39073967340E+02  0.12891714680E+03  0.24398207546E+03  0.17305636051E+03 0.  0.
        -24    2    5    5    0    0  0.63471817727E+01  0.24908756819E+02  0.71790667404E+01  0.85368629866E+02  0.81089648435E+02 0.  0.
          5    1    3    3  501    0  0.35418851733E+02  0.77986464897E+00 -0.38681738701E+02  0.52663746125E+02  0.47000000000E+01 0. -1.
        -13    1    4    4    0    0 -0.15005484042E+03 -0.24264320136E+02 -0.15917668664E+03  0.22009641055E+03  0.00000000000E+00 0.  1.
         14    1    4    4    0    0  0.77138508009E+01 -0.15589511853E+02 -0.16655330731E+02  0.24081869025E+02  0.00000000000E+00 0. -1.
         -5    1    5    5    0  502  0.10057495611E+03  0.14165210521E+02  0.12173808006E+03  0.15861344560E+03  0.47000000000E+01 0.  1.
         11    1    6    6    0    0  0.39175180167E+02 -0.52871072174E+01 -0.29135934398E+01  0.39637573974E+02  0.00000000000E+00 0. -1.
        -12    1    6    6    0    0 -0.32827998394E+02  0.30195864036E+02  0.10092660180E+02  0.45731055892E+02  0.00000000000E+00 0.  1.
</event>
