<event>
12    1  0.2689284E-002  0.2133866E+03  0.7818608E-02  0.1138912E+00
          1   -1    0    0  502    0  0.00000000000E+00  0.00000000000E+00  0.21257195114E+04  0.21257195114E+04  0.00000000000E+00 0.  1.
         -1   -1    0    0    0  501 -0.00000000000E+00 -0.00000000000E+00 -0.32604017001E+02  0.32604017001E+02  0.00000000000E+00 0. -1.
          6    2    1    2  502    0 -0.12068713984E+03 -0.36214944933E+02  0.16790787080E+04  0.16926025946E+04  0.17239874569E+03 0.  0.
         24    2    3    3    0    0 -0.14744674742E+02 -0.40288391303E+02  0.11084307258E+04  0.11121703345E+04  0.80396637073E+02 0.  0.
         -6    2    1    2    0  501  0.12068713984E+03  0.36214944933E+02  0.41403678642E+03  0.46572093385E+03  0.17202505562E+03 0.  0.
        -24    2    5    5    0    0  0.21830730211E+02  0.45127614692E+01  0.30283868893E+03  0.31352131149E+03  0.78021762662E+02 0.  0.
          5    1    3    3  502    0 -0.10594246510E+03  0.40734463700E+01  0.57064798223E+03  0.58043226004E+03  0.47000000000E+01 0. -1.
        -11    1    4    4    0    0 -0.35726162802E+02 -0.52126274743E+02  0.92632373158E+03  0.92847679719E+03  0.00000000000E+00 0.  1.
         12    1    4    4    0    0  0.20981488060E+02  0.11837883440E+02  0.18210699419E+03  0.18369353733E+03  0.00000000000E+00 0. -1.
         -5    1    5    5    0  501  0.98856409634E+02  0.31702183463E+02  0.11119809749E+03  0.15219962236E+03  0.47000000000E+01 0.  1.
         11    1    6    6    0    0  0.41575172717E+01 -0.29085027482E+02  0.51165823671E+02  0.59001400708E+02  0.00000000000E+00 0. -1.
        -12    1    6    6    0    0  0.17673212939E+02  0.33597788951E+02  0.25167286526E+03  0.25451991078E+03  0.00000000000E+00 0.  1.
</event>
<event>
12    1  0.2689284E-002  0.1736183E+03  0.7818608E-02  0.1174126E+00
         -2   -1    0    0    0  501 -0.00000000000E+00  0.00000000000E+00  0.22368600531E+02  0.22368600531E+02  0.00000000000E+00 0. -1.
          2   -1    0    0  502    0  0.00000000000E+00 -0.00000000000E+00 -0.13539192676E+04  0.13539192676E+04  0.00000000000E+00 0.  1.
          6    2    1    2  502    0 -0.10925495964E+01  0.27829081273E+02 -0.62292220705E+03  0.64695290080E+03  0.17245384423E+03 0.  0.
         24    2    3    3    0    0  0.33667730581E+00 -0.43201073090E+01 -0.60402409423E+03  0.60933851945E+03  0.80184463577E+02 0.  0.
         -6    2    1    2    0  501  0.10925495964E+01 -0.27829081273E+02 -0.70862846006E+03  0.72933496737E+03  0.17029253887E+03 0.  0.
        -24    2    5    5    0    0  0.62434137026E+02 -0.93575017148E+01 -0.52640920571E+03  0.53612540173E+03  0.79612877221E+02 0.  0.
          5    1    3    3  502    0 -0.14292269022E+01  0.32149188582E+02 -0.18898112818E+02  0.37614381346E+02  0.47000000000E+01 0. -1.
        -11    1    4    4    0    0  0.25278171113E+02 -0.16713090521E+02 -0.51869150414E+03  0.51957597115E+03  0.00000000000E+00 0.  1.
         12    1    4    4    0    0 -0.24941493807E+02  0.12392983212E+02 -0.85332590086E+02  0.89762548298E+02  0.00000000000E+00 0. -1.
         -5    1    5    5    0  501 -0.61341587430E+02 -0.18471579558E+02 -0.18221925436E+03  0.19320956565E+03  0.47000000000E+01 0.  1.
         13    1    6    6    0    0  0.42316909443E+02 -0.44027810330E+02 -0.34211210115E+03  0.34751958025E+03  0.00000000000E+00 0. -1.
        -14    1    6    6    0    0  0.20117227583E+02  0.34670308615E+02 -0.18429710456E+03  0.18860582148E+03  0.00000000000E+00 0.  1.
</event>
<event>
12    1  0.2689284E-002  0.2208625E+03  0.7818608E-02  0.1133242E+00
          1   -1    0    0  502    0  0.00000000000E+00  0.00000000000E+00  0.35461432770E+03  0.35461432770E+03  0.00000000000E+00 0.  1.
         -1   -1    0    0    0  501 -0.00000000000E+00 -0.00000000000E+00 -0.18049272338E+03  0.18049272338E+03  0.00000000000E+00 0. -1.
          6    2    1    2  502    0 -0.64648475431E+02  0.12186303245E+03 -0.43362863142E+02  0.22530008569E+03  0.17277085013E+03 0.  0.
         24    2    3    3    0    0 -0.51419968776E+02  0.19350421491E+01  0.49783038379E+01  0.95235968144E+02  0.79983426673E+02 0.  0.
         -6    2    1    2    0  501  0.64648475431E+02 -0.12186303245E+03  0.21748446746E+03  0.30980696540E+03  0.17219418738E+03 0.  0.
        -24    2    5    5    0    0  0.11088561431E+03 -0.94234139840E+02  0.17451671239E+03  0.24074506060E+03  0.79538724702E+02 0.  0.
          5    1    3    3  502    0 -0.13228506655E+02  0.11992799031E+03 -0.48341166980E+02  0.13006411754E+03  0.47000000000E+01 0. -1.
        -11    1    4    4    0    0 -0.53254276534E+02  0.12122363941E+02 -0.27499206297E+02  0.61148802307E+02  0.00000000000E+00 0.  1.
         12    1    4    4    0    0  0.18343077579E+01 -0.10187321792E+02  0.32477510135E+02  0.34087165837E+02  0.00000000000E+00 0. -1.
         -5    1    5    5    0  501 -0.46237138879E+02 -0.27628892615E+02  0.42967755071E+02  0.69061904800E+02  0.47000000000E+01 0.  1.
         13    1    6    6    0    0  0.91034266775E+02 -0.88798254956E+02  0.95349815736E+02  0.15894639087E+03  0.00000000000E+00 0. -1.
        -14    1    6    6    0    0  0.19851347534E+02 -0.54358848842E+01  0.79166896649E+02  0.81798669723E+02  0.00000000000E+00 0.  1.
</event>
<event>
12    1  0.2689284E-002  0.2454366E+03  0.7818608E-02  0.1116223E+00
          2   -1    0    0  502    0  0.00000000000E+00  0.00000000000E+00  0.52401379045E+03  0.52401379045E+03  0.00000000000E+00 0.  1.
         -2   -1    0    0    0  501 -0.00000000000E+00 -0.00000000000E+00 -0.14431949444E+03  0.14431949444E+03  0.00000000000E+00 0. -1.
          6    2    1    2  502    0 -0.64211141596E+02  0.16034937968E+03  0.33938963690E+03  0.41773600054E+03  0.17170627898E+03 0.  0.
         24    2    3    3    0    0  0.20107515352E+02  0.12146332130E+03  0.24385766017E+03  0.28443104931E+03  0.79226338985E+02 0.  0.
         -6    2    1    2    0  501  0.64211141596E+02 -0.16034937968E+03  0.40304659104E+02  0.25059728435E+03  0.17702976900E+03 0.  0.
        -24    2    5    5    0    0  0.22589843352E+02 -0.72870402505E+02  0.90962720214E+02  0.14117501482E+03  0.76392223140E+02 0.  0.
          5    1    3    3  502    0 -0.84318656948E+02  0.38886058378E+02  0.95531976724E+02  0.13330495123E+03  0.47000000000E+01 0. -1.
        -13    1    4    4    0    0  0.28077132159E+01  0.32800736742E+00  0.79371980784E+02  0.79422302762E+02  0.00000000000E+00 0.  1.
         14    1    4    4    0    0  0.17299802136E+02  0.12113531393E+03  0.16448567939E+03  0.20500874654E+03  0.00000000000E+00 0. -1.
         -5    1    5    5    0  501  0.41621298244E+02 -0.87478977172E+02 -0.50658061110E+02  0.10942226953E+03  0.47000000000E+01 0.  1.
         11    1    6    6    0    0  0.31267666247E+02  0.30134748559E+01  0.22940323096E+02  0.38897383035E+02  0.00000000000E+00 0. -1.
        -12    1    6    6    0    0 -0.86778228950E+01 -0.75883877361E+02  0.68022397118E+02  0.10227763178E+03  0.00000000000E+00 0.  1.
</event>
<event>
12    1  0.2689284E-002  0.1850113E+03  0.7818608E-02  0.1163039E+00
         -1   -1    0    0    0  501 -0.00000000000E+00  0.00000000000E+00  0.18353553339E+02  0.18353553339E+02  0.00000000000E+00 0.  1.
          1   -1    0    0  502    0  0.00000000000E+00 -0.00000000000E+00 -0.21063307612E+04  0.21063307612E+04  0.00000000000E+00 0. -1.
          6    2    1    2  502    0 -0.68692733904E+02  0.15741032618E+02 -0.68814711776E+03  0.71277842650E+03  0.17187250453E+03 0.  0.
         24    2    3    3    0    0 -0.97980008745E+02 -0.22980641568E+02 -0.38558617385E+03  0.40631092856E+03  0.79269673900E+02 0.  0.
         -6    2    1    2    0  501  0.68692733904E+02 -0.15741032618E+02 -0.13998300901E+04  0.14119058880E+04  0.17025711060E+03 0.  0.
        -24    2    5    5    0    0  0.11208277453E+02 -0.16503010638E+02 -0.12229066396E+04  0.12258170902E+04  0.82029961499E+02 0.  0.
          5    1    3    3  502    0  0.29287274841E+02  0.38721674185E+02 -0.30256094391E+03  0.30646749794E+03  0.47000000000E+01 0. -1.
        -11    1    4    4    0    0 -0.86998739235E+02  0.12771161211E+02 -0.30585154511E+03  0.31824055498E+03  0.00000000000E+00 0.  1.
         12    1    4    4    0    0 -0.10981269510E+02 -0.35751802778E+02 -0.79734628744E+02  0.88070373583E+02  0.00000000000E+00 0. -1.
         -5    1    5    5    0  501  0.57484456451E+02  0.76197802064E+00 -0.17692345044E+03  0.18608879778E+03  0.47000000000E+01 0.  1.
         13    1    6    6    0    0  0.35034977584E+02  0.37245163842E+01 -0.25687089549E+03  0.25927587359E+03  0.00000000000E+00 0. -1.
        -14    1    6    6    0    0 -0.23826700131E+02 -0.20227527023E+02 -0.96603574414E+03  0.96654121663E+03  0.00000000000E+00 0.  1.
</event>
<event>
12    1  0.2689284E-002  0.1742967E+03  0.7818608E-02  0.1173440E+00
         -1   -1    0    0    0  501 -0.00000000000E+00  0.00000000000E+00  0.58693013603E+02  0.58693013603E+02  0.00000000000E+00 0.  1.
          1   -1    0    0  502    0  0.00000000000E+00 -0.00000000000E+00 -0.52032259704E+03  0.52032259704E+03  0.00000000000E+00 0. -1.
          6    2    1    2  502    0 -0.27664549028E+02 -0.14061807427E+02 -0.25195610785E+03  0.30644991505E+03  0.17165840628E+03 0.  0.
         24    2    3    3    0    0 -0.32167044530E+02 -0.65645142170E+02 -0.10747680443E+03  0.15290033997E+03  0.80518612925E+02 0.  0.
         -6    2    1    2    0  501  0.27664549028E+02  0.14061807427E+02 -0.20967347558E+03  0.27256569560E+03  0.17136519586E+03 0.  0.
        -24    2    5    5    0    0  0.34034281974E+02 -0.12479868496E+02 -0.22485493602E+03  0.24098087646E+03  0.78727130653E+02 0.  0.
          5    1    3    3  502    0  0.45024955020E+01  0.51583334743E+02 -0.14447930342E+03  0.15354957508E+03  0.47000000000E+01 0. -1.
        -11    1    4    4    0    0 -0.61194124553E+01  0.15461567857E+02 -0.11653744891E+01  0.16669294739E+02  0.00000000000E+00 0.  1.
         12    1    4    4    0    0 -0.26047632075E+02 -0.81106710027E+02 -0.10631142994E+03  0.13623104523E+03  0.00000000000E+00 0. -1.
         -5    1    5    5    0  501 -0.63697329457E+01  0.26541675923E+02  0.15181460439E+02  0.31584819133E+02  0.47000000000E+01 0.  1.
         13    1    6    6    0    0  0.59164197382E+02 -0.15841036065E+02 -0.16336196037E+03  0.17446624537E+03  0.00000000000E+00 0. -1.
        -14    1    6    6    0    0 -0.25129915408E+02  0.33611675693E+01 -0.61492975649E+02  0.66514631097E+02  0.00000000000E+00 0.  1.
</event>
<event>
12    1  0.2689284E-002  0.2013947E+03  0.7818608E-02  0.1148568E+00
          2   -1    0    0  502    0  0.00000000000E+00  0.00000000000E+00  0.98130352390E+03  0.98130352390E+03  0.00000000000E+00 0. -1.
         -2   -1    0    0    0  501 -0.00000000000E+00 -0.00000000000E+00 -0.41389243557E+02  0.41389243557E+02  0.00000000000E+00 0.  1.
          6    2    1    2  502    0  0.12658619835E+02 -0.10311277298E+03  0.48887007583E+03  0.52872776760E+03  0.17253004544E+03 0.  0.
         24    2    3    3    0    0 -0.21180029583E+02 -0.94324353759E+02  0.18083056279E+03  0.21867499451E+03  0.75982783706E+02 0.  0.
         -6    2    1    2    0  501 -0.12658619835E+02  0.10311277298E+03  0.45104420451E+03  0.49396499986E+03  0.17253423443E+03 0.  0.
        -24    2    5    5    0    0 -0.40289652920E+02  0.11591094587E+03  0.43499036413E+03  0.45922189969E+03  0.81299032971E+02 0.  0.
          5    1    3    3  502    0  0.33838649418E+02 -0.87884192253E+01  0.30803951304E+03  0.31005277309E+03  0.47000000000E+01 0. -1.
        -11    1    4    4    0    0 -0.12613110408E+02  0.10578636607E+02  0.15049104904E+02  0.22304117670E+02  0.00000000000E+00 0.  1.
         12    1    4    4    0    0 -0.85669191750E+01 -0.10490299037E+03  0.16578145789E+03  0.19637087684E+03  0.00000000000E+00 0. -1.
         -5    1    5    5    0  501  0.27631033085E+02 -0.12798172882E+02  0.16053840383E+02  0.34743100171E+02  0.47000000000E+01 0.  1.
         13    1    6    6    0    0 -0.38692944938E+02  0.85364307041E+02  0.18519408597E+03  0.20755977062E+03  0.00000000000E+00 0. -1.
        -14    1    6    6    0    0 -0.15967079815E+01  0.30546638825E+02  0.24979627816E+03  0.25166212906E+03  0.00000000000E+00 0.  1.
</event>
<event>
12    1  0.2689284E-002  0.2461353E+03  0.7818608E-02  0.1115772E+00
          2   -1    0    0  502    0  0.00000000000E+00  0.00000000000E+00  0.22476855358E+03  0.22476855358E+03  0.00000000000E+00 0. -1.
         -2   -1    0    0    0  501 -0.00000000000E+00 -0.00000000000E+00 -0.28140779085E+03  0.28140779085E+03  0.00000000000E+00 0.  1.
          6    2    1    2  502    0  0.16913981990E+03 -0.50754581041E+02 -0.80267205123E+02  0.25854449657E+03  0.17093310480E+03 0.  0.
         24    2    3    3    0    0  0.16325383441E+03 -0.11513406303E+01 -0.97230941605E+02  0.20558239087E+03  0.78467339683E+02 0.  0.
         -6    2    1    2    0  501 -0.16913981990E+03  0.50754581041E+02  0.23627967857E+02  0.24763184786E+03  0.17198530471E+03 0.  0.
        -24    2    5    5    0    0 -0.16240365775E+03  0.92932753779E+02  0.12967791146E+02  0.20335879168E+03  0.78582375693E+02 0.  0.
          5    1    3    3  502    0  0.58859854836E+01 -0.49603240411E+02  0.16963736482E+02  0.52962105696E+02  0.47000000000E+01 0. -1.
        -11    1    4    4    0    0  0.10226297783E+03 -0.35181034689E+02 -0.77368098596E+02  0.13297084085E+03  0.00000000000E+00 0.  1.
         12    1    4    4    0    0  0.60990856584E+02  0.34029694059E+02 -0.19862843010E+02  0.72611550025E+02  0.00000000000E+00 0. -1.
         -5    1    5    5    0  501 -0.67361621474E+01 -0.42178172738E+02  0.10660176711E+02  0.44273056180E+02  0.47000000000E+01 0.  1.
         11    1    6    6    0    0 -0.14057743751E+03  0.85365514423E+02 -0.17198393958E+02  0.16536345348E+03  0.00000000000E+00 0. -1.
        -12    1    6    6    0    0 -0.21826220233E+02  0.75672393566E+01  0.30166185104E+02  0.37995338199E+02  0.00000000000E+00 0.  1.
</event>
<event>
12    1  0.2689284E-002  0.4543866E+03  0.7818608E-02  0.1026422E+00
          2   -1    0    0  502    0  0.00000000000E+00  0.00000000000E+00  0.46988254556E+04  0.46988254556E+04  0.00000000000E+00 0.  1.
         -2   -1    0    0    0  501 -0.00000000000E+00 -0.00000000000E+00 -0.44037019233E+02  0.44037019233E+02  0.00000000000E+00 0. -1.
          6    2    1    2  502    0  0.41177001377E+03  0.90124950575E+02  0.24394425009E+04  0.24814302424E+04  0.17011549535E+03 0.  0.
         24    2    3    3    0    0  0.25093484772E+03  0.12225239609E+03  0.15528316703E+04  0.15797645736E+04  0.80349023065E+02 0.  0.
         -6    2    1    2    0  501 -0.41177001377E+03 -0.90124950575E+02  0.22153459354E+04  0.22614322324E+04  0.16923674874E+03 0.  0.
        -24    2    5    5    0    0 -0.40923880352E+03 -0.11199363702E+03  0.21197245653E+04  0.21631968880E+04  0.78546612021E+02 0.  0.
          5    1    3    3  502    0  0.16083516606E+03 -0.32127445510E+02  0.88661083057E+03  0.90166566879E+03  0.47000000000E+01 0. -1.
        -13    1    4    4    0    0 -0.19515390491E+01  0.50665571314E+01  0.62944210316E+01  0.83125352300E+01  0.00000000000E+00 0.  1.
         14    1    4    4    0    0  0.25288638676E+03  0.11718583895E+03  0.15465372493E+04  0.15714520384E+04  0.00000000000E+00 0. -1.
         -5    1    5    5    0  501 -0.25312102499E+01  0.21868686447E+02  0.95621370079E+02  0.98235344393E+02  0.47000000000E+01 0.  1.
         13    1    6    6    0    0 -0.18676958822E+03 -0.54419868691E+02  0.77911199519E+03  0.80303169442E+03  0.00000000000E+00 0. -1.
        -14    1    6    6    0    0 -0.22246921530E+03 -0.57573768331E+02  0.13406125701E+04  0.13601651936E+04  0.00000000000E+00 0.  1.
</event>
<event>
12    1  0.2689284E-002  0.4132090E+03  0.7818608E-02  0.1039299E+00
          1   -1    0    0  502    0  0.00000000000E+00  0.00000000000E+00  0.57139421413E+03  0.57139421413E+03  0.00000000000E+00 0. -1.
         -1   -1    0    0    0  501 -0.00000000000E+00 -0.00000000000E+00 -0.46261235985E+03  0.46261235985E+03  0.00000000000E+00 0.  1.
          6    2    1    2  502    0 -0.17315344882E+03 -0.33397608275E+03 -0.25330384486E+03  0.48406777484E+03  0.16922361574E+03 0.  0.
         24    2    3    3    0    0 -0.18836406281E+03 -0.31066586760E+03 -0.26154631634E+03  0.45466101975E+03  0.79472421881E+02 0.  0.
         -6    2    1    2    0  501  0.17315344882E+03  0.33397608275E+03  0.36208569914E+03  0.54993879915E+03  0.17263976540E+03 0.  0.
        -24    2    5    5    0    0  0.73055407599E+02  0.26687505297E+03  0.29227690878E+03  0.41059202572E+03  0.81244284104E+02 0.  0.
          5    1    3    3  502    0  0.15210613992E+02 -0.23310215151E+02  0.82424714789E+01  0.29406755083E+02  0.47000000000E+01 0. -1.
        -13    1    4    4    0    0 -0.67986643538E+02 -0.16140587360E+03 -0.16215257435E+03  0.23867864819E+03  0.00000000000E+00 0.  1.
         14    1    4    4    0    0 -0.12037741928E+03 -0.14925999400E+03 -0.99393741993E+02  0.21598237157E+03  0.00000000000E+00 0. -1.
         -5    1    5    5    0  501  0.10009804122E+03  0.67101029782E+02  0.69808790365E+02  0.13934677343E+03  0.47000000000E+01 0.  1.
         11    1    6    6    0    0  0.70119240068E+02  0.23124805182E+03  0.20721736825E+03  0.31832594460E+03  0.00000000000E+00 0. -1.
        -12    1    6    6    0    0  0.29361675312E+01  0.35627001149E+02  0.85059540521E+02  0.92266081115E+02  0.00000000000E+00 0.  1.
</event>
<event>
12    1  0.2689284E-002  0.2730562E+03  0.7818608E-02  0.1099543E+00
          2   -1    0    0  502    0  0.00000000000E+00  0.00000000000E+00  0.15172256684E+04  0.15172256684E+04  0.00000000000E+00 0.  1.
         -2   -1    0    0    0  501 -0.00000000000E+00 -0.00000000000E+00 -0.57253480058E+02  0.57253480058E+02  0.00000000000E+00 0. -1.
          6    2    1    2  502    0  0.54440509318E+02 -0.20431372813E+03  0.43457803219E+03  0.51345230333E+03  0.17339934595E+03 0.  0.
         24    2    3    3    0    0  0.23136498022E+02 -0.67848666015E+02  0.30802579704E+03  0.32466614780E+03  0.73413056472E+02 0.  0.
         -6    2    1    2    0  501 -0.54440509318E+02  0.20431372813E+03  0.10253941562E+04  0.10610268452E+04  0.17215377445E+03 0.  0.
        -24    2    5    5    0    0  0.28981160834E+00  0.94400520533E+02  0.28742329654E+03  0.31289624097E+03  0.79877180440E+02 0.  0.
          5    1    3    3  502    0  0.31304011296E+02 -0.13646506211E+03  0.12655223515E+03  0.18878615554E+03  0.47000000000E+01 0. -1.
        -13    1    4    4    0    0 -0.76186901311E+01 -0.43040506943E+01  0.99490684924E-01  0.87509536674E+01  0.00000000000E+00 0.  1.
         14    1    4    4    0    0  0.30755188153E+02 -0.63544615320E+02  0.30792630636E+03  0.31591519413E+03  0.00000000000E+00 0. -1.
         -5    1    5    5    0  501 -0.54730320927E+02  0.10991320760E+03  0.73797085964E+03  0.74813060418E+03  0.47000000000E+01 0.  1.
         11    1    6    6    0    0 -0.27898380083E+02  0.51289280785E+01  0.47089525901E+02  0.54973165855E+02  0.00000000000E+00 0. -1.
        -12    1    6    6    0    0  0.28188191692E+02  0.89271592455E+02  0.24033377064E+03  0.25792307512E+03  0.00000000000E+00 0.  1.
</event>
<event>
12    1  0.2689284E-002  0.2360306E+03  0.7818608E-02  0.1122466E+00
          3   -1    0    0  502    0  0.00000000000E+00  0.00000000000E+00  0.35774224206E+03  0.35774224206E+03  0.00000000000E+00 0. -1.
         -3   -1    0    0    0  501 -0.00000000000E+00 -0.00000000000E+00 -0.15682819984E+03  0.15682819984E+03  0.00000000000E+00 0.  1.
          6    2    1    2  502    0 -0.10469849376E+03 -0.12979401673E+03  0.80774382810E+02  0.25288196351E+03  0.17209452395E+03 0.  0.
         24    2    3    3    0    0 -0.11950193186E+03 -0.15305980704E+03  0.86365526915E+02  0.22435496453E+03  0.71889704544E+02 0.  0.
         -6    2    1    2    0  501  0.10469849376E+03  0.12979401673E+03  0.12013965942E+03  0.26168847840E+03  0.16198475418E+03 0.  0.
        -24    2    5    5    0    0  0.12696729221E+03  0.14181441752E+03  0.10942152304E+03  0.23380734020E+03  0.80378979333E+02 0.  0.
          5    1    3    3  502    0  0.14803438101E+02  0.23265790309E+02 -0.55911441042E+01  0.28526998979E+02  0.47000000000E+01 0. -1.
        -13    1    4    4    0    0 -0.72072675291E+02 -0.46099778178E+02  0.13761175581E+02  0.86654659570E+02  0.00000000000E+00 0.  1.
         14    1    4    4    0    0 -0.47429256568E+02 -0.10696002886E+03  0.72604351334E+02  0.13770030496E+03  0.00000000000E+00 0. -1.
         -5    1    5    5    0  501 -0.22268798454E+02 -0.12020400788E+02  0.10718136378E+02  0.27881138196E+02  0.47000000000E+01 0.  1.
         11    1    6    6    0    0  0.22322102861E+02  0.75303034344E+02  0.65483806220E+02  0.10225923985E+03  0.00000000000E+00 0. -1.
        -12    1    6    6    0    0  0.10464518935E+03  0.66511383178E+02  0.43937716817E+02  0.13154810035E+03  0.00000000000E+00 0.  1.
</event>
<event>
12    1  0.2689284E-002  0.1922368E+03  0.7818608E-02  0.1156459E+00
         -2   -1    0    0    0  501 -0.00000000000E+00  0.00000000000E+00  0.23645383489E+02  0.23645383489E+02  0.00000000000E+00 0. -1.
          2   -1    0    0  502    0  0.00000000000E+00 -0.00000000000E+00 -0.15673692322E+04  0.15673692322E+04  0.00000000000E+00 0.  1.
          6    2    1    2  502    0  0.85637009620E+02 -0.11278382594E+02 -0.73236346543E+03  0.75736063973E+03  0.17256301398E+03 0.  0.
         24    2    3    3    0    0  0.41425942015E+02 -0.75787692131E+02 -0.44741698250E+03  0.46183964615E+03  0.75193214959E+02 0.  0.
         -6    2    1    2    0  501 -0.85637009620E+02  0.11278382594E+02 -0.81136038333E+03  0.83365397600E+03  0.17091629746E+03 0.  0.
        -24    2    5    5    0    0 -0.60178704248E+02  0.70762443814E+02 -0.60161181288E+03  0.61410208770E+03  0.80967899941E+02 0.  0.
          5    1    3    3  502    0  0.44211067605E+02  0.64509309536E+02 -0.28494648293E+03  0.29552099359E+03  0.47000000000E+01 0. -1.
        -11    1    4    4    0    0  0.63442508457E+02 -0.57414458643E+02 -0.32069288692E+03  0.33191158410E+03  0.00000000000E+00 0.  1.
         12    1    4    4    0    0 -0.22016566442E+02 -0.18373233488E+02 -0.12672409558E+03  0.12992806204E+03  0.00000000000E+00 0. -1.
         -5    1    5    5    0  501 -0.25458305372E+02 -0.59484061219E+02 -0.20974857045E+03  0.21955188830E+03  0.47000000000E+01 0.  1.
         13    1    6    6    0    0 -0.27264729067E+02  0.21485616398E+02 -0.60469383213E+02  0.69724769410E+02  0.00000000000E+00 0. -1.
        -14    1    6    6    0    0 -0.32913975181E+02  0.49276827415E+02 -0.54114242967E+03  0.54437731829E+03  0.00000000000E+00 0.  1.
</event>
<event>
12    1  0.2689284E-002  0.1909991E+03  0.7818608E-02  0.1157563E+00
         -4   -1    0    0    0  501 -0.00000000000E+00  0.00000000000E+00  0.38792226232E+03  0.38792226232E+03  0.00000000000E+00 0.  1.
          4   -1    0    0  502    0  0.00000000000E+00 -0.00000000000E+00 -0.98156497035E+02  0.98156497035E+02  0.00000000000E+00 0. -1.
          6    2    1    2  502    0 -0.16446984477E+02 -0.81478163605E+02  0.95235530201E+02  0.21356953738E+03  0.17214222794E+03 0.  0.
         24    2    3    3    0    0  0.41874730186E+02 -0.94167442721E+02  0.54625527051E+02  0.14122520407E+03  0.79621666416E+02 0.  0.
         -6    2    1    2    0  501  0.16446984477E+02  0.81478163605E+02  0.19453023508E+03  0.27250922197E+03  0.17178495061E+03 0.  0.
        -24    2    5    5    0    0 -0.12915821756E+02 -0.19114264590E+02  0.68188313078E+02  0.10829782695E+03  0.80911060549E+02 0.  0.
          5    1    3    3  502    0 -0.58321714663E+02  0.12689279117E+02  0.40610003150E+02  0.72344333306E+02  0.47000000000E+01 0. -1.
        -11    1    4    4    0    0 -0.14832043041E+02 -0.32341232242E+02  0.44115849651E+02  0.56675859006E+02  0.00000000000E+00 0.  1.
         12    1    4    4    0    0  0.56706773226E+02 -0.61826210479E+02  0.10509677400E+02  0.84549345066E+02  0.00000000000E+00 0. -1.
         -5    1    5    5    0  501  0.29362806233E+02  0.10059242819E+03  0.12634192200E+03  0.16421139502E+03  0.47000000000E+01 0.  1.
         11    1    6    6    0    0 -0.40572213573E+02  0.46406229925E+01  0.57082852135E+02  0.70186123300E+02  0.00000000000E+00 0. -1.
        -12    1    6    6    0    0  0.27656391817E+02 -0.23754887583E+02  0.11105460943E+02  0.38111703650E+02  0.00000000000E+00 0.  1.
</event>
<event>
12    1  0.3362422E-002  0.3055591E+03  0.7818608E-02  0.1082494E+00
          2   -1    0    0  502    0  0.00000000000E+00  0.00000000000E+00  0.49511994629E+03  0.49511994629E+03  0.00000000000E+00 0.  1.
         -2   -1    0    0    0  501 -0.00000000000E+00 -0.00000000000E+00 -0.21321511171E+03  0.21321511171E+03  0.00000000000E+00 0. -1.
          6    2    1    2  502    0  0.21900930940E+03  0.12178471430E+03  0.26195685705E+03  0.40362369904E+03  0.17746577480E+03 0.  0.
         24    2    3    3    0    0  0.18930218804E+03  0.12340068438E+03  0.13941952256E+03  0.27743886333E+03  0.80445461709E+02 0.  0.
         -6    2    1    2    0  501 -0.21900930940E+03 -0.12178471430E+03  0.19947977521E+02  0.30471135897E+03  0.17220480898E+03 0.  0.
        -24    2    5    5    0    0 -0.23273694522E+03 -0.12981457915E+03  0.16162852383E-01  0.27878272709E+03  0.81862677894E+02 0.  0.
          5    1    3    3  502    0  0.29707121357E+02 -0.16159700835E+01  0.12253733449E+03  0.12618483571E+03  0.47000000000E+01 0. -1.
        -11    1    4    4    0    0  0.94019374979E+02  0.67870823236E+02  0.11733643902E+03  0.16496645550E+03  0.00000000000E+00 0.  1.
         12    1    4    4    0    0  0.95282813060E+02  0.55529861148E+02  0.22083083544E+02  0.11247240783E+03  0.00000000000E+00 0. -1.
         -5    1    5    5    0  501  0.13727635825E+02  0.80298648527E+01  0.19931814669E+02  0.25928631875E+02  0.47000000000E+01 0.  1.
         11    1    6    6    0    0 -0.95535791305E+02 -0.68313187242E+02 -0.38458388692E+02  0.12358327813E+03  0.00000000000E+00 0. -1.
        -12    1    6    6    0    0 -0.13720115392E+03 -0.61501391911E+02  0.38474551545E+02  0.15519944897E+03  0.00000000000E+00 0.  1.
</event>
<event>
12    1  0.2689284E-002  0.2070510E+03  0.7818608E-02  0.1143923E+00
         -1   -1    0    0    0  501 -0.00000000000E+00  0.00000000000E+00  0.23197604562E+02  0.23197604562E+02  0.00000000000E+00 0. -1.
          1   -1    0    0  502    0  0.00000000000E+00 -0.00000000000E+00 -0.18819575082E+04  0.18819575082E+04  0.00000000000E+00 0.  1.
          6    2    1    2  502    0 -0.10534224623E+03  0.44366664377E+02 -0.10590179289E+04  0.10791459391E+04  0.17312306177E+03 0.  0.
         24    2    3    3    0    0 -0.63656366581E+02  0.53213106686E+02 -0.33527219753E+03  0.35413149393E+03  0.78217011129E+02 0.  0.
         -6    2    1    2    0  501  0.10534224623E+03 -0.44366664377E+02 -0.79974197474E+03  0.82600917361E+03  0.17215847054E+03 0.  0.
        -24    2    5    5    0    0 -0.40577259719E+01 -0.14933996468E+02 -0.47896975935E+03  0.48578639362E+03  0.79604651020E+02 0.  0.
          5    1    3    3  502    0 -0.41685879646E+02 -0.88464423093E+01 -0.72374573135E+03  0.72501444520E+03  0.47000000000E+01 0. -1.
        -13    1    4    4    0    0 -0.58939780857E+02  0.14667822124E+02 -0.28043495266E+03  0.28693693636E+03  0.00000000000E+00 0.  1.
         14    1    4    4    0    0 -0.47165857233E+01  0.38545284562E+02 -0.54837244869E+02  0.67194557575E+02  0.00000000000E+00 0. -1.
         -5    1    5    5    0  501  0.10939997220E+03 -0.29432667909E+02 -0.32077221538E+03  0.34022277998E+03  0.47000000000E+01 0.  1.
         11    1    6    6    0    0  0.20385180178E+01 -0.13755315600E+01  0.28346385066E+01  0.37527081214E+01  0.00000000000E+00 0. -1.
        -12    1    6    6    0    0 -0.60962439898E+01 -0.13558464908E+02 -0.48180439786E+03  0.48203368550E+03  0.00000000000E+00 0.  1.
</event>
<event>
12    1  0.2689284E-002  0.1934579E+03  0.7818608E-02  0.1155379E+00
          3   -1    0    0  502    0  0.00000000000E+00  0.00000000000E+00  0.95266934806E+02  0.95266934806E+02  0.00000000000E+00 0.  1.
         -3   -1    0    0    0  501 -0.00000000000E+00 -0.00000000000E+00 -0.39311080405E+03  0.39311080405E+03  0.00000000000E+00 0. -1.
          6    2    1    2  502    0  0.68424712473E+02 -0.55358678572E+02 -0.14277818098E+03  0.24054328118E+03  0.17242081251E+03 0.  0.
         24    2    3    3    0    0  0.50196840519E+02 -0.10330738801E+03 -0.73294783941E+02  0.15404838817E+03  0.71879352600E+02 0.  0.
         -6    2    1    2    0  501 -0.68424712473E+02  0.55358678572E+02 -0.15506568827E+03  0.24783445768E+03  0.17213374499E+03 0.  0.
        -24    2    5    5    0    0 -0.31004531380E+02 -0.37187955221E+02 -0.76853552768E+02  0.12093143361E+03  0.79835569026E+02 0.  0.
          5    1    3    3  502    0  0.18227871954E+02  0.47948709436E+02 -0.69483397035E+02  0.86494893006E+02  0.47000000000E+01 0. -1.
        -11    1    4    4    0    0  0.10649737109E+02 -0.94305260468E+02 -0.52855883761E+02  0.10863076682E+03  0.00000000000E+00 0.  1.
         12    1    4    4    0    0  0.39547103410E+02 -0.90021275399E+01 -0.20438900180E+02  0.45417621348E+02  0.00000000000E+00 0. -1.
         -5    1    5    5    0  501 -0.37420181093E+02  0.92546633793E+02 -0.78212135503E+02  0.12690302408E+03  0.47000000000E+01 0.  1.
         13    1    6    6    0    0 -0.55292609139E+02 -0.10306406157E+02 -0.38422459108E+02  0.68115930568E+02  0.00000000000E+00 0. -1.
        -14    1    6    6    0    0  0.24288077760E+02 -0.26881549064E+02 -0.38431093660E+02  0.52815503039E+02  0.00000000000E+00 0.  1.
</event>
<event>
12    1  0.2689284E-002  0.2189775E+03  0.7818608E-02  0.1134648E+00
         -1   -1    0    0    0  501 -0.00000000000E+00  0.00000000000E+00  0.11390851397E+03  0.11390851397E+03  0.00000000000E+00 0.  1.
          1   -1    0    0  502    0  0.00000000000E+00 -0.00000000000E+00 -0.42290036552E+03  0.42290036552E+03  0.00000000000E+00 0. -1.
          6    2    1    2  502    0  0.56571349590E+02 -0.12032902933E+03 -0.17053491249E+03  0.27549293692E+03  0.17068921766E+03 0.  0.
         24    2    3    3    0    0  0.10000247951E+03 -0.94195457058E+02 -0.97650627370E+02  0.18659166774E+03  0.80047019956E+02 0.  0.
         -6    2    1    2    0  501 -0.56571349590E+02  0.12032902933E+03 -0.13845693906E+03  0.26131594258E+03  0.17730286229E+03 0.  0.
        -24    2    5    5    0    0 -0.33935468388E+02 -0.10001084266E+02 -0.41421745715E+02  0.97193304362E+02  0.80493103392E+02 0.  0.
          5    1    3    3  502    0 -0.43431129922E+02 -0.26133572267E+02 -0.72884285120E+02  0.88901269188E+02  0.47000000000E+01 0. -1.
        -13    1    4    4    0    0  0.15256467011E+02  0.46338616439E+01  0.89880093926E+01  0.18303463394E+02  0.00000000000E+00 0.  1.
         14    1    4    4    0    0  0.84746012501E+02 -0.98829318702E+02 -0.10663863676E+03  0.16828820434E+03  0.00000000000E+00 0. -1.
         -5    1    5    5    0  501 -0.22635881202E+02  0.13033011359E+03 -0.97035193345E+02  0.16412263821E+03  0.47000000000E+01 0.  1.
         13    1    6    6    0    0 -0.72037398538E+01 -0.18905264604E+02 -0.60083295593E+02  0.63397991348E+02  0.00000000000E+00 0. -1.
        -14    1    6    6    0    0 -0.26731728534E+02  0.89041803381E+01  0.18661549878E+02  0.33795313015E+02  0.00000000000E+00 0.  1.
</event>
<event>
12    1  0.2689284E-002  0.4956588E+03  0.7818608E-02  0.1014918E+00
          3   -1    0    0  502    0  0.00000000000E+00  0.00000000000E+00  0.11961421621E+04  0.11961421621E+04  0.00000000000E+00 0.  1.
         -3   -1    0    0    0  501 -0.00000000000E+00 -0.00000000000E+00 -0.23929224363E+03  0.23929224363E+03  0.00000000000E+00 0. -1.
          6    2    1    2  502    0  0.31892019140E+03 -0.33726536259E+03  0.74852936387E+03  0.89773528261E+03  0.17370784608E+03 0.  0.
         24    2    3    3    0    0  0.22964752178E+03 -0.28042340576E+03  0.46421375247E+03  0.59432454701E+03  0.79699362826E+02 0.  0.
         -6    2    1    2    0  501 -0.31892019140E+03  0.33726536259E+03  0.20832055459E+03  0.53769912310E+03  0.17396804371E+03 0.  0.
        -24    2    5    5    0    0 -0.11181650511E+03  0.21786507841E+03  0.10656942095E+03  0.27784580306E+03  0.76636320331E+02 0.  0.
          5    1    3    3  502    0  0.89272669621E+02 -0.56841956835E+02  0.28431561139E+03  0.30341073560E+03  0.47000000000E+01 0. -1.
        -13    1    4    4    0    0  0.18668206703E+03 -0.16945898040E+03  0.31528614538E+03  0.40369777515E+03  0.00000000000E+00 0.  1.
         14    1    4    4    0    0  0.42965454753E+02 -0.11096442535E+03  0.14892760709E+03  0.19062677186E+03  0.00000000000E+00 0. -1.
         -5    1    5    5    0  501 -0.20710368629E+03  0.11940028419E+03  0.10175113364E+03  0.25985332004E+03  0.47000000000E+01 0.  1.
         13    1    6    6    0    0 -0.63516310958E+02  0.78062204921E+02  0.77701314925E+02  0.12714371371E+03  0.00000000000E+00 0. -1.
        -14    1    6    6    0    0 -0.48300194151E+02  0.13980287349E+03  0.28868106027E+02  0.15070208935E+03  0.00000000000E+00 0.  1.
</event>
<event>
12    1  0.2689284E-002  0.1853278E+03  0.7818608E-02  0.1162744E+00
          2   -1    0    0  502    0  0.00000000000E+00  0.00000000000E+00  0.90582071419E+02  0.90582071419E+02  0.00000000000E+00 0. -1.
         -2   -1    0    0    0  501 -0.00000000000E+00 -0.00000000000E+00 -0.18858829758E+04  0.18858829758E+04  0.00000000000E+00 0.  1.
          6    2    1    2  502    0  0.66076021546E+02  0.12382568894E+02 -0.17811488090E+04  0.17907838490E+04  0.17290559680E+03 0.  0.
         24    2    3    3    0    0  0.13632256500E+01 -0.47088953821E+02 -0.10872793467E+04  0.10913544182E+04  0.81601840632E+02 0.  0.
         -6    2    1    2    0  501 -0.66076021546E+02 -0.12382568894E+02 -0.14152095451E+02  0.18568119829E+03  0.17250465778E+03 0.  0.
        -24    2    5    5    0    0 -0.99482411685E+02 -0.43886979672E+02 -0.25744114458E+02  0.13808939537E+03  0.81136332579E+02 0.  0.
          5    1    3    3  502    0  0.64712795896E+02  0.59471522716E+02 -0.69386946222E+03  0.69942943073E+03  0.47000000000E+01 0. -1.
        -11    1    4    4    0    0  0.12326744537E+02 -0.26698041068E+02 -0.10156702808E+04  0.10160958878E+04  0.00000000000E+00 0.  1.
         12    1    4    4    0    0 -0.10963518887E+02 -0.20390912753E+02 -0.71609065975E+02  0.75258530407E+02  0.00000000000E+00 0. -1.
         -5    1    5    5    0  501  0.33406390139E+02  0.31504410777E+02  0.11592019007E+02  0.47591802920E+02  0.47000000000E+01 0.  1.
         13    1    6    6    0    0 -0.67935351859E+02 -0.58933648539E+01  0.19699152270E+02  0.70978872784E+02  0.00000000000E+00 0. -1.
        -14    1    6    6    0    0 -0.31547059826E+02 -0.37993614818E+02 -0.45443266727E+02  0.67110522584E+02  0.00000000000E+00 0.  1.
</event>
<event>
12    1  0.2689284E-002  0.1732846E+03  0.7818608E-02  0.1174465E+00
          2   -1    0    0  502    0  0.00000000000E+00  0.00000000000E+00  0.53249243238E+02  0.53249243238E+02  0.00000000000E+00 0. -1.
         -2   -1    0    0    0  501 -0.00000000000E+00 -0.00000000000E+00 -0.60033397782E+03  0.60033397782E+03  0.00000000000E+00 0.  1.
          6    2    1    2  502    0  0.10850126771E+02 -0.89474658779E+01 -0.35322309512E+03  0.39319836507E+03  0.17216450554E+03 0.  0.
         24    2    3    3    0    0  0.45002040888E+02  0.10778704278E+02 -0.15429787598E+03  0.19034667580E+03  0.10140344327E+03 0.  0.
         -6    2    1    2    0  501 -0.10850126771E+02  0.89474658779E+01 -0.19386163946E+03  0.26038485599E+03  0.17326325513E+03 0.  0.
        -24    2    5    5    0    0 -0.68487362301E+01 -0.43514905094E+02 -0.36166203299E+02  0.94077152980E+02  0.74846939139E+02 0.  0.
          5    1    3    3  502    0 -0.34151914117E+02 -0.19726170156E+02 -0.19892521915E+03  0.20285168927E+03  0.47000000000E+01 0. -1.
        -13    1    4    4    0    0  0.38038282221E+02 -0.39868048223E+02 -0.10858465850E+03  0.12176617037E+03  0.00000000000E+00 0.  1.
         14    1    4    4    0    0  0.69637586672E+01  0.50646752502E+02 -0.45713217474E+02  0.68580505434E+02  0.00000000000E+00 0. -1.
         -5    1    5    5    0  501 -0.40013905410E+01  0.52462370972E+02 -0.15769543616E+03  0.16630770301E+03  0.47000000000E+01 0.  1.
         11    1    6    6    0    0 -0.12834087166E+02 -0.61423651653E+02 -0.12812558962E+02  0.64044831509E+02  0.00000000000E+00 0. -1.
        -12    1    6    6    0    0  0.59853509358E+01  0.17908746559E+02 -0.23353644337E+02  0.30032321472E+02  0.00000000000E+00 0.  1.
</event>
<event>
12    1  0.2689284E-002  0.2953355E+03  0.7818608E-02  0.1087596E+00
          2   -1    0    0  502    0  0.00000000000E+00  0.00000000000E+00  0.36524710077E+03  0.36524710077E+03  0.00000000000E+00 0. -1.
         -2   -1    0    0    0  501 -0.00000000000E+00 -0.00000000000E+00 -0.36951348816E+03  0.36951348816E+03  0.00000000000E+00 0.  1.
          6    2    1    2  502    0  0.23970255572E+03  0.20411137162E+01  0.21635199466E+03  0.36736669903E+03  0.17518169025E+03 0.  0.
         24    2    3    3    0    0  0.15209629948E+03  0.41075535849E+02  0.20402478174E+03  0.27055454885E+03  0.82177663510E+02 0.  0.
         -6    2    1    2    0  501 -0.23970255572E+03 -0.20411137162E+01 -0.22061838205E+03  0.36739388991E+03  0.16983615187E+03 0.  0.
        -24    2    5    5    0    0 -0.14505986285E+03  0.54156866747E+02 -0.89356114488E+02  0.19602491603E+03  0.80410959976E+02 0.  0.
          5    1    3    3  502    0  0.87606256239E+02 -0.39034422133E+02  0.12327212924E+02  0.96812150177E+02  0.47000000000E+01 0. -1.
        -11    1    4    4    0    0  0.29230066556E+02  0.45555686378E+02  0.73006414983E+02  0.90882638501E+02  0.00000000000E+00 0.  1.
         12    1    4    4    0    0  0.12286623292E+03 -0.44801505283E+01  0.13101836675E+03  0.17967191035E+03  0.00000000000E+00 0. -1.
         -5    1    5    5    0  501 -0.94642692873E+02 -0.56197980463E+02 -0.13126226756E+03  0.17136897388E+03  0.47000000000E+01 0.  1.
         11    1    6    6    0    0 -0.10819989328E+03  0.70985018792E+02 -0.47715415004E+02  0.13792335055E+03  0.00000000000E+00 0. -1.
        -12    1    6    6    0    0 -0.36859969566E+02 -0.16828152045E+02 -0.41640699483E+02  0.58101565479E+02  0.00000000000E+00 0.  1.
</event>
<event>
12    1  0.2689284E-002  0.1959896E+03  0.7818608E-02  0.1153167E+00
         -2   -1    0    0    0  501 -0.00000000000E+00  0.00000000000E+00  0.59915694904E+03  0.59915694904E+03  0.00000000000E+00 0. -1.
          2   -1    0    0  502    0  0.00000000000E+00 -0.00000000000E+00 -0.64934152053E+02  0.64934152053E+02  0.00000000000E+00 0.  1.
          6    2    1    2  502    0  0.80560927431E+02 -0.50855356912E+02  0.30550358815E+03  0.36337032502E+03  0.17213140439E+03 0.  0.
         24    2    3    3    0    0  0.24961075436E+02 -0.40187340885E+01  0.26959775398E+03  0.28215252090E+03  0.79296220497E+02 0.  0.
         -6    2    1    2    0  501 -0.80560927431E+02  0.50855356912E+02  0.22871920884E+03  0.30072077608E+03  0.17042352630E+03 0.  0.
        -24    2    5    5    0    0 -0.26258775558E+02  0.92737381419E+02  0.16884083546E+03  0.20955972478E+03  0.78219596805E+02 0.  0.
          5    1    3    3  502    0  0.55599851995E+02 -0.46836622823E+02  0.35905834168E+02  0.81217804123E+02  0.47000000000E+01 0. -1.
        -13    1    4    4    0    0 -0.13313086527E+02  0.13530211752E+02  0.15265802610E+02  0.24358769104E+02  0.00000000000E+00 0.  1.
         14    1    4    4    0    0  0.38274161963E+02 -0.17548945841E+02  0.25433195137E+03  0.25779375179E+03  0.00000000000E+00 0. -1.
         -5    1    5    5    0  501 -0.54302151873E+02 -0.41882024507E+02  0.59878373377E+02  0.91161051295E+02  0.47000000000E+01 0.  1.
         13    1    6    6    0    0 -0.30941035628E+02  0.78909572130E+02  0.17442575425E+03  0.19392888389E+03  0.00000000000E+00 0. -1.
        -14    1    6    6    0    0  0.46822600699E+01  0.13827809289E+02 -0.55849187910E+01  0.15630840892E+02  0.00000000000E+00 0.  1.
</event>
<event>
12    1  0.2689284E-002  0.3080909E+03  0.7818608E-02  0.1081265E+00
          2   -1    0    0  502    0  0.00000000000E+00  0.00000000000E+00  0.97417107676E+03  0.97417107676E+03  0.00000000000E+00 0. -1.
         -2   -1    0    0    0  501 -0.00000000000E+00 -0.00000000000E+00 -0.10808057305E+03  0.10808057305E+03  0.00000000000E+00 0.  1.
          6    2    1    2  502    0 -0.16678593624E+03  0.19329849578E+03  0.26313519292E+03  0.40510944479E+03  0.17231272590E+03 0.  0.
         24    2    3    3    0    0 -0.16225087766E+03  0.11579997589E+03  0.12165381491E+03  0.24366082242E+03  0.69541095628E+02 0.  0.
         -6    2    1    2    0  501  0.16678593624E+03 -0.19329849578E+03  0.60295531078E+03  0.67714220502E+03  0.17258216022E+03 0.  0.
        -24    2    5    5    0    0  0.15920269207E+02 -0.11189840894E+03  0.22559581796E+03  0.26264407421E+03  0.72895320431E+02 0.  0.
          5    1    3    3  502    0 -0.45350585763E+01  0.77498519886E+02  0.14148137801E+03  0.16144862237E+03  0.47000000000E+01 0. -1.
        -11    1    4    4    0    0 -0.12873283946E+03  0.11997380580E+03  0.11177291194E+03  0.20846832344E+03  0.00000000000E+00 0.  1.
         12    1    4    4    0    0 -0.33518038199E+02 -0.41738299097E+01  0.98809029694E+01  0.35192498978E+02  0.00000000000E+00 0. -1.
         -5    1    5    5    0  501  0.15086566703E+03 -0.81400086836E+02  0.37735949282E+03  0.41449813082E+03  0.47000000000E+01 0.  1.
         11    1    6    6    0    0  0.16814902233E+02 -0.10958610825E+03  0.23125915830E+03  0.25646179902E+03  0.00000000000E+00 0. -1.
        -12    1    6    6    0    0 -0.89463302597E+00 -0.23123006859E+01 -0.56633403388E+01  0.61822751885E+01  0.00000000000E+00 0.  1.
</event>
<event>
12    1  0.2689284E-002  0.2042585E+03  0.7818608E-02  0.1146195E+00
         -2   -1    0    0    0  501 -0.00000000000E+00  0.00000000000E+00  0.43376537279E+02  0.43376537279E+02  0.00000000000E+00 0.  1.
          2   -1    0    0  502    0  0.00000000000E+00 -0.00000000000E+00 -0.11095179338E+04  0.11095179338E+04  0.00000000000E+00 0. -1.
          6    2    1    2  502    0  0.40460067133E+02  0.10207983925E+03 -0.74399534151E+03  0.77159804491E+03  0.17256060996E+03 0.  0.
         24    2    3    3    0    0  0.47268700091E+02  0.75956620406E+02 -0.72802140679E+03  0.73987996433E+03  0.96971411627E+02 0.  0.
         -6    2    1    2    0  501 -0.40460067133E+02 -0.10207983925E+03 -0.32214605504E+03  0.38129642620E+03  0.17190571031E+03 0.  0.
        -24    2    5    5    0    0  0.20558766648E+02 -0.29683384030E+02 -0.70745534609E+02  0.11261658609E+03  0.79836073442E+02 0.  0.
          5    1    3    3  502    0 -0.68086329582E+01  0.26123218847E+02 -0.15973934719E+02  0.31718080586E+02  0.47000000000E+01 0. -1.
        -13    1    4    4    0    0 -0.16841562684E+02 -0.97530384403E+01 -0.53723778408E+02  0.57140216650E+02  0.00000000000E+00 0.  1.
         14    1    4    4    0    0  0.64110262775E+02  0.85709658847E+02 -0.67429762838E+03  0.68273974768E+03  0.00000000000E+00 0. -1.
         -5    1    5    5    0  501 -0.61018833781E+02 -0.72396455223E+02 -0.25140052043E+03  0.26867984011E+03  0.47000000000E+01 0.  1.
         13    1    6    6    0    0 -0.14584393461E+02  0.97043073007E+00 -0.63818855535E+02  0.65471311200E+02  0.00000000000E+00 0. -1.
        -14    1    6    6    0    0  0.35143160109E+02 -0.30653814761E+02 -0.69266790735E+01  0.47145274894E+02  0.00000000000E+00 0.  1.
</event>
<event>
12    1  0.2689284E-002  0.1748382E+03  0.7818608E-02  0.1172894E+00
          2   -1    0    0  502    0  0.00000000000E+00  0.00000000000E+00  0.15559296817E+04  0.15559296817E+04  0.00000000000E+00 0. -1.
         -2   -1    0    0    0  501 -0.00000000000E+00 -0.00000000000E+00 -0.22943561283E+02  0.22943561283E+02  0.00000000000E+00 0.  1.
          6    2    1    2  502    0 -0.37536797868E+02 -0.13310493699E+02  0.47520846043E+03  0.50708000575E+03  0.17239742146E+03 0.  0.
         24    2    3    3    0    0 -0.87335252330E+02 -0.24467486895E+02  0.38314444373E+03  0.40171284894E+03  0.79670848009E+02 0.  0.
         -6    2    1    2    0  501  0.37536797868E+02  0.13310493699E+02  0.10577776600E+04  0.10717932372E+04  0.16811003831E+03 0.  0.
        -24    2    5    5    0    0  0.60526536787E+02 -0.10625678614E+02  0.99955979711E+03  0.10046152795E+04  0.79722676872E+02 0.  0.
          5    1    3    3  502    0  0.49798454462E+02  0.11156993196E+02  0.92064016696E+02  0.10536715681E+03  0.47000000000E+01 0. -1.
        -13    1    4    4    0    0 -0.20134089058E+02  0.40184305487E+01  0.12689877875E+02  0.24136327947E+02  0.00000000000E+00 0.  1.
         14    1    4    4    0    0 -0.67201163272E+02 -0.28485917444E+02  0.37045456586E+03  0.37757652099E+03  0.00000000000E+00 0. -1.
         -5    1    5    5    0  501 -0.22989738919E+02  0.23936172314E+02  0.58217862873E+02  0.67177957680E+02  0.47000000000E+01 0.  1.
         13    1    6    6    0    0  0.24118196177E+02 -0.34973667268E+02  0.75284783386E+03  0.75404555946E+03  0.00000000000E+00 0. -1.
        -14    1    6    6    0    0  0.36408340609E+02  0.24347988654E+02  0.24671196325E+03  0.25056972009E+03  0.00000000000E+00 0.  1.
</event>
<event>
12    1  0.2689284E-002  0.2508466E+03  0.7818608E-02  0.1112771E+00
         -2   -1    0    0    0  501 -0.00000000000E+00  0.00000000000E+00  0.19696445863E+03  0.19696445863E+03  0.00000000000E+00 0. -1.
          2   -1    0    0  502    0  0.00000000000E+00 -0.00000000000E+00 -0.32226896779E+03  0.32226896779E+03  0.00000000000E+00 0.  1.
          6    2    1    2  502    0  0.10260616167E+03  0.15289090772E+03 -0.86669945999E+02  0.26474484734E+03  0.16933546756E+03 0.  0.
         24    2    3    3    0    0  0.13025528627E+03  0.89338806375E+02 -0.40073213033E+02  0.18109863284E+03  0.79012597013E+02 0.  0.
         -6    2    1    2    0  501 -0.10260616167E+03 -0.15289090772E+03 -0.38634563161E+02  0.25448857909E+03  0.17137139008E+03 0.  0.
        -24    2    5    5    0    0 -0.14046765974E+03 -0.11489866484E+03 -0.33989670216E+02  0.20044629392E+03  0.78041991587E+02 0.  0.
          5    1    3    3  502    0 -0.27649124600E+02  0.63552101348E+02 -0.46596732966E+02  0.83646214499E+02  0.47000000000E+01 0. -1.
        -11    1    4    4    0    0  0.53666351876E+02  0.71142858359E+02 -0.49294327380E+02  0.10183965009E+03  0.00000000000E+00 0.  1.
         12    1    4    4    0    0  0.76588934396E+02  0.18195948016E+02  0.92211143465E+01  0.79258982746E+02  0.00000000000E+00 0. -1.
         -5    1    5    5    0  501  0.37861498068E+02 -0.37992242883E+02 -0.46448929455E+01  0.54042285164E+02  0.47000000000E+01 0.  1.
         13    1    6    6    0    0 -0.32926305276E+02 -0.73581126493E+02 -0.10297479069E+01  0.80618757965E+02  0.00000000000E+00 0. -1.
        -14    1    6    6    0    0 -0.10754135446E+03 -0.41317538348E+02 -0.32959922309E+02  0.11982753596E+03  0.00000000000E+00 0.  1.
</event>
<event>
12    1  0.2689284E-002  0.3184152E+03  0.7818608E-02  0.1076381E+00
         -1   -1    0    0    0  501 -0.00000000000E+00  0.00000000000E+00  0.13257887951E+03  0.13257887951E+03  0.00000000000E+00 0. -1.
          1   -1    0    0  502    0  0.00000000000E+00 -0.00000000000E+00 -0.10005638181E+04  0.10005638181E+04  0.00000000000E+00 0.  1.
          6    2    1    2  502    0 -0.15287854911E+03  0.21959865667E+03 -0.15921854614E+03  0.35624904524E+03  0.17311099332E+03 0.  0.
         24    2    3    3    0    0 -0.48859977801E+02  0.39896071882E+02 -0.13686859867E+02  0.10264611965E+03  0.79811664335E+02 0.  0.
         -6    2    1    2    0  501  0.15287854911E+03 -0.21959865667E+03 -0.70876639243E+03  0.77689365235E+03  0.17210034063E+03 0.  0.
        -24    2    5    5    0    0  0.18921752583E+02 -0.49149372670E+02 -0.14903631083E+03  0.17662934724E+03  0.78818848031E+02 0.  0.
          5    1    3    3  502    0 -0.10401857131E+03  0.17970258479E+03 -0.14553168627E+03  0.25360292559E+03  0.47000000000E+01 0. -1.
        -13    1    4    4    0    0  0.12835344916E+02  0.97317221031E+00  0.18805988131E+02  0.22789434676E+02  0.00000000000E+00 0.  1.
         14    1    4    4    0    0 -0.61695322717E+02  0.38922899672E+02 -0.32492847998E+02  0.79856684974E+02  0.00000000000E+00 0. -1.
         -5    1    5    5    0  501  0.13395679653E+03 -0.17044928400E+03 -0.55973008160E+03  0.60026430512E+03  0.47000000000E+01 0.  1.
         11    1    6    6    0    0  0.24726689838E+02 -0.77241616523E+00 -0.59072495501E+01  0.25434256708E+02  0.00000000000E+00 0. -1.
        -12    1    6    6    0    0 -0.58049372546E+01 -0.48376956505E+02 -0.14312906128E+03  0.15119509053E+03  0.00000000000E+00 0.  1.
</event>
<event>
12    1  0.2689284E-002  0.1925186E+03  0.7818608E-02  0.1156209E+00
          1   -1    0    0  502    0  0.00000000000E+00  0.00000000000E+00  0.65375312637E+03  0.65375312637E+03  0.00000000000E+00 0.  1.
         -1   -1    0    0    0  501 -0.00000000000E+00 -0.00000000000E+00 -0.56703592174E+02  0.56703592174E+02  0.00000000000E+00 0. -1.
          6    2    1    2  502    0  0.57663698387E+01 -0.86718061238E+02  0.29371012053E+03  0.35117519078E+03  0.17177050547E+03 0.  0.
         24    2    3    3    0    0  0.30868650854E+02 -0.28326384806E+02  0.26710924745E+03  0.28211428406E+03  0.80534846581E+02 0.  0.
         -6    2    1    2    0  501 -0.57663698387E+01  0.86718061238E+02  0.30333941367E+03  0.35928152777E+03  0.17179971812E+03 0.  0.
        -24    2    5    5    0    0 -0.66627455326E+02  0.59554458582E+02  0.15568069523E+03  0.19721018494E+03  0.81666558860E+02 0.  0.
          5    1    3    3  502    0 -0.25102281015E+02 -0.58391676432E+02  0.26600873081E+02  0.69060906723E+02  0.47000000000E+01 0. -1.
        -11    1    4    4    0    0  0.45030352928E+02  0.13161052133E+02  0.14160960543E+03  0.14917850491E+03  0.00000000000E+00 0.  1.
         12    1    4    4    0    0 -0.14161702074E+02 -0.41487436939E+02  0.12549964202E+03  0.13293577915E+03  0.00000000000E+00 0. -1.
         -5    1    5    5    0  501  0.60861085487E+02  0.27163602656E+02  0.14765871843E+03  0.16207134282E+03  0.47000000000E+01 0.  1.
         11    1    6    6    0    0  0.18281869634E+02  0.25960155503E+01  0.29535662990E+02  0.34832763920E+02  0.00000000000E+00 0. -1.
        -12    1    6    6    0    0 -0.84909324960E+02  0.56958443031E+02  0.12614503224E+03  0.16237742102E+03  0.00000000000E+00 0.  1.
</event>
<event>
12    1  0.2689284E-002  0.1755984E+03  0.7818608E-02  0.1172132E+00
          2   -1    0    0  502    0  0.00000000000E+00  0.00000000000E+00  0.16384782417E+04  0.16384782417E+04  0.00000000000E+00 0.  1.
         -2   -1    0    0    0  501 -0.00000000000E+00 -0.00000000000E+00 -0.27442085690E+02  0.27442085690E+02  0.00000000000E+00 0. -1.
          6    2    1    2  502    0  0.22089365892E+02 -0.25498132884E+02  0.34109416233E+03  0.38400320616E+03  0.17313330096E+03 0.  0.
         24    2    3    3    0    0 -0.29387868949E+02  0.28143272896E+02  0.25128437940E+03  0.26731904601E+03  0.81608470008E+02 0.  0.
         -6    2    1    2    0  501 -0.22089365892E+02  0.25498132884E+02  0.12699419937E+04  0.12819171213E+04  0.17152476066E+03 0.  0.
        -24    2    5    5    0    0  0.35325543579E+02  0.51568934135E+02  0.98440836428E+03  0.98946592525E+03  0.77947037031E+02 0.  0.
          5    1    3    3  502    0  0.51477234841E+02 -0.53641405779E+02  0.89809782929E+02  0.11668416015E+03  0.47000000000E+01 0. -1.
        -13    1    4    4    0    0 -0.34540845063E+02 -0.19706101538E+02  0.15000800896E+03  0.15518957171E+03  0.00000000000E+00 0.  1.
         14    1    4    4    0    0  0.51529761134E+01  0.47849374434E+02  0.10127637044E+03  0.11212947429E+03  0.00000000000E+00 0. -1.
         -5    1    5    5    0  501 -0.57414909471E+02 -0.26070801251E+02  0.28553362943E+03  0.29245119600E+03  0.47000000000E+01 0.  1.
         13    1    6    6    0    0  0.22421438935E+02  0.53608578113E+02  0.34033416272E+03  0.34525924011E+03  0.00000000000E+00 0. -1.
        -14    1    6    6    0    0  0.12904104645E+02 -0.20396439779E+01  0.64407420156E+03  0.64420668514E+03  0.00000000000E+00 0.  1.
</event>
<event>
12    1  0.2689284E-002  0.2310663E+03  0.7818608E-02  0.1125892E+00
         -2   -1    0    0    0  501 -0.00000000000E+00  0.00000000000E+00  0.66260703672E+02  0.66260703672E+02  0.00000000000E+00 0. -1.
          2   -1    0    0  502    0  0.00000000000E+00 -0.00000000000E+00 -0.81524180602E+03  0.81524180602E+03  0.00000000000E+00 0.  1.
          6    2    1    2  502    0  0.52488407971E+02 -0.14480906216E+03 -0.32463255894E+03  0.39758077983E+03  0.17017485332E+03 0.  0.
         24    2    3    3    0    0 -0.24874006994E+02 -0.12098813937E+03 -0.22604104645E+03  0.26992986542E+03  0.80689103814E+02 0.  0.
         -6    2    1    2    0  501 -0.52488407971E+02  0.14480906216E+03 -0.42434854340E+03  0.48392172987E+03  0.17430965806E+03 0.  0.
        -24    2    5    5    0    0 -0.65572556644E+02  0.14178214070E+03 -0.22575142936E+03  0.28481557500E+03  0.75856893535E+02 0.  0.
          5    1    3    3  502    0  0.77362414965E+02 -0.23820922792E+02 -0.98591512496E+02  0.12765091440E+03  0.47000000000E+01 0. -1.
        -11    1    4    4    0    0 -0.13160337418E+02 -0.10147257208E+03 -0.10441696559E+03  0.14619432297E+03  0.00000000000E+00 0.  1.
         12    1    4    4    0    0 -0.11713669576E+02 -0.19515567293E+02 -0.12162408086E+03  0.12373554245E+03  0.00000000000E+00 0. -1.
         -5    1    5    5    0  501  0.13084148674E+02  0.30269214580E+01 -0.19859711404E+03  0.19910615486E+03  0.47000000000E+01 0.  1.
         11    1    6    6    0    0 -0.64970196002E+02  0.82676663692E+02 -0.18573958676E+03  0.21343793285E+03  0.00000000000E+00 0. -1.
        -12    1    6    6    0    0 -0.60236064200E+00  0.59105477012E+02 -0.40011842601E+02  0.71377642155E+02  0.00000000000E+00 0.  1.
</event>
<event>
12    1  0.2689284E-002  0.2878428E+03  0.7818608E-02  0.1091481E+00
         -1   -1    0    0    0  501 -0.00000000000E+00  0.00000000000E+00  0.51809839451E+03  0.51809839451E+03  0.00000000000E+00 0. -1.
          1   -1    0    0  502    0  0.00000000000E+00 -0.00000000000E+00 -0.17653859632E+03  0.17653859632E+03  0.00000000000E+00 0.  1.
          6    2    1    2  502    0  0.26214551955E+02  0.22903431548E+03  0.64085547348E+02  0.29466010991E+03  0.17197006307E+03 0.  0.
         24    2    3    3    0    0  0.31425788860E+02  0.16666933234E+03 -0.21968932650E+02  0.18815183962E+03  0.78436179178E+02 0.  0.
         -6    2    1    2    0  501 -0.26214551955E+02 -0.22903431548E+03  0.27747425083E+03  0.39997688092E+03  0.17275886372E+03 0.  0.
        -24    2    5    5    0    0 -0.52655341754E+02 -0.19069373737E+03  0.14161908872E+03  0.25628335160E+03  0.80551247853E+02 0.  0.
          5    1    3    3  502    0 -0.52112369055E+01  0.62364983139E+02  0.86054479998E+02  0.10650827029E+03  0.47000000000E+01 0. -1.
        -11    1    4    4    0    0 -0.25729833383E+02  0.37152228032E+02 -0.80253561551E+01  0.45899005600E+02  0.00000000000E+00 0.  1.
         12    1    4    4    0    0  0.57155622244E+02  0.12951710431E+03 -0.13943576494E+02  0.14225283402E+03  0.00000000000E+00 0. -1.
         -5    1    5    5    0  501  0.26440789799E+02 -0.38340578109E+02  0.13585516212E+03  0.14369352932E+03  0.47000000000E+01 0.  1.
         13    1    6    6    0    0 -0.56358006709E+02 -0.11445588846E+03  0.12407899852E+03  0.17796621364E+03  0.00000000000E+00 0. -1.
        -14    1    6    6    0    0  0.37026649549E+01 -0.76237848910E+02  0.17540090198E+02  0.78317137961E+02  0.00000000000E+00 0.  1.
</event>
<event>
12    1  0.2689284E-002  0.1911509E+03  0.7818608E-02  0.1157427E+00
          1   -1    0    0  502    0  0.00000000000E+00  0.00000000000E+00  0.82776136279E+03  0.82776136279E+03  0.00000000000E+00 0. -1.
         -1   -1    0    0    0  501 -0.00000000000E+00 -0.00000000000E+00 -0.44537331866E+02  0.44537331866E+02  0.00000000000E+00 0.  1.
          6    2    1    2  502    0  0.73960912038E+02  0.18497309106E+02  0.42878511718E+03  0.46872202143E+03  0.17329538282E+03 0.  0.
         24    2    3    3    0    0 -0.64456324178E+01 -0.36871621835E+02  0.21980344771E+03  0.23801363606E+03  0.83281886703E+02 0.  0.
         -6    2    1    2    0  501 -0.73960912038E+02 -0.18497309106E+02  0.35443891375E+03  0.40357667323E+03  0.17729867637E+03 0.  0.
        -24    2    5    5    0    0 -0.38975788608E+02  0.48973469621E+02  0.27773319125E+03  0.29549280437E+03  0.79137595927E+02 0.  0.
          5    1    3    3  502    0  0.80406544455E+02  0.55368930942E+02  0.20898166947E+03  0.23070838537E+03  0.47000000000E+01 0. -1.
        -11    1    4    4    0    0  0.27300263754E+02 -0.20744604023E+02  0.33299566018E+02  0.47796486211E+02  0.00000000000E+00 0.  1.
         12    1    4    4    0    0 -0.33745896172E+02 -0.16127017812E+02  0.18650388169E+03  0.19021714985E+03  0.00000000000E+00 0. -1.
         -5    1    5    5    0  501 -0.34985123429E+02 -0.67470778727E+02  0.76705722504E+02  0.10808386886E+03  0.47000000000E+01 0.  1.
         11    1    6    6    0    0 -0.28078317603E+02 -0.17551916851E+02  0.10376195649E+03  0.10891742432E+03  0.00000000000E+00 0. -1.
        -12    1    6    6    0    0 -0.10897471005E+02  0.66525386472E+02  0.17397123475E+03  0.18657538005E+03  0.00000000000E+00 0.  1.
</event>
<event>
12    1  0.2689284E-002  0.3463503E+03  0.7818608E-02  0.1064123E+00
         -1   -1    0    0    0  501 -0.00000000000E+00  0.00000000000E+00  0.29415648851E+03  0.29415648851E+03  0.00000000000E+00 0.  1.
          1   -1    0    0  502    0  0.00000000000E+00 -0.00000000000E+00 -0.41451239437E+03  0.41451239437E+03  0.00000000000E+00 0. -1.
          6    2    1    2  502    0 -0.29973410886E+03  0.26805920290E+02 -0.15090733109E+02  0.34659438471E+03  0.17129169248E+03 0.  0.
         24    2    3    3    0    0 -0.69104627009E+02  0.46430776759E+01  0.28144710595E+02  0.11085609108E+03  0.81853164577E+02 0.  0.
         -6    2    1    2    0  501  0.29973410886E+03 -0.26805920290E+02 -0.10526517275E+03  0.36207449817E+03  0.17163359885E+03 0.  0.
        -24    2    5    5    0    0  0.17804520058E+03 -0.76182387160E+02 -0.32998727981E+02  0.21210531827E+03  0.79974373571E+02 0.  0.
          5    1    3    3  502    0 -0.23062948185E+03  0.22162842614E+02 -0.43235443705E+02  0.23573829363E+03  0.47000000000E+01 0. -1.
        -13    1    4    4    0    0 -0.43137970821E+02  0.31601774087E+02  0.44920290140E+02  0.69838306954E+02  0.00000000000E+00 0.  1.
         14    1    4    4    0    0 -0.25966656188E+02 -0.26958696411E+02 -0.16775579545E+02  0.41017784129E+02  0.00000000000E+00 0. -1.
         -5    1    5    5    0  501  0.12168890828E+03  0.49376466870E+02 -0.72266444773E+02  0.14996917990E+03  0.47000000000E+01 0.  1.
         13    1    6    6    0    0  0.10403798372E+03 -0.45915024621E+02 -0.58886725680E+02  0.12806146182E+03  0.00000000000E+00 0. -1.
        -14    1    6    6    0    0  0.74007216852E+02 -0.30267362538E+02  0.25887997699E+02  0.84043856444E+02  0.00000000000E+00 0.  1.
</event>
<event>
12    1  0.2689284E-002  0.1836441E+03  0.7818608E-02  0.1164322E+00
         -1   -1    0    0    0  501 -0.00000000000E+00  0.00000000000E+00  0.71008076272E+03  0.71008076272E+03  0.00000000000E+00 0.  1.
          1   -1    0    0  502    0  0.00000000000E+00 -0.00000000000E+00 -0.49260970990E+02  0.49260970990E+02  0.00000000000E+00 0. -1.
          6    2    1    2  502    0  0.45999048910E+02  0.42604946731E+02  0.40198122005E+03  0.44186749004E+03  0.17241485868E+03 0.  0.
         24    2    3    3    0    0  0.35452740077E+02 -0.44984880976E+02  0.19214189360E+03  0.21418825192E+03  0.75349609737E+02 0.  0.
         -6    2    1    2    0  501 -0.45999048910E+02 -0.42604946731E+02  0.25883857168E+03  0.31747424367E+03  0.17280449999E+03 0.  0.
        -24    2    5    5    0    0 -0.98426855702E+02 -0.31079774032E+02  0.17413586211E+03  0.21708428630E+03  0.78412311604E+02 0.  0.
          5    1    3    3  502    0  0.10546308832E+02  0.87589827707E+02  0.20983932645E+03  0.22767923812E+03  0.47000000000E+01 0. -1.
        -13    1    4    4    0    0  0.53496914042E+01  0.74289973678E+01  0.11878616930E+03  0.11913842041E+03  0.00000000000E+00 0.  1.
         14    1    4    4    0    0  0.30103048673E+02 -0.52413878344E+02  0.73355724299E+02  0.95049831509E+02  0.00000000000E+00 0. -1.
         -5    1    5    5    0  501  0.52427806792E+02 -0.11525172700E+02  0.84702709575E+02  0.10038995737E+03  0.47000000000E+01 0.  1.
         13    1    6    6    0    0 -0.12571974615E+02  0.22299827392E+02  0.56149443880E+02  0.61709779577E+02  0.00000000000E+00 0. -1.
        -14    1    6    6    0    0 -0.85854881086E+02 -0.53379601423E+02  0.11798641823E+03  0.15537450673E+03  0.00000000000E+00 0.  1.
</event>
<event>
12    1  0.2689284E-002  0.1966612E+03  0.7818608E-02  0.1152587E+00
          1   -1    0    0  502    0  0.00000000000E+00  0.00000000000E+00  0.27753696149E+04  0.27753696149E+04  0.00000000000E+00 0.  1.
         -1   -1    0    0    0  501 -0.00000000000E+00 -0.00000000000E+00 -0.13991146582E+02  0.13991146582E+02  0.00000000000E+00 0. -1.
          6    2    1    2  502    0 -0.37504453318E+02 -0.86252104975E+02  0.14683540716E+04  0.14814569437E+04  0.17264120794E+03 0.  0.
         24    2    3    3    0    0 -0.50747205792E+02 -0.11584959943E+03  0.10199434271E+04  0.10318509180E+04  0.91843965383E+02 0.  0.
         -6    2    1    2    0  501  0.37504453318E+02  0.86252104975E+02  0.12930243967E+04  0.13079038178E+04  0.17278395919E+03 0.  0.
        -24    2    5    5    0    0  0.39229907784E+02 -0.18287812465E+02  0.68806739244E+03  0.69396030368E+03  0.79187983975E+02 0.  0.
          5    1    3    3  502    0  0.13242752474E+02  0.29597494458E+02  0.44841064456E+03  0.44960602568E+03  0.47000000000E+01 0. -1.
        -11    1    4    4    0    0 -0.42354116230E+02 -0.82764039414E+02  0.94426461361E+03  0.94883055278E+03  0.00000000000E+00 0.  1.
         12    1    4    4    0    0 -0.83930895619E+01 -0.33085560019E+02  0.75678813444E+02  0.83020365203E+02  0.00000000000E+00 0. -1.
         -5    1    5    5    0  501 -0.17254544663E+01  0.10453991744E+03  0.60495700427E+03  0.61394351413E+03  0.47000000000E+01 0.  1.
         11    1    6    6    0    0 -0.21849104083E+02 -0.13769220940E+02  0.12986810954E+03  0.13241110478E+03  0.00000000000E+00 0. -1.
        -12    1    6    6    0    0  0.61079011867E+02 -0.45185915242E+01  0.55819928290E+03  0.56154919890E+03  0.00000000000E+00 0.  1.
</event>
<event>
12    1  0.2689284E-002  0.2229837E+03  0.7818608E-02  0.1131678E+00
          2   -1    0    0  502    0  0.00000000000E+00  0.00000000000E+00  0.70661837938E+03  0.70661837938E+03  0.00000000000E+00 0. -1.
         -2   -1    0    0    0  501 -0.00000000000E+00 -0.00000000000E+00 -0.74858353452E+02  0.74858353452E+02  0.00000000000E+00 0.  1.
          6    2    1    2  502    0 -0.13858261297E+03  0.35053462241E+02  0.41212775509E+03  0.46877276351E+03  0.17165293896E+03 0.  0.
         24    2    3    3    0    0 -0.92028367136E+02  0.80585810858E+02  0.35287821159E+03  0.38060762878E+03  0.73320130936E+02 0.  0.
         -6    2    1    2    0  501  0.13858261297E+03 -0.35053462241E+02  0.21963227084E+03  0.31270396933E+03  0.17062107785E+03 0.  0.
        -24    2    5    5    0    0  0.78798691148E+02 -0.31219519472E+02  0.22401060278E+03  0.25245385550E+03  0.79801672127E+02 0.  0.
          5    1    3    3  502    0 -0.46554245838E+02 -0.45532348617E+02  0.59249543498E+02  0.88165134724E+02  0.47000000000E+01 0. -1.
        -11    1    4    4    0    0 -0.19190311169E+02  0.31568303515E+02  0.35226979756E+02  0.51046703443E+02  0.00000000000E+00 0.  1.
         12    1    4    4    0    0 -0.72838055967E+02  0.49017507342E+02  0.31765123184E+03  0.32956092534E+03  0.00000000000E+00 0. -1.
         -5    1    5    5    0  501  0.59783921826E+02 -0.38339427689E+01 -0.43783319417E+01  0.60250113831E+02  0.47000000000E+01 0.  1.
         11    1    6    6    0    0  0.62048621064E+02 -0.54950059568E+02  0.19257204194E+03  0.20965097605E+03  0.00000000000E+00 0. -1.
        -12    1    6    6    0    0  0.16750070083E+02  0.23730540096E+02  0.31438560841E+02  0.42802879445E+02  0.00000000000E+00 0.  1.
</event>
<event>
12    1  0.2689284E-002  0.2589763E+03  0.7818608E-02  0.1107760E+00
         -2   -1    0    0    0  501 -0.00000000000E+00  0.00000000000E+00  0.29441935028E+02  0.29441935028E+02  0.00000000000E+00 0. -1.
          2   -1    0    0  502    0  0.00000000000E+00 -0.00000000000E+00 -0.28372489186E+04  0.28372489186E+04  0.00000000000E+00 0.  1.
          6    2    1    2  502    0  0.15807142207E+03 -0.10490094248E+03 -0.75450182325E+03  0.79673274979E+03  0.17181178974E+03 0.  0.
         24    2    3    3    0    0  0.53740738382E+02 -0.30674268597E+02 -0.50834968482E+03  0.51923057695E+03  0.85743876012E+02 0.  0.
         -6    2    1    2    0  501 -0.15807142207E+03  0.10490094248E+03 -0.20533051603E+04  0.20699581038E+04  0.18075864581E+03 0.  0.
        -24    2    5    5    0    0 -0.15792059956E+03  0.47873860636E+02 -0.10904353294E+04  0.11053895412E+04  0.74873278280E+02 0.  0.
          5    1    3    3  502    0  0.10433068369E+03 -0.74226673884E+02 -0.24615213844E+03  0.27750217284E+03  0.47000000000E+01 0. -1.
        -11    1    4    4    0    0  0.59633718402E+02 -0.31264917886E+02 -0.20402953176E+03  0.21485279912E+03  0.00000000000E+00 0.  1.
         12    1    4    4    0    0 -0.58929800199E+01  0.59064928830E+00 -0.30432015306E+03  0.30437777783E+03  0.00000000000E+00 0. -1.
         -5    1    5    5    0  501 -0.15082250336E+00  0.57027081845E+02 -0.96286983090E+03  0.96456856266E+03  0.47000000000E+01 0.  1.
         13    1    6    6    0    0 -0.24338645333E+02 -0.33581760703E+01 -0.56612115617E+02  0.61713682744E+02  0.00000000000E+00 0. -1.
        -14    1    6    6    0    0 -0.13358195423E+03  0.51232036707E+02 -0.10338232138E+04  0.10436758584E+04  0.00000000000E+00 0.  1.
</event>
<event>
12    1  0.2689284E-002  0.2308081E+03  0.7818608E-02  0.1126072E+00
         -2   -1    0    0    0  501 -0.00000000000E+00  0.00000000000E+00  0.13970819538E+02  0.13970819538E+02  0.00000000000E+00 0. -1.
          2   -1    0    0  502    0  0.00000000000E+00 -0.00000000000E+00 -0.40014136022E+04  0.40014136022E+04  0.00000000000E+00 0.  1.
          6    2    1    2  502    0  0.13673132803E+03  0.63275435817E+02 -0.24126357007E+04  0.24234641993E+04  0.17224535965E+03 0.  0.
         24    2    3    3    0    0  0.37058863976E+02  0.82671657371E+02 -0.99819439115E+03  0.10053749490E+04  0.78605236680E+02 0.  0.
         -6    2    1    2    0  501 -0.13673132803E+03 -0.63275435817E+02 -0.15748070819E+04  0.15919202224E+04  0.17746383440E+03 0.  0.
        -24    2    5    5    0    0 -0.52545477777E+00 -0.27384076045E+02 -0.38992348427E+03  0.39868451245E+03  0.78478361109E+02 0.  0.
          5    1    3    3  502    0  0.99672464058E+02 -0.19396221554E+02 -0.14144413096E+04  0.14180892503E+04  0.47000000000E+01 0. -1.
        -13    1    4    4    0    0  0.29911029987E+01  0.78401925585E+02 -0.83074700482E+03  0.83444376362E+03  0.00000000000E+00 0.  1.
         14    1    4    4    0    0  0.34067760977E+02  0.42697317864E+01 -0.16744738633E+03  0.17093118539E+03  0.00000000000E+00 0. -1.
         -5    1    5    5    0  501 -0.13620587326E+03 -0.35891359772E+02 -0.11848835976E+04  0.11932357100E+04  0.47000000000E+01 0.  1.
         13    1    6    6    0    0 -0.18867332000E+02 -0.36119740498E+01 -0.20692724811E+02  0.28234932857E+02  0.00000000000E+00 0. -1.
        -14    1    6    6    0    0  0.18341877223E+02 -0.23772101995E+02 -0.36923075946E+03  0.37044957959E+03  0.00000000000E+00 0.  1.
</event>
<event>
12    1  0.2689284E-002  0.1744447E+03  0.7818608E-02  0.1173290E+00
          1   -1    0    0  502    0  0.00000000000E+00  0.00000000000E+00  0.10291200344E+04  0.10291200344E+04  0.00000000000E+00 0. -1.
         -1   -1    0    0    0  501 -0.00000000000E+00 -0.00000000000E+00 -0.37619267616E+02  0.37619267616E+02  0.00000000000E+00 0.  1.
          6    2    1    2  502    0  0.21969508404E+02 -0.17621537342E+02  0.25114471451E+03  0.30632356352E+03  0.17311060068E+03 0.  0.
         24    2    3    3    0    0  0.56861864186E+02 -0.65621753244E+02  0.16509018796E+03  0.20168624342E+03  0.76701268097E+02 0.  0.
         -6    2    1    2    0  501 -0.21969508404E+02  0.17621537342E+02  0.74035605227E+03  0.76041573848E+03  0.17120698971E+03 0.  0.
        -24    2    5    5    0    0 -0.67428995864E+02  0.42657856926E+02  0.38633504090E+03  0.40258009355E+03  0.80309436870E+02 0.  0.
          5    1    3    3  502    0 -0.34892355782E+02  0.48000215902E+02  0.86054526550E+02  0.10463732010E+03  0.47000000000E+01 0. -1.
        -11    1    4    4    0    0 -0.91669858920E+01 -0.14835759587E+02  0.76846127525E+00  0.17456343420E+02  0.00000000000E+00 0.  1.
         12    1    4    4    0    0  0.66028850078E+02 -0.50785993657E+02  0.16432172668E+03  0.18422990000E+03  0.00000000000E+00 0. -1.
         -5    1    5    5    0  501  0.45459487461E+02 -0.25036319584E+02  0.35402101137E+03  0.35783564494E+03  0.47000000000E+01 0.  1.
         13    1    6    6    0    0 -0.68199421800E+02  0.32034313511E+02  0.38444872282E+03  0.39176291153E+03  0.00000000000E+00 0. -1.
        -14    1    6    6    0    0  0.77042593588E+00  0.10623543416E+02  0.18863180848E+01  0.10817182015E+02  0.00000000000E+00 0.  1.
</event>
<event>
12    1  0.2689284E-002  0.2181277E+03  0.7818608E-02  0.1135287E+00
         -1   -1    0    0    0  501 -0.00000000000E+00  0.00000000000E+00  0.78549934253E+02  0.78549934253E+02  0.00000000000E+00 0. -1.
          1   -1    0    0  502    0  0.00000000000E+00 -0.00000000000E+00 -0.66412091832E+03  0.66412091832E+03  0.00000000000E+00 0.  1.
          6    2    1    2  502    0 -0.13651365234E+03 -0.24889773724E+02 -0.40535432749E+03  0.46129763711E+03  0.17096169478E+03 0.  0.
         24    2    3    3    0    0 -0.79055264270E+02  0.34657511396E+02 -0.15265295949E+03  0.19535137014E+03  0.86071794870E+02 0.  0.
         -6    2    1    2    0  501  0.13651365234E+03  0.24889773724E+02 -0.18021665658E+03  0.28137321546E+03  0.16564228010E+03 0.  0.
        -24    2    5    5    0    0  0.13732523732E+02 -0.17191661892E+02 -0.49030432422E+02  0.96771026483E+02  0.80476784333E+02 0.  0.
          5    1    3    3  502    0 -0.57458388073E+02 -0.59547285119E+02 -0.25270136800E+03  0.26594626697E+03  0.47000000000E+01 0. -1.
        -11    1    4    4    0    0 -0.25256521949E+02 -0.24994811391E+02 -0.77898675843E+02  0.85620302473E+02  0.00000000000E+00 0.  1.
         12    1    4    4    0    0 -0.53798742322E+02  0.59652322787E+02 -0.74754283644E+02  0.10973106767E+03  0.00000000000E+00 0. -1.
         -5    1    5    5    0  501  0.12278112861E+03  0.42081435616E+02 -0.13118622416E+03  0.18460218898E+03  0.47000000000E+01 0.  1.
         11    1    6    6    0    0  0.42888965123E+02 -0.11460893784E+02 -0.64681834335E+01  0.44862599262E+02  0.00000000000E+00 0. -1.
        -12    1    6    6    0    0 -0.29156441391E+02 -0.57307681085E+01 -0.42562248988E+02  0.51908427221E+02  0.00000000000E+00 0.  1.
</event>
<event>
12    1  0.2689284E-002  0.1870617E+03  0.7818608E-02  0.1161139E+00
         -2   -1    0    0    0  501 -0.00000000000E+00  0.00000000000E+00  0.59363506328E+02  0.59363506328E+02  0.00000000000E+00 0.  1.
          2   -1    0    0  502    0  0.00000000000E+00 -0.00000000000E+00 -0.89803177549E+03  0.89803177549E+03  0.00000000000E+00 0. -1.
          6    2    1    2  502    0 -0.53698233040E+02 -0.41058841191E+02 -0.70165766946E+03  0.72646992460E+03  0.17568647517E+03 0.  0.
         24    2    3    3    0    0 -0.89294010707E+02 -0.72412390269E+02 -0.54305702238E+03  0.56086086783E+03  0.80230972184E+02 0.  0.
         -6    2    1    2    0  501  0.53698233040E+02  0.41058841191E+02 -0.13701059970E+03  0.23092535722E+03  0.17316260424E+03 0.  0.
        -24    2    5    5    0    0  0.31462103249E+02  0.85974571809E+02 -0.49443160551E+02  0.12992033396E+03  0.77802160072E+02 0.  0.
          5    1    3    3  502    0  0.35595777667E+02  0.31353549078E+02 -0.15860064709E+03  0.16560905677E+03  0.47000000000E+01 0. -1.
        -11    1    4    4    0    0 -0.69958876035E+02 -0.17489127247E+02 -0.19376041852E+03  0.20674431961E+03  0.00000000000E+00 0.  1.
         12    1    4    4    0    0 -0.19335134672E+02 -0.54923263022E+02 -0.34929660386E+03  0.35411654822E+03  0.00000000000E+00 0. -1.
         -5    1    5    5    0  501  0.22236129792E+02 -0.44915730618E+02 -0.87567439150E+02  0.10100502326E+03  0.47000000000E+01 0.  1.
         11    1    6    6    0    0 -0.15712957622E+02  0.55960695260E+02 -0.45595639545E+02  0.73874615375E+02  0.00000000000E+00 0. -1.
        -12    1    6    6    0    0  0.47175060870E+02  0.30013876549E+02 -0.38475210056E+01  0.56045718583E+02  0.00000000000E+00 0.  1.
</event>
<event>
12    1  0.2689284E-002  0.1865332E+03  0.7818608E-02  0.1161626E+00
         -2   -1    0    0    0  501 -0.00000000000E+00  0.00000000000E+00  0.31468606039E+02  0.31468606039E+02  0.00000000000E+00 0.  1.
          2   -1    0    0  502    0  0.00000000000E+00 -0.00000000000E+00 -0.11401100358E+04  0.11401100358E+04  0.00000000000E+00 0. -1.
          6    2    1    2  502    0 -0.48971146988E+02  0.53982839825E+02 -0.65728015650E+03  0.68334922538E+03  0.17215295369E+03 0.  0.
         24    2    3    3    0    0  0.15610677872E+01 -0.34035391698E+01 -0.14362616468E+03  0.16401386693E+03  0.79107852659E+02 0.  0.
         -6    2    1    2    0  501  0.48971146988E+02 -0.53982839825E+02 -0.45136127326E+03  0.48822941646E+03  0.17125607687E+03 0.  0.
        -24    2    5    5    0    0  0.34693087687E+02 -0.86174998287E+02 -0.42853557059E+03  0.44600027076E+03  0.81509297628E+02 0.  0.
          5    1    3    3  502    0 -0.50532214775E+02  0.57386378995E+02 -0.51365399182E+03  0.51933535845E+03  0.47000000000E+01 0. -1.
        -13    1    4    4    0    0 -0.26573010712E+02 -0.22517338677E+02 -0.31920663688E+02  0.47244938456E+02  0.00000000000E+00 0.  1.
         14    1    4    4    0    0  0.28134078499E+02  0.19113799507E+02 -0.11170550099E+03  0.11676892847E+03  0.00000000000E+00 0. -1.
         -5    1    5    5    0  501  0.14278059301E+02  0.32192158462E+02 -0.22825702675E+02  0.42229145699E+02  0.47000000000E+01 0.  1.
         13    1    6    6    0    0 -0.70546697836E+01 -0.73814771028E+02 -0.19887451330E+03  0.21224858263E+03  0.00000000000E+00 0. -1.
        -14    1    6    6    0    0  0.41747757470E+02 -0.12360227259E+02 -0.22966105728E+03  0.23375168813E+03  0.00000000000E+00 0.  1.
</event>
<event>
12    1  0.2689284E-002  0.2974337E+03  0.7818608E-02  0.1086531E+00
         -2   -1    0    0    0  501 -0.00000000000E+00  0.00000000000E+00  0.91370554031E+02  0.91370554031E+02  0.00000000000E+00 0. -1.
          2   -1    0    0  502    0  0.00000000000E+00 -0.00000000000E+00 -0.97283774207E+03  0.97283774207E+03  0.00000000000E+00 0.  1.
          6    2    1    2  502    0 -0.92678068858E+02 -0.22433582560E+03 -0.40453425866E+03  0.50229365791E+03  0.17243887396E+03 0.  0.
         24    2    3    3    0    0 -0.43104958866E+00 -0.35763748279E+02 -0.12876286049E+03  0.15568019170E+03  0.79857475237E+02 0.  0.
         -6    2    1    2    0  501  0.92678068858E+02  0.22433582560E+03 -0.47693292938E+03  0.56191463819E+03  0.17136876725E+03 0.  0.
        -24    2    5    5    0    0  0.68564686157E+01  0.12938969492E+03 -0.34729281217E+03  0.37968191667E+03  0.82203139564E+02 0.  0.
          5    1    3    3  502    0 -0.92247019269E+02 -0.18857207732E+03 -0.27577139817E+03  0.34661346621E+03  0.47000000000E+01 0. -1.
        -11    1    4    4    0    0 -0.38738084391E+02 -0.20174512401E+02 -0.84385882472E+02  0.95019089100E+02  0.00000000000E+00 0.  1.
         12    1    4    4    0    0  0.38307034802E+02 -0.15589235878E+02 -0.44376978022E+02  0.60661102602E+02  0.00000000000E+00 0. -1.
         -5    1    5    5    0  501  0.85821600242E+02  0.94946130683E+02 -0.12964011721E+03  0.18223272151E+03  0.47000000000E+01 0.  1.
         13    1    6    6    0    0 -0.50554332812E+00  0.66146676003E+02 -0.74817083135E+02  0.99866081575E+02  0.00000000000E+00 0. -1.
        -14    1    6    6    0    0  0.73620119438E+01  0.63243018917E+02 -0.27247572903E+03  0.27981583510E+03  0.00000000000E+00 0.  1.
</event>
<event>
12    1  0.2689284E-002  0.2083558E+03  0.7818608E-02  0.1142875E+00
         -2   -1    0    0    0  501 -0.00000000000E+00  0.00000000000E+00  0.97210716793E+02  0.97210716793E+02  0.00000000000E+00 0.  1.
          2   -1    0    0  502    0  0.00000000000E+00 -0.00000000000E+00 -0.10079944129E+04  0.10079944129E+04  0.00000000000E+00 0. -1.
          6    2    1    2  502    0 -0.75606321767E+02  0.90850707974E+02 -0.42997864896E+02  0.21275986520E+03  0.17160354549E+03 0.  0.
         24    2    3    3    0    0 -0.39137804942E+02  0.88605049659E+02  0.31232462520E+02  0.12989113039E+03  0.80706978867E+02 0.  0.
         -6    2    1    2    0  501  0.75606321767E+02 -0.90850707974E+02 -0.86778583121E+03  0.89244526450E+03  0.17156961921E+03 0.  0.
        -24    2    5    5    0    0  0.98232953362E+02 -0.91878229442E+02 -0.84334222853E+03  0.85879114187E+03  0.90580289016E+02 0.  0.
          5    1    3    3  502    0 -0.36468516825E+02  0.22456583151E+01 -0.74230327416E+02  0.82868734810E+02  0.47000000000E+01 0. -1.
        -13    1    4    4    0    0 -0.22879185825E+02  0.54678228762E+02 -0.23260636932E+02  0.63672781273E+02  0.00000000000E+00 0.  1.
         14    1    4    4    0    0 -0.16258619117E+02  0.33926820898E+02  0.54493099452E+02  0.66218349116E+02  0.00000000000E+00 0. -1.
         -5    1    5    5    0  501 -0.22626631595E+02  0.10275214671E+01 -0.24443602682E+02  0.33654122627E+02  0.47000000000E+01 0.  1.
         11    1    6    6    0    0  0.46509678067E+02 -0.27626982413E+01 -0.44139654103E+03  0.44384872320E+03  0.00000000000E+00 0. -1.
        -12    1    6    6    0    0  0.51723275296E+02 -0.89115531200E+02 -0.40194568751E+03  0.41494241867E+03  0.00000000000E+00 0.  1.
</event>
<event>
12    1  0.2689284E-002  0.2935852E+03  0.7818608E-02  0.1088492E+00
         -2   -1    0    0    0  501 -0.00000000000E+00  0.00000000000E+00  0.40897548015E+03  0.40897548015E+03  0.00000000000E+00 0. -1.
          2   -1    0    0  502    0  0.00000000000E+00 -0.00000000000E+00 -0.27391283811E+03  0.27391283811E+03  0.00000000000E+00 0.  1.
          6    2    1    2  502    0 -0.54991430139E+02  0.23118578333E+03 -0.96339177592E+02  0.30946455969E+03  0.17325170348E+03 0.  0.
         24    2    3    3    0    0 -0.22082347951E+02  0.14907528333E+03 -0.13076834247E+03  0.21442457182E+03  0.78526857927E+02 0.  0.
         -6    2    1    2    0  501  0.54991430139E+02 -0.23118578333E+03  0.23140181963E+03  0.37342375857E+03  0.17154468087E+03 0.  0.
        -24    2    5    5    0    0  0.68798948347E+02 -0.24869264020E+03  0.21474361882E+03  0.34519747206E+03  0.80406145955E+02 0.  0.
          5    1    3    3  502    0 -0.32909082188E+02  0.82110500000E+02  0.34429164873E+02  0.95039987871E+02  0.47000000000E+01 0. -1.
        -13    1    4    4    0    0  0.10363256686E+02  0.13316180925E+03 -0.10740225707E+03  0.17139051712E+03  0.00000000000E+00 0.  1.
         14    1    4    4    0    0 -0.32445604637E+02  0.15913474082E+02 -0.23366085392E+02  0.43034054703E+02  0.00000000000E+00 0. -1.
         -5    1    5    5    0  501 -0.13807518208E+02  0.17506856866E+02  0.16658200805E+02  0.28226286516E+02  0.47000000000E+01 0.  1.
         13    1    6    6    0    0  0.50412810080E+02 -0.58807976901E+02  0.81910092417E+02  0.11273461229E+03  0.00000000000E+00 0. -1.
        -14    1    6    6    0    0  0.18386138267E+02 -0.18988466330E+03  0.13283352640E+03  0.23246285977E+03  0.00000000000E+00 0.  1.
</event>
<event>
12    1  0.2689284E-002  0.2025005E+03  0.7818608E-02  0.1147646E+00
          2   -1    0    0  502    0  0.00000000000E+00  0.00000000000E+00  0.18925716991E+04  0.18925716991E+04  0.00000000000E+00 0. -1.
         -2   -1    0    0    0  501 -0.00000000000E+00 -0.00000000000E+00 -0.22226447105E+02  0.22226447105E+02  0.00000000000E+00 0.  1.
          6    2    1    2  502    0  0.39838259501E+02 -0.99278184061E+02  0.78262809799E+03  0.80836493897E+03  0.17176696432E+03 0.  0.
         24    2    3    3    0    0  0.29282964258E+02  0.71429359242E+01  0.48232010462E+03  0.48954861266E+03  0.78208997608E+02 0.  0.
         -6    2    1    2    0  501 -0.39838259501E+02  0.99278184061E+02  0.10877171540E+04  0.11064332073E+04  0.17211214431E+03 0.  0.
        -24    2    5    5    0    0 -0.50779066055E+02  0.11875006059E+03  0.10585119375E+04  0.10693671865E+04  0.80115961348E+02 0.  0.
          5    1    3    3  502    0  0.10555295242E+02 -0.10642111999E+03  0.30030799338E+03  0.31881632631E+03  0.47000000000E+01 0. -1.
        -11    1    4    4    0    0  0.11620417027E+02  0.17668308742E+02  0.29687675646E+02  0.36449434988E+02  0.00000000000E+00 0.  1.
         12    1    4    4    0    0  0.17662547231E+02 -0.10525372818E+02  0.45263242897E+03  0.45309917767E+03  0.00000000000E+00 0. -1.
         -5    1    5    5    0  501  0.10940806555E+02 -0.19471876533E+02  0.29205216522E+02  0.37066020772E+02  0.47000000000E+01 0.  1.
         13    1    6    6    0    0  0.20914936865E+02  0.41299931562E+02  0.34496108905E+03  0.34805354744E+03  0.00000000000E+00 0. -1.
        -14    1    6    6    0    0 -0.71694002920E+02  0.77450129033E+02  0.71355084847E+03  0.72131363906E+03  0.00000000000E+00 0.  1.
</event>
<event>
12    1  0.2689284E-002  0.1955877E+03  0.7818608E-02  0.1153516E+00
         -1   -1    0    0    0  501 -0.00000000000E+00  0.00000000000E+00  0.16156572707E+03  0.16156572707E+03  0.00000000000E+00 0.  1.
          1   -1    0    0  502    0  0.00000000000E+00 -0.00000000000E+00 -0.25601189665E+03  0.25601189665E+03  0.00000000000E+00 0. -1.
          6    2    1    2  502    0 -0.26615737524E+02 -0.90174170315E+02  0.10091921746E+02  0.19548154282E+03  0.17108888983E+03 0.  0.
         24    2    3    3    0    0 -0.44093339986E+01 -0.10497381348E+03  0.54363328856E+02  0.14357584677E+03  0.81361591120E+02 0.  0.
         -6    2    1    2    0  501  0.26615737524E+02  0.90174170315E+02 -0.10453809132E+03  0.22209608090E+03  0.17192637417E+03 0.  0.
        -24    2    5    5    0    0  0.11195463100E+02 -0.11720802033E+02 -0.95929925991E+02  0.11857525805E+03  0.67785142369E+02 0.  0.
          5    1    3    3  502    0 -0.22206403525E+02  0.14799643162E+02 -0.44271407110E+02  0.51905696053E+02  0.47000000000E+01 0. -1.
        -11    1    4    4    0    0  0.36662345737E+02 -0.52945166100E+02  0.39809434692E+02  0.75710694745E+02  0.00000000000E+00 0.  1.
         12    1    4    4    0    0 -0.41071679736E+02 -0.52028647377E+02  0.14553894164E+02  0.67865152026E+02  0.00000000000E+00 0. -1.
         -5    1    5    5    0  501  0.15420274424E+02  0.10189497235E+03 -0.86081653332E+01  0.10352082285E+03  0.47000000000E+01 0.  1.
         13    1    6    6    0    0 -0.14969973076E+01  0.16193933939E+02 -0.84179722055E+02  0.85736282300E+02  0.00000000000E+00 0. -1.
        -14    1    6    6    0    0  0.12692460407E+02 -0.27914735972E+02 -0.11750203936E+02  0.32838975747E+02  0.00000000000E+00 0.  1.
</event>
<event>
12    1  0.2689284E-002  0.2973295E+03  0.7818608E-02  0.1086583E+00
         -2   -1    0    0    0  501 -0.00000000000E+00  0.00000000000E+00  0.40749795830E+03  0.40749795830E+03  0.00000000000E+00 0.  1.
          2   -1    0    0  502    0  0.00000000000E+00 -0.00000000000E+00 -0.28043750581E+03  0.28043750581E+03  0.00000000000E+00 0. -1.
          6    2    1    2  502    0  0.60194936326E+02  0.23556858098E+03  0.22724909473E+03  0.37448282174E+03  0.17169521257E+03 0.  0.
         24    2    3    3    0    0  0.18707877480E+02  0.23427652699E+03  0.22101904619E+03  0.33224836946E+03  0.79398264764E+02 0.  0.
         -6    2    1    2    0  501 -0.60194936326E+02 -0.23556858098E+03 -0.10018864224E+03  0.31345264237E+03  0.17058372803E+03 0.  0.
        -24    2    5    5    0    0 -0.10198818479E+03 -0.21261416649E+03 -0.79577061422E+02  0.26129415288E+03  0.79597437137E+02 0.  0.
          5    1    3    3  502    0  0.41487058847E+02  0.12920539917E+01  0.62300485386E+01  0.42234452288E+02  0.47000000000E+01 0. -1.
        -11    1    4    4    0    0 -0.27203793465E+02  0.14114608568E+03  0.11789489669E+03  0.18590715572E+03  0.00000000000E+00 0.  1.
         12    1    4    4    0    0  0.45911670945E+02  0.93130441310E+02  0.10312414950E+03  0.14634121373E+03  0.00000000000E+00 0. -1.
         -5    1    5    5    0  501  0.41793248462E+02 -0.22954414495E+02 -0.20611580821E+02  0.52158489489E+02  0.47000000000E+01 0.  1.
         13    1    6    6    0    0 -0.66204143983E+02 -0.66458902426E+02 -0.55249374959E+02  0.10886812125E+03  0.00000000000E+00 0. -1.
        -14    1    6    6    0    0 -0.35784040805E+02 -0.14615526406E+03 -0.24327686463E+02  0.15242603163E+03  0.00000000000E+00 0.  1.
</event>
<event>
12    1  0.2689284E-002  0.2689502E+03  0.7818608E-02  0.1101882E+00
         -2   -1    0    0    0  501 -0.00000000000E+00  0.00000000000E+00  0.35542700033E+02  0.35542700033E+02  0.00000000000E+00 0.  1.
          2   -1    0    0  502    0  0.00000000000E+00 -0.00000000000E+00 -0.20378602130E+04  0.20378602130E+04  0.00000000000E+00 0. -1.
          6    2    1    2  502    0 -0.14235325527E+03 -0.15076916006E+03 -0.10409829253E+04  0.10752977451E+04  0.17211624241E+03 0.  0.
         24    2    3    3    0    0 -0.44288199959E+01 -0.46530075933E+02 -0.43408898831E+03  0.44424206033E+03  0.82055444547E+02 0.  0.
         -6    2    1    2    0  501  0.14235325527E+03  0.15076916006E+03 -0.96133458768E+03  0.99810516796E+03  0.17045218664E+03 0.  0.
        -24    2    5    5    0    0  0.11827658001E+03  0.12175992698E+03 -0.47987293458E+03  0.51514695517E+03  0.79268675296E+02 0.  0.
          5    1    3    3  502    0 -0.13792443527E+03 -0.10423908413E+03 -0.60689393698E+03  0.63105568474E+03  0.47000000000E+01 0. -1.
        -13    1    4    4    0    0  0.19181231574E+02 -0.61697490425E+02 -0.26010674572E+03  0.26801122950E+03  0.00000000000E+00 0.  1.
         14    1    4    4    0    0 -0.23610051570E+02  0.15167414492E+02 -0.17398224259E+03  0.17623083083E+03  0.00000000000E+00 0. -1.
         -5    1    5    5    0  501  0.24076675257E+02  0.29009233085E+02 -0.48146165310E+03  0.48295821279E+03  0.47000000000E+01 0.  1.
         11    1    6    6    0    0  0.66737523529E+02  0.14434799584E+02 -0.17289525266E+03  0.18588982995E+03  0.00000000000E+00 0. -1.
        -12    1    6    6    0    0  0.51539056482E+02  0.10732512740E+03 -0.30697768192E+03  0.32925712522E+03  0.00000000000E+00 0.  1.
</event>
<event>
12    1  0.2689284E-002  0.2103721E+03  0.7818608E-02  0.1141272E+00
         -1   -1    0    0    0  501 -0.00000000000E+00  0.00000000000E+00  0.30400289752E+03  0.30400289752E+03  0.00000000000E+00 0.  1.
          1   -1    0    0  502    0  0.00000000000E+00 -0.00000000000E+00 -0.21578769707E+03  0.21578769707E+03  0.00000000000E+00 0. -1.
          6    2    1    2  502    0 -0.24182873577E+02 -0.11839583217E+03  0.19250496828E+03  0.28598356519E+03  0.17356858096E+03 0.  0.
         24    2    3    3    0    0  0.45163947011E+02 -0.28533677313E+02  0.93395661519E+02  0.13522238621E+03  0.81904769642E+02 0.  0.
         -6    2    1    2    0  501  0.24182873577E+02  0.11839583217E+03 -0.10428976783E+03  0.23380702940E+03  0.17084199388E+03 0.  0.
        -24    2    5    5    0    0 -0.35034670511E+02  0.13825652108E+02 -0.22460242695E+02  0.88342940119E+02  0.76690519447E+02 0.  0.
          5    1    3    3  502    0 -0.69346820588E+02 -0.89862154862E+02  0.99109306758E+02  0.15076117898E+03  0.47000000000E+01 0. -1.
        -13    1    4    4    0    0  0.46286624983E+02 -0.48703347398E+02  0.40146224140E+02  0.78269962392E+02  0.00000000000E+00 0.  1.
         14    1    4    4    0    0 -0.11226779720E+01  0.20169670085E+02  0.53249437379E+02  0.56952423814E+02  0.00000000000E+00 0. -1.
         -5    1    5    5    0  501  0.59217544088E+02  0.10457018007E+03 -0.81829525133E+02  0.14546408928E+03  0.47000000000E+01 0.  1.
         11    1    6    6    0    0 -0.89459174266E+01 -0.12542430690E+02 -0.43186452776E+02  0.45852063308E+02  0.00000000000E+00 0. -1.
        -12    1    6    6    0    0 -0.26088753084E+02  0.26368082798E+02  0.20726210081E+02  0.42490876812E+02  0.00000000000E+00 0.  1.
</event>
<event>
12    1  0.2689284E-002  0.1891848E+03  0.7818608E-02  0.1159199E+00
          3   -1    0    0  502    0  0.00000000000E+00  0.00000000000E+00  0.14473479637E+04  0.14473479637E+04  0.00000000000E+00 0. -1.
         -3   -1    0    0    0  501 -0.00000000000E+00 -0.00000000000E+00 -0.25258681606E+02  0.25258681606E+02  0.00000000000E+00 0.  1.
          6    2    1    2  502    0 -0.45241415302E+02 -0.62803469434E+02  0.60660922246E+03  0.63560450220E+03  0.17328379330E+03 0.  0.
         24    2    3    3    0    0 -0.42931514308E+02  0.30429126844E+02  0.33417010074E+03  0.34760655482E+03  0.79947570623E+02 0.  0.
         -6    2    1    2    0  501  0.45241415302E+02  0.62803469434E+02  0.81548005966E+03  0.83700214312E+03  0.17197034181E+03 0.  0.
        -24    2    5    5    0    0 -0.14003604947E+02  0.85902013698E+01  0.62475696259E+03  0.63000832531E+03  0.79494245970E+02 0.  0.
          5    1    3    3  502    0 -0.23099009937E+01 -0.93232596278E+02  0.27243912172E+03  0.28799794738E+03  0.47000000000E+01 0. -1.
        -11    1    4    4    0    0 -0.29223642775E+02  0.95443461027E+01  0.31888331602E+02  0.44294260711E+02  0.00000000000E+00 0.  1.
         12    1    4    4    0    0 -0.13707871533E+02  0.20884780741E+02  0.30228176913E+03  0.30331229411E+03  0.00000000000E+00 0. -1.
         -5    1    5    5    0  501  0.59245020250E+02  0.54213268064E+02  0.19072309706E+03  0.20699381781E+03  0.47000000000E+01 0.  1.
         13    1    6    6    0    0  0.36823461166E+01 -0.34426956658E+02  0.25690074646E+03  0.25922339506E+03  0.00000000000E+00 0. -1.
        -14    1    6    6    0    0 -0.17685951064E+02  0.43017158028E+02  0.36785621613E+03  0.37078493025E+03  0.00000000000E+00 0.  1.
</event>
<event>
12    1  0.2689284E-002  0.1922411E+03  0.7818608E-02  0.1156455E+00
          1   -1    0    0  502    0  0.00000000000E+00  0.00000000000E+00  0.86004219264E+03  0.86004219264E+03  0.00000000000E+00 0.  1.
         -1   -1    0    0    0  501 -0.00000000000E+00 -0.00000000000E+00 -0.46030243089E+02  0.46030243089E+02  0.00000000000E+00 0. -1.
          6    2    1    2  502    0  0.76814496832E+02 -0.44497159382E+02  0.51665800187E+03  0.55007416241E+03  0.16663021677E+03 0.  0.
         24    2    3    3    0    0  0.30969551673E+02 -0.48859787809E+02  0.14383805467E+03  0.17439132470E+03  0.79853341588E+02 0.  0.
         -6    2    1    2    0  501 -0.76814496832E+02  0.44497159382E+02  0.29735394768E+03  0.35599827331E+03  0.17445611565E+03 0.  0.
        -24    2    5    5    0    0 -0.51911774573E+02 -0.10131770490E+02  0.67442944920E+02  0.11833122734E+03  0.81585804100E+02 0.  0.
          5    1    3    3  502    0  0.45844945159E+02  0.43626284273E+01  0.37281994720E+03  0.37568283772E+03  0.47000000000E+01 0. -1.
        -11    1    4    4    0    0  0.35110343579E+02 -0.36391939319E+01  0.11571308222E+03  0.12097725966E+03  0.00000000000E+00 0.  1.
         12    1    4    4    0    0 -0.41407919064E+01 -0.45220593877E+02  0.28124972451E+02  0.53414065035E+02  0.00000000000E+00 0. -1.
         -5    1    5    5    0  501 -0.24902722259E+02  0.54628929871E+02  0.22991100276E+03  0.23766704598E+03  0.47000000000E+01 0.  1.
         13    1    6    6    0    0  0.95442230179E+01 -0.46902139120E+01 -0.13100447820E+02  0.16873412003E+02  0.00000000000E+00 0. -1.
        -14    1    6    6    0    0 -0.61455997591E+02 -0.54415565777E+01  0.80543392740E+02  0.10145781533E+03  0.00000000000E+00 0.  1.
</event>
<event>
12    1  0.2689284E-002  0.2010178E+03  0.7818608E-02  0.1148883E+00
         -2   -1    0    0    0  501 -0.00000000000E+00  0.00000000000E+00  0.35263335661E+03  0.35263335661E+03  0.00000000000E+00 0. -1.
          2   -1    0    0  502    0  0.00000000000E+00 -0.00000000000E+00 -0.20758955470E+03  0.20758955470E+03  0.00000000000E+00 0.  1.
          6    2    1    2  502    0 -0.10022916214E+03 -0.29599904493E+02 -0.11475316618E+03  0.23236992500E+03  0.17293193344E+03 0.  0.
         24    2    3    3    0    0 -0.10525510743E+03  0.35184391892E+02 -0.80658460111E+02  0.15883895080E+03  0.80046524162E+02 0.  0.
         -6    2    1    2    0  501  0.10022916214E+03  0.29599904493E+02  0.25979696810E+03  0.32785298632E+03  0.17050242437E+03 0.  0.
        -24    2    5    5    0    0  0.63891688461E+02  0.81645212560E+02  0.21297817638E+03  0.24883896640E+03  0.76243288219E+02 0.  0.
          5    1    3    3  502    0  0.50259452910E+01 -0.64784296385E+02 -0.34094706072E+02  0.73530974197E+02  0.47000000000E+01 0. -1.
        -13    1    4    4    0    0 -0.32633664588E+01 -0.61682807593E+01 -0.41409814948E+02  0.41993690266E+02  0.00000000000E+00 0.  1.
         14    1    4    4    0    0 -0.10199174097E+03  0.41352672651E+02 -0.39248645163E+02  0.11684526053E+03  0.00000000000E+00 0. -1.
         -5    1    5    5    0  501  0.36337473677E+02 -0.52045308066E+02  0.46818791720E+02  0.79014019915E+02  0.47000000000E+01 0.  1.
         13    1    6    6    0    0 -0.38042143073E+01 -0.88254765074E+01  0.47500521938E+02  0.48462982435E+02  0.00000000000E+00 0. -1.
        -14    1    6    6    0    0  0.67695902769E+02  0.90470689067E+02  0.16547765444E+03  0.20037598397E+03  0.00000000000E+00 0.  1.
</event>
<event>
12    1  0.2689284E-002  0.1854570E+03  0.7818608E-02  0.1162624E+00
         -2   -1    0    0    0  501 -0.00000000000E+00  0.00000000000E+00  0.24230755684E+03  0.24230755684E+03  0.00000000000E+00 0. -1.
          2   -1    0    0  502    0  0.00000000000E+00 -0.00000000000E+00 -0.30411727303E+03  0.30411727303E+03  0.00000000000E+00 0.  1.
          6    2    1    2  502    0  0.57034327474E+02 -0.40777219482E+02  0.16859725130E+03  0.25072878205E+03  0.17182605408E+03 0.  0.
         24    2    3    3    0    0  0.31131267700E+02 -0.61176574112E+02  0.33032141323E+02  0.11113261011E+03  0.80917276412E+02 0.  0.
         -6    2    1    2    0  501 -0.57034327474E+02  0.40777219482E+02 -0.23040696749E+03  0.29569604782E+03  0.17156073527E+03 0.  0.
        -24    2    5    5    0    0 -0.37116448886E+02 -0.39601402776E+02 -0.86811669101E+02  0.12986738768E+03  0.79895998717E+02 0.  0.
          5    1    3    3  502    0  0.25903059774E+02  0.20399354629E+02  0.13556510998E+03  0.13959617193E+03  0.47000000000E+01 0. -1.
        -13    1    4    4    0    0  0.56158006751E+02 -0.51373986195E+02  0.12105116841E+02  0.77068424362E+02  0.00000000000E+00 0.  1.
         14    1    4    4    0    0 -0.25026739051E+02 -0.98025879162E+01  0.20927024482E+02  0.34064185753E+02  0.00000000000E+00 0. -1.
         -5    1    5    5    0  501 -0.19917878588E+02  0.80378622258E+02 -0.14359529839E+03  0.16582866014E+03  0.47000000000E+01 0.  1.
         11    1    6    6    0    0  0.14317807405E+02 -0.11891150801E+02  0.65513163062E+01  0.19731163717E+02  0.00000000000E+00 0. -1.
        -12    1    6    6    0    0 -0.51434256291E+02 -0.27710251975E+02 -0.93362985408E+02  0.11013622396E+03  0.00000000000E+00 0.  1.
</event>
<event>
12    1  0.2689284E-002  0.2392668E+03  0.7818608E-02  0.1120282E+00
         -2   -1    0    0    0  501 -0.00000000000E+00  0.00000000000E+00  0.81313441965E+02  0.81313441965E+02  0.00000000000E+00 0. -1.
          2   -1    0    0  502    0  0.00000000000E+00 -0.00000000000E+00 -0.14651945742E+04  0.14651945742E+04  0.00000000000E+00 0.  1.
          6    2    1    2  502    0 -0.16316595152E+03 -0.31883703779E+02 -0.12493313065E+04  0.12720455568E+04  0.17213798842E+03 0.  0.
         24    2    3    3    0    0 -0.82553394800E+02  0.48744837729E+02 -0.71210819850E+03  0.72283694098E+03  0.78765694755E+02 0.  0.
         -6    2    1    2    0  501  0.16316595152E+03  0.31883703779E+02 -0.13454982582E+03  0.27446245937E+03  0.17200665009E+03 0.  0.
        -24    2    5    5    0    0  0.60346351186E+02  0.60336984228E+02 -0.11858325142E+03  0.16648801388E+03  0.79837569365E+02 0.  0.
          5    1    3    3  502    0 -0.80612556721E+02 -0.80628541508E+02 -0.53722310796E+03  0.54920861586E+03  0.47000000000E+01 0. -1.
        -13    1    4    4    0    0 -0.46426016113E+02 -0.16607117259E+02 -0.26931518175E+03  0.27379159673E+03  0.00000000000E+00 0.  1.
         14    1    4    4    0    0 -0.36127378688E+02  0.65351954988E+02 -0.44279301675E+03  0.44904534425E+03  0.00000000000E+00 0. -1.
         -5    1    5    5    0  501  0.10281960033E+03 -0.28453280449E+02 -0.15966574400E+02  0.10797444549E+03  0.47000000000E+01 0.  1.
         13    1    6    6    0    0  0.79240802195E+01 -0.19670906642E+02 -0.21758845724E+02  0.30383926387E+02  0.00000000000E+00 0. -1.
        -14    1    6    6    0    0  0.52422270967E+02  0.80007890870E+02 -0.96824405693E+02  0.13610408749E+03  0.00000000000E+00 0.  1.
</event>
<event>
12    1  0.2689284E-002  0.3052280E+03  0.7818608E-02  0.1082656E+00
         -3   -1    0    0    0  501 -0.00000000000E+00  0.00000000000E+00  0.36053548436E+03  0.36053548436E+03  0.00000000000E+00 0.  1.
          3   -1    0    0  502    0  0.00000000000E+00 -0.00000000000E+00 -0.31753258871E+03  0.31753258871E+03  0.00000000000E+00 0. -1.
          6    2    1    2  502    0  0.24818935107E+03  0.43110553250E+02 -0.12485388638E+03  0.32881691201E+03  0.17051567345E+03 0.  0.
         24    2    3    3    0    0  0.26786360473E+03  0.40150087527E+02 -0.12407105026E+03  0.30835857761E+03  0.79551534267E+02 0.  0.
         -6    2    1    2    0  501 -0.24818935107E+03 -0.43110553250E+02  0.16785678203E+03  0.34925116106E+03  0.17419529397E+03 0.  0.
        -24    2    5    5    0    0 -0.16128259960E+03 -0.96207517660E+02  0.11670336502E+03  0.23518612192E+03  0.80155306437E+02 0.  0.
          5    1    3    3  502    0 -0.19674253655E+02  0.29604657233E+01 -0.78283612207E+00  0.20458334403E+02  0.47000000000E+01 0. -1.
        -11    1    4    4    0    0  0.79759603094E+02 -0.11367522551E+02 -0.69556647991E+01  0.80865296187E+02  0.00000000000E+00 0.  1.
         12    1    4    4    0    0  0.18810400164E+03  0.51517610078E+02 -0.11711538546E+03  0.22749328142E+03  0.00000000000E+00 0. -1.
         -5    1    5    5    0  501 -0.86906751478E+02  0.53096964410E+02  0.51153417009E+02  0.11406503914E+03  0.47000000000E+01 0.  1.
         13    1    6    6    0    0 -0.10468107053E+03 -0.22361735826E+02  0.38872912285E+02  0.11388273384E+03  0.00000000000E+00 0. -1.
        -14    1    6    6    0    0 -0.56601529063E+02 -0.73845781834E+02  0.77830452738E+02  0.12130338808E+03  0.00000000000E+00 0.  1.
</event>
<event>
12    1  0.2689284E-002  0.2530540E+03  0.7818608E-02  0.1111390E+00
          2   -1    0    0  502    0  0.00000000000E+00  0.00000000000E+00  0.49577215771E+03  0.49577215771E+03  0.00000000000E+00 0.  1.
         -2   -1    0    0    0  501 -0.00000000000E+00 -0.00000000000E+00 -0.12941827128E+03  0.12941827128E+03  0.00000000000E+00 0. -1.
          6    2    1    2  502    0  0.10688296290E+03  0.15154303598E+03  0.16945416538E+03  0.30467656796E+03  0.17240602480E+03 0.  0.
         24    2    3    3    0    0  0.19669899904E+02  0.34558095629E+01  0.47461530537E+02  0.93868034116E+02  0.78484159969E+02 0.  0.
         -6    2    1    2    0  501 -0.10688296290E+03 -0.15154303598E+03  0.19689972105E+03  0.32051386103E+03  0.17196038918E+03 0.  0.
        -24    2    5    5    0    0 -0.39579319723E+02 -0.15975831001E+03  0.16347840684E+03  0.24477519616E+03  0.78105486269E+02 0.  0.
          5    1    3    3  502    0  0.87213062993E+02  0.14808722642E+03  0.12199263484E+03  0.21080853384E+03  0.47000000000E+01 0. -1.
        -11    1    4    4    0    0  0.49154392104E+01  0.23869294934E+01  0.68186500222E+02  0.68405100596E+02  0.00000000000E+00 0.  1.
         12    1    4    4    0    0  0.14754460693E+02  0.10688800695E+01 -0.20724969686E+02  0.25462933520E+02  0.00000000000E+00 0. -1.
         -5    1    5    5    0  501 -0.67303643173E+02  0.82152740342E+01  0.33421314219E+02  0.75738664868E+02  0.47000000000E+01 0.  1.
         11    1    6    6    0    0 -0.17516988978E+02 -0.11063720621E+03  0.57523755380E+02  0.12592227258E+03  0.00000000000E+00 0. -1.
        -12    1    6    6    0    0 -0.22062330746E+02 -0.49121103809E+02  0.10595465146E+03  0.11885292358E+03  0.00000000000E+00 0.  1.
</event>
<event>
12    1  0.2689284E-002  0.1840953E+03  0.7818608E-02  0.1163897E+00
         -1   -1    0    0    0  501 -0.00000000000E+00  0.00000000000E+00  0.36567673250E+02  0.36567673250E+02  0.00000000000E+00 0. -1.
          1   -1    0    0  502    0  0.00000000000E+00 -0.00000000000E+00 -0.11203876723E+04  0.11203876723E+04  0.00000000000E+00 0.  1.
          6    2    1    2  502    0  0.31098508719E+02 -0.57888390199E+02 -0.30189875689E+03  0.35369649950E+03  0.17216321146E+03 0.  0.
         24    2    3    3    0    0  0.42996025750E+02  0.17315727741E+02 -0.13228185808E+03  0.16771479979E+03  0.92093818644E+02 0.  0.
         -6    2    1    2    0  501 -0.31098508719E+02  0.57888390199E+02 -0.78192124218E+03  0.80325884607E+03  0.17177241296E+03 0.  0.
        -24    2    5    5    0    0  0.19402457920E+01 -0.28434202547E+02 -0.43789673947E+03  0.44700318256E+03  0.85123571080E+02 0.  0.
          5    1    3    3  502    0 -0.11897517030E+02 -0.75204117940E+02 -0.16961689881E+03  0.18598169971E+03  0.47000000000E+01 0. -1.
        -13    1    4    4    0    0  0.21418014663E+01  0.45628117670E+02 -0.31943403368E+02  0.55739514300E+02  0.00000000000E+00 0.  1.
         14    1    4    4    0    0  0.40854224283E+02 -0.28312389930E+02 -0.10033845472E+03  0.11197528549E+03  0.00000000000E+00 0. -1.
         -5    1    5    5    0  501 -0.33038754511E+02  0.86322592746E+02 -0.34402450271E+03  0.35625566351E+03  0.47000000000E+01 0.  1.
         13    1    6    6    0    0  0.21426455564E+02  0.22860747286E+02 -0.22398661855E+03  0.22616744251E+03  0.00000000000E+00 0. -1.
        -14    1    6    6    0    0 -0.19486209772E+02 -0.51294949833E+02 -0.21391012092E+03  0.22083574004E+03  0.00000000000E+00 0.  1.
</event>
<event>
12    1  0.2689284E-002  0.1894974E+03  0.7818608E-02  0.1158915E+00
          1   -1    0    0  502    0  0.00000000000E+00  0.00000000000E+00  0.27700147141E+03  0.27700147141E+03  0.00000000000E+00 0.  1.
         -1   -1    0    0    0  501 -0.00000000000E+00 -0.00000000000E+00 -0.13488407486E+03  0.13488407486E+03  0.00000000000E+00 0. -1.
          6    2    1    2  502    0  0.70292629074E+02 -0.33149235781E+02  0.11130298698E+03  0.21889756739E+03  0.17172030912E+03 0.  0.
         24    2    3    3    0    0  0.76242911452E+02 -0.69250583766E+02  0.36072545761E+02  0.13510960601E+03  0.79653952691E+02 0.  0.
         -6    2    1    2    0  501 -0.70292629074E+02  0.33149235781E+02  0.30814409567E+02  0.19298797888E+03  0.17393937628E+03 0.  0.
        -24    2    5    5    0    0 -0.47282207369E+02  0.25514912333E+02  0.92379446925E+02  0.12665468237E+03  0.67976675902E+02 0.  0.
          5    1    3    3  502    0 -0.59502823779E+01  0.36101347984E+02  0.75230441216E+02  0.83787961380E+02  0.47000000000E+01 0. -1.
        -13    1    4    4    0    0  0.38340531041E+02  0.12306253057E+02  0.11652997850E+02  0.41919357625E+02  0.00000000000E+00 0.  1.
         14    1    4    4    0    0  0.37902380411E+02 -0.81556836823E+02  0.24419547911E+02  0.93190248382E+02  0.00000000000E+00 0. -1.
         -5    1    5    5    0  501 -0.23010421705E+02  0.76343234487E+01 -0.61565037358E+02  0.66333296515E+02  0.47000000000E+01 0.  1.
         13    1    6    6    0    0  0.37158415676E+01  0.34599387513E+02  0.35100641411E+02  0.49426512342E+02  0.00000000000E+00 0. -1.
        -14    1    6    6    0    0 -0.50998048936E+02 -0.90844751800E+01  0.57278805514E+02  0.77228170027E+02  0.00000000000E+00 0.  1.
</event>
<event>
12    1  0.2689284E-002  0.1753912E+03  0.7818608E-02  0.1172339E+00
          1   -1    0    0  502    0  0.00000000000E+00  0.00000000000E+00  0.11773757631E+04  0.11773757631E+04  0.00000000000E+00 0.  1.
         -1   -1    0    0    0  501 -0.00000000000E+00 -0.00000000000E+00 -0.53736168432E+02  0.53736168432E+02  0.00000000000E+00 0. -1.
          6    2    1    2  502    0 -0.13006841145E+02  0.90342966567E+01  0.10073305213E+04  0.10229746319E+04  0.17751484951E+03 0.  0.
         24    2    3    3    0    0 -0.37388284736E+02 -0.56967921963E+01  0.24525292527E+03  0.26035033892E+03  0.78758900098E+02 0.  0.
         -6    2    1    2    0  501  0.13006841145E+02 -0.90342966567E+01  0.11630907332E+03  0.20813729965E+03  0.17187943023E+03 0.  0.
        -24    2    5    5    0    0  0.41218036583E+02  0.51010100411E+02  0.42356126998E+02  0.10867710944E+03  0.75602352730E+02 0.  0.
          5    1    3    3  502    0  0.24381443591E+02  0.14731088853E+02  0.76207759606E+03  0.76262429295E+03  0.47000000000E+01 0. -1.
        -11    1    4    4    0    0  0.13826389809E+02 -0.22296538830E+02  0.13652880799E+03  0.13902668848E+03  0.00000000000E+00 0.  1.
         12    1    4    4    0    0 -0.51214674545E+02  0.16599746634E+02  0.10872411728E+03  0.12132365044E+03  0.00000000000E+00 0. -1.
         -5    1    5    5    0  501 -0.28211195438E+02 -0.60044397067E+02  0.73952946319E+02  0.99460190209E+02  0.47000000000E+01 0.  1.
         11    1    6    6    0    0  0.17577257374E+02  0.53667236701E+02  0.57405843092E+02  0.80526784941E+02  0.00000000000E+00 0. -1.
        -12    1    6    6    0    0  0.23640779209E+02 -0.26571362903E+01 -0.15049716094E+02  0.28150324499E+02  0.00000000000E+00 0.  1.
</event>
<event>
12    1  0.2689284E-002  0.1751920E+03  0.7818608E-02  0.1172539E+00
          1   -1    0    0  502    0  0.00000000000E+00  0.00000000000E+00  0.39538200530E+02  0.39538200530E+02  0.00000000000E+00 0. -1.
         -1   -1    0    0    0  501 -0.00000000000E+00 -0.00000000000E+00 -0.83222466781E+03  0.83222466781E+03  0.00000000000E+00 0.  1.
          6    2    1    2  502    0 -0.22389808831E+01  0.28871024276E+02 -0.51041512637E+03  0.53980676119E+03  0.17328932201E+03 0.  0.
         24    2    3    3    0    0  0.30145128826E+02  0.63643921635E+02 -0.45076751558E+03  0.46340118270E+03  0.81178971829E+02 0.  0.
         -6    2    1    2    0  501  0.22389808831E+01 -0.28871024276E+02 -0.28227134091E+03  0.33195610715E+03  0.17227651638E+03 0.  0.
        -24    2    5    5    0    0 -0.12108810586E+01  0.33378572206E+02 -0.12071134284E+03  0.15872032336E+03  0.97495217528E+02 0.  0.
          5    1    3    3  502    0 -0.32384109709E+02 -0.34772897359E+02 -0.59647610782E+02  0.76405578490E+02  0.47000000000E+01 0. -1.
        -13    1    4    4    0    0  0.66971748600E+01  0.43876739346E+02 -0.80995705523E+02  0.92359757037E+02  0.00000000000E+00 0.  1.
         14    1    4    4    0    0  0.23447953966E+02  0.19767182289E+02 -0.36977181006E+03  0.37104142566E+03  0.00000000000E+00 0. -1.
         -5    1    5    5    0  501  0.34498619417E+01 -0.62249596482E+02 -0.16155999807E+03  0.17323578379E+03  0.47000000000E+01 0.  1.
         11    1    6    6    0    0  0.37480266269E+02  0.42934171206E+01 -0.98473247012E+02  0.10545228384E+03  0.00000000000E+00 0. -1.
        -12    1    6    6    0    0 -0.38691147328E+02  0.29085155085E+02 -0.22238095831E+02  0.53268039518E+02  0.00000000000E+00 0.  1.
</event>
<event>
12    1  0.2689284E-002  0.2174077E+03  0.7818608E-02  0.1135831E+00
         -4   -1    0    0    0  501 -0.00000000000E+00  0.00000000000E+00  0.76579494050E+03  0.76579494050E+03  0.00000000000E+00 0. -1.
          4   -1    0    0  502    0  0.00000000000E+00 -0.00000000000E+00 -0.67617223894E+02  0.67617223894E+02  0.00000000000E+00 0.  1.
          6    2    1    2  502    0 -0.12984070392E+03 -0.29607098471E+02  0.22452268991E+03  0.31180550684E+03  0.17051993178E+03 0.  0.
         24    2    3    3    0    0 -0.54818399220E+01 -0.35625138463E+02  0.12697144661E+03  0.15356619779E+03  0.78496036764E+02 0.  0.
         -6    2    1    2    0  501  0.12984070392E+03  0.29607098471E+02  0.47365502669E+03  0.52160665756E+03  0.17317399407E+03 0.  0.
        -24    2    5    5    0    0  0.57288900891E+02 -0.40641649211E+02  0.14882495031E+03  0.18140771694E+03  0.76329103982E+02 0.  0.
          5    1    3    3  502    0 -0.12435886400E+03  0.60180399919E+01  0.97551243296E+02  0.15823930905E+03  0.47000000000E+01 0. -1.
        -11    1    4    4    0    0 -0.88737853894E+01 -0.43416187019E+02  0.24291026616E+02  0.50534773538E+02  0.00000000000E+00 0.  1.
         12    1    4    4    0    0  0.33919454673E+01  0.77910485564E+01  0.10268042000E+03  0.10303142425E+03  0.00000000000E+00 0. -1.
         -5    1    5    5    0  501  0.72551803029E+02  0.70248747682E+02  0.32483007638E+03  0.34019894062E+03  0.47000000000E+01 0.  1.
         13    1    6    6    0    0  0.29182002763E+02 -0.35464247658E+02  0.14557006599E+03  0.15264319920E+03  0.00000000000E+00 0. -1.
        -14    1    6    6    0    0  0.28106898128E+02 -0.51774015533E+01  0.32548843177E+01  0.28764517745E+02  0.00000000000E+00 0.  1.
</event>
<event>
12    1  0.2689284E-002  0.1803698E+03  0.7818608E-02  0.1167446E+00
         -1   -1    0    0    0  501 -0.00000000000E+00  0.00000000000E+00  0.58280568170E+03  0.58280568170E+03  0.00000000000E+00 0. -1.
          1   -1    0    0  502    0  0.00000000000E+00 -0.00000000000E+00 -0.57912455561E+02  0.57912455561E+02  0.00000000000E+00 0.  1.
          6    2    1    2  502    0  0.20779039735E+02 -0.11820766196E+02  0.19508510360E+03  0.26229549108E+03  0.17369291289E+03 0.  0.
         24    2    3    3    0    0 -0.17081949226E+02  0.29262784644E+02  0.18560115544E+03  0.20543295590E+03  0.81282266906E+02 0.  0.
         -6    2    1    2    0  501 -0.20779039735E+02  0.11820766196E+02  0.32980812254E+03  0.37842264618E+03  0.18400761518E+03 0.  0.
        -24    2    5    5    0    0 -0.80388365270E+02 -0.78487530250E+01  0.26778599438E+03  0.29005412204E+03  0.76799496955E+02 0.  0.
          5    1    3    3  502    0  0.37860988961E+02 -0.41083550839E+02  0.94839481603E+01  0.56862535182E+02  0.47000000000E+01 0. -1.
        -11    1    4    4    0    0  0.27613832707E+02  0.32416036279E+02  0.77814140816E+02  0.88703797415E+02  0.00000000000E+00 0.  1.
         12    1    4    4    0    0 -0.44695781933E+02 -0.31532516354E+01  0.10778701463E+03  0.11672915849E+03  0.00000000000E+00 0. -1.
         -5    1    5    5    0  501  0.59609325535E+02  0.19669519221E+02  0.62022128153E+02  0.88368524135E+02  0.47000000000E+01 0.  1.
         13    1    6    6    0    0 -0.80175903801E+02  0.20766156298E+02  0.19678705444E+03  0.21350539477E+03  0.00000000000E+00 0. -1.
        -14    1    6    6    0    0 -0.21246146882E+00 -0.28614909323E+02  0.70998939940E+02  0.76548727279E+02  0.00000000000E+00 0.  1.
</event>
<event>
12    1  0.2689284E-002  0.2107027E+03  0.7818608E-02  0.1141011E+00
         -2   -1    0    0    0  501 -0.00000000000E+00  0.00000000000E+00  0.52962539815E+02  0.52962539815E+02  0.00000000000E+00 0. -1.
          2   -1    0    0  502    0  0.00000000000E+00 -0.00000000000E+00 -0.89270721928E+03  0.89270721928E+03  0.00000000000E+00 0.  1.
          6    2    1    2  502    0 -0.16152843690E+01 -0.12118778528E+03 -0.30376119951E+03  0.36989000456E+03  0.17279658764E+03 0.  0.
         24    2    3    3    0    0  0.31450434362E+02 -0.94601985392E+02 -0.10235820930E+03  0.16401285436E+03  0.80525448904E+02 0.  0.
         -6    2    1    2    0  501  0.16152843690E+01  0.12118778528E+03 -0.53598347996E+03  0.57577975454E+03  0.17191552141E+03 0.  0.
        -24    2    5    5    0    0 -0.55569054245E+01  0.13741544803E+03 -0.30284242292E+03  0.34191735948E+03  0.79246848754E+02 0.  0.
          5    1    3    3  502    0 -0.33065718731E+02 -0.26585799885E+02 -0.20140299021E+03  0.20587715020E+03  0.47000000000E+01 0. -1.
        -13    1    4    4    0    0 -0.16988846000E+02  0.42729518817E+01 -0.19516766804E+02  0.26225620921E+02  0.00000000000E+00 0.  1.
         14    1    4    4    0    0  0.48439280362E+02 -0.98874937274E+02 -0.82841442497E+02  0.13778723344E+03  0.00000000000E+00 0. -1.
         -5    1    5    5    0  501  0.71721897935E+01 -0.16227662756E+02 -0.23314105704E+03  0.23386239506E+03  0.47000000000E+01 0.  1.
         13    1    6    6    0    0  0.17555589658E+02 -0.12453457445E+01 -0.43525484685E+02  0.46949094041E+02  0.00000000000E+00 0. -1.
        -14    1    6    6    0    0 -0.23112495082E+02  0.13866079378E+03 -0.25931693824E+03  0.29496826544E+03  0.00000000000E+00 0.  1.
</event>
<event>
12    1  0.2689284E-002  0.2231899E+03  0.7818608E-02  0.1131527E+00
         -1   -1    0    0    0  501 -0.00000000000E+00  0.00000000000E+00  0.58259965158E+02  0.58259965158E+02  0.00000000000E+00 0. -1.
          1   -1    0    0  502    0  0.00000000000E+00 -0.00000000000E+00 -0.89556480499E+03  0.89556480499E+03  0.00000000000E+00 0.  1.
          6    2    1    2  502    0  0.14014081925E+03  0.25728594916E+02 -0.31793793510E+03  0.38869732986E+03  0.17233593313E+03 0.  0.
         24    2    3    3    0    0  0.14415170508E+03  0.43918856226E+02 -0.32570760817E+03  0.36797462176E+03  0.81309877817E+02 0.  0.
         -6    2    1    2    0  501 -0.14014081925E+03 -0.25728594916E+02 -0.51936690473E+03  0.56512744028E+03  0.17124728383E+03 0.  0.
        -24    2    5    5    0    0 -0.14631939458E+03 -0.35555038428E+02 -0.52426916321E+03  0.55167917187E+03  0.82572557102E+02 0.  0.
          5    1    3    3  502    0 -0.40108858285E+01 -0.18190261310E+02  0.77696730640E+01  0.20722708104E+02  0.47000000000E+01 0. -1.
        -13    1    4    4    0    0  0.11511807080E+03  0.39388610742E+02 -0.31326598315E+03  0.33606429307E+03  0.00000000000E+00 0.  1.
         14    1    4    4    0    0  0.29033634282E+02  0.45302454840E+01 -0.12441625020E+02  0.31910328687E+02  0.00000000000E+00 0. -1.
         -5    1    5    5    0  501  0.61785753304E+01  0.98264435124E+01  0.49022584858E+01  0.13448268419E+02  0.47000000000E+01 0.  1.
         13    1    6    6    0    0 -0.63098004350E+01  0.14798233266E+02 -0.18686512134E+02  0.24657392908E+02  0.00000000000E+00 0. -1.
        -14    1    6    6    0    0 -0.14000959415E+03 -0.50353271694E+02 -0.50558265108E+03  0.52702177896E+03  0.00000000000E+00 0.  1.
</event>
<event>
12    1  0.2689284E-002  0.1890064E+03  0.7818608E-02  0.1159361E+00
          1   -1    0    0  502    0  0.00000000000E+00  0.00000000000E+00  0.24386309042E+03  0.24386309042E+03  0.00000000000E+00 0. -1.
         -1   -1    0    0    0  501 -0.00000000000E+00 -0.00000000000E+00 -0.15929302445E+03  0.15929302445E+03  0.00000000000E+00 0.  1.
          6    2    1    2  502    0 -0.77722069197E+02 -0.41582579956E+01  0.99280901615E+02  0.21286050525E+03  0.17144936897E+03 0.  0.
         24    2    3    3    0    0 -0.15844107477E-01 -0.21542065509E+02  0.10385141555E+03  0.13296411122E+03  0.80189011241E+02 0.  0.
         -6    2    1    2    0  501  0.77722069197E+02  0.41582579956E+01 -0.14710835648E+02  0.19029560961E+03  0.17302600730E+03 0.  0.
        -24    2    5    5    0    0  0.82420393699E+02 -0.53927494792E+02 -0.27107543896E+02  0.13053109417E+03  0.81254240617E+02 0.  0.
          5    1    3    3  502    0 -0.77706225089E+02  0.17383807514E+02 -0.45705139369E+01  0.79896394030E+02  0.47000000000E+01 0. -1.
        -13    1    4    4    0    0  0.28979636578E+02 -0.38874929477E+02  0.52188058956E+02  0.71236738946E+02  0.00000000000E+00 0.  1.
         14    1    4    4    0    0 -0.28995480686E+02  0.17332863967E+02  0.51663356596E+02  0.61727372277E+02  0.00000000000E+00 0. -1.
         -5    1    5    5    0  501 -0.46983245027E+01  0.58085752788E+02  0.12396708248E+02  0.59764515437E+02  0.47000000000E+01 0.  1.
         13    1    6    6    0    0 -0.14113848164E+02 -0.16801821144E+02 -0.14586104474E+02  0.26348744704E+02  0.00000000000E+00 0. -1.
        -14    1    6    6    0    0  0.96534241863E+02 -0.37125673648E+02 -0.12521439422E+02  0.10418234947E+03  0.00000000000E+00 0.  1.
</event>
<event>
12    1  0.2689284E-002  0.1761050E+03  0.7818608E-02  0.1171627E+00
         -2   -1    0    0    0  501 -0.00000000000E+00  0.00000000000E+00  0.41316509391E+03  0.41316509391E+03  0.00000000000E+00 0.  1.
          2   -1    0    0  502    0  0.00000000000E+00 -0.00000000000E+00 -0.11621250803E+03  0.11621250803E+03  0.00000000000E+00 0. -1.
          6    2    1    2  502    0 -0.31986769234E+02 -0.19208911707E+02 -0.89660154089E+01  0.17644980784E+03  0.17222662268E+03 0.  0.
         24    2    3    3    0    0  0.51267966267E+01 -0.37096678371E+02  0.51807198895E+02  0.10287764908E+03  0.80606310135E+02 0.  0.
         -6    2    1    2    0  501  0.31986769234E+02  0.19208911707E+02  0.30591860129E+03  0.35292779410E+03  0.17198750403E+03 0.  0.
        -24    2    5    5    0    0  0.91386861167E+00 -0.43364428051E+02  0.10165326864E+03  0.13699409103E+03  0.80948657652E+02 0.  0.
          5    1    3    3  502    0 -0.37113565860E+02  0.17887766664E+02 -0.60773214304E+02  0.73572158756E+02  0.47000000000E+01 0. -1.
        -13    1    4    4    0    0  0.28022417418E+02  0.14890473709E+02  0.22952135286E+02  0.39163536605E+02  0.00000000000E+00 0.  1.
         14    1    4    4    0    0 -0.22895620791E+02 -0.51987152081E+02  0.28855063609E+02  0.63714112477E+02  0.00000000000E+00 0. -1.
         -5    1    5    5    0  501  0.31072900622E+02  0.62573339759E+02  0.20426533264E+03  0.21593370307E+03  0.47000000000E+01 0.  1.
         13    1    6    6    0    0 -0.24597338927E+01 -0.62016686929E+02  0.10035242416E+03  0.11799461337E+03  0.00000000000E+00 0. -1.
        -14    1    6    6    0    0  0.33736025044E+01  0.18652258878E+02  0.13008444789E+01  0.18999477663E+02  0.00000000000E+00 0.  1.
</event>
<event>
12    1  0.2689284E-002  0.1779245E+03  0.7818608E-02  0.1169827E+00
          2   -1    0    0  502    0  0.00000000000E+00  0.00000000000E+00  0.16995176088E+03  0.16995176088E+03  0.00000000000E+00 0.  1.
         -2   -1    0    0    0  501 -0.00000000000E+00 -0.00000000000E+00 -0.46222395847E+03  0.46222395847E+03  0.00000000000E+00 0. -1.
          6    2    1    2  502    0 -0.28357542292E+02  0.36724206847E+02  0.98314483493E+02  0.20269328056E+03  0.17107311521E+03 0.  0.
         24    2    3    3    0    0 -0.58334374300E+02  0.43456811723E+00  0.11626790800E+03  0.15209719585E+03  0.78817780229E+02 0.  0.
         -6    2    1    2    0  501  0.28357542292E+02 -0.36724206847E+02 -0.39058668108E+03  0.42948243879E+03  0.17246562620E+03 0.  0.
        -24    2    5    5    0    0 -0.50477369240E+02 -0.11555168107E+02 -0.21464491967E+03  0.23499332034E+03  0.80423456463E+02 0.  0.
          5    1    3    3  502    0  0.29976832008E+02  0.36289638730E+02 -0.17953424511E+02  0.50596084711E+02  0.47000000000E+01 0. -1.
        -13    1    4    4    0    0 -0.44168931449E+02  0.37364183878E+02  0.77509247114E+02  0.96719491988E+02  0.00000000000E+00 0.  1.
         14    1    4    4    0    0 -0.14165442851E+02 -0.36929615761E+02  0.38758660890E+02  0.55377703865E+02  0.00000000000E+00 0. -1.
         -5    1    5    5    0  501  0.78834911532E+02 -0.25169038741E+02 -0.17594176141E+03  0.19448911845E+03  0.47000000000E+01 0.  1.
         13    1    6    6    0    0 -0.17503793213E+01  0.30313099902E+02 -0.85922928713E+02  0.91130113201E+02  0.00000000000E+00 0. -1.
        -14    1    6    6    0    0 -0.48726989919E+02 -0.41868268009E+02 -0.12872199096E+03  0.14386320714E+03  0.00000000000E+00 0.  1.
</event>
<event>
12    1  0.2689284E-002  0.2348622E+03  0.7818608E-02  0.1123264E+00
          1   -1    0    0  502    0  0.00000000000E+00  0.00000000000E+00  0.44160012303E+03  0.44160012303E+03  0.00000000000E+00 0.  1.
         -1   -1    0    0    0  501 -0.00000000000E+00 -0.00000000000E+00 -0.14290899956E+03  0.14290899956E+03  0.00000000000E+00 0. -1.
          6    2    1    2  502    0 -0.16067574200E+03  0.59908319303E+01  0.25263290666E+03  0.34441834865E+03  0.17014120377E+03 0.  0.
         24    2    3    3    0    0 -0.75317403940E+02  0.44359826180E+02  0.63150115180E+02  0.13303234186E+03  0.77904822822E+02 0.  0.
         -6    2    1    2    0  501  0.16067574200E+03 -0.59908319303E+01  0.46058216801E+02  0.24009077395E+03  0.17224876274E+03 0.  0.
        -24    2    5    5    0    0  0.70607883349E+02 -0.10623581170E+02 -0.35721110276E+02  0.11825633767E+03  0.87236632275E+02 0.  0.
          5    1    3    3  502    0 -0.85358338058E+02 -0.38368994250E+02  0.18948279148E+03  0.21138600678E+03  0.47000000000E+01 0. -1.
        -11    1    4    4    0    0 -0.67030174916E+02  0.11366822240E+02  0.83029949749E+01  0.68492253012E+02  0.00000000000E+00 0.  1.
         12    1    4    4    0    0 -0.82872290239E+01  0.32993003941E+02  0.54847120205E+02  0.64540088850E+02  0.00000000000E+00 0. -1.
         -5    1    5    5    0  501  0.90067858649E+02  0.46327492396E+01  0.81779327077E+02  0.12183443628E+03  0.47000000000E+01 0.  1.
         13    1    6    6    0    0  0.86709105058E+02  0.37633107560E+01 -0.14522716618E+02  0.87997390335E+02  0.00000000000E+00 0. -1.
        -14    1    6    6    0    0 -0.16101221710E+02 -0.14386891926E+02 -0.21198393658E+02  0.30258947330E+02  0.00000000000E+00 0.  1.
</event>
<event>
12    1  0.2689284E-002  0.1791596E+03  0.7818608E-02  0.1168619E+00
          1   -1    0    0  502    0  0.00000000000E+00  0.00000000000E+00  0.29393276207E+03  0.29393276207E+03  0.00000000000E+00 0. -1.
         -1   -1    0    0    0  501 -0.00000000000E+00 -0.00000000000E+00 -0.10981365896E+03  0.10981365896E+03  0.00000000000E+00 0.  1.
          6    2    1    2  502    0  0.25719165714E+02  0.43606965814E+02  0.10713244471E+03  0.20876768560E+03  0.17188235189E+03 0.  0.
         24    2    3    3    0    0 -0.26019974785E+02 -0.29482779640E+02  0.44794377041E+02  0.99556082602E+02  0.79740855184E+02 0.  0.
         -6    2    1    2    0  501 -0.25719165714E+02 -0.43606965814E+02  0.76986658406E+02  0.19497873543E+03  0.17183340404E+03 0.  0.
        -24    2    5    5    0    0 -0.59081591880E+02  0.12412289763E+02  0.23330971539E+01  0.95749441955E+02  0.74281982043E+02 0.  0.
          5    1    3    3  502    0  0.51739140499E+02  0.73089745454E+02  0.62338067665E+02  0.10921160300E+03  0.47000000000E+01 0. -1.
        -13    1    4    4    0    0  0.89441809589E+01  0.22440754998E+02  0.31289415872E+01  0.24359313072E+02  0.00000000000E+00 0.  1.
         14    1    4    4    0    0 -0.34964155744E+02 -0.51923534638E+02  0.41665435453E+02  0.75196769530E+02  0.00000000000E+00 0. -1.
         -5    1    5    5    0  501  0.33362426166E+02 -0.56019255577E+02  0.74653561252E+02  0.99229293471E+02  0.47000000000E+01 0.  1.
         13    1    6    6    0    0 -0.27964024694E+02  0.40361493117E+02  0.16165653328E+02  0.51694923844E+02  0.00000000000E+00 0. -1.
        -14    1    6    6    0    0 -0.31117567186E+02 -0.27949203354E+02 -0.13832556174E+02  0.44054518112E+02  0.00000000000E+00 0.  1.
</event>
<event>
12    1  0.2689284E-002  0.3490863E+03  0.7818608E-02  0.1062991E+00
         -1   -1    0    0    0  501 -0.00000000000E+00  0.00000000000E+00  0.28701030808E+03  0.28701030808E+03  0.00000000000E+00 0. -1.
          1   -1    0    0  502    0  0.00000000000E+00 -0.00000000000E+00 -0.58316454074E+03  0.58316454074E+03  0.00000000000E+00 0.  1.
          6    2    1    2  502    0 -0.15818414907E+03  0.26077133001E+03 -0.37533832894E+03  0.51343134412E+03  0.17236290897E+03 0.  0.
         24    2    3    3    0    0 -0.16068035063E+03  0.14278300355E+03 -0.21952750601E+03  0.31791515874E+03  0.81685745910E+02 0.  0.
         -6    2    1    2    0  501  0.15818414907E+03 -0.26077133001E+03  0.79184096278E+02  0.35674350470E+03  0.16724800590E+03 0.  0.
        -24    2    5    5    0    0  0.13249485210E+03 -0.27677259044E+03  0.75420942279E+02  0.32588525391E+03  0.79717799313E+02 0.  0.
          5    1    3    3  502    0  0.24962015639E+01  0.11798832646E+03 -0.15581082293E+03  0.19551618538E+03  0.47000000000E+01 0. -1.
        -11    1    4    4    0    0 -0.82014798413E+02  0.12264178358E+03 -0.15685783373E+03  0.21534115779E+03  0.00000000000E+00 0.  1.
         12    1    4    4    0    0 -0.78665552217E+02  0.20141219969E+02 -0.62669672280E+02  0.10257400095E+03  0.00000000000E+00 0. -1.
         -5    1    5    5    0  501  0.25689296968E+02  0.16001260436E+02  0.37631539998E+01  0.30858250797E+02  0.47000000000E+01 0.  1.
         11    1    6    6    0    0  0.10091323186E+03 -0.19813268201E+03  0.90038105561E+02  0.23988935053E+03  0.00000000000E+00 0. -1.
        -12    1    6    6    0    0  0.31581620234E+02 -0.78639908432E+02 -0.14617163283E+02  0.85995903375E+02  0.00000000000E+00 0.  1.
</event>
<event>
12    1  0.2689284E-002  0.3096815E+03  0.7818608E-02  0.1080499E+00
          1   -1    0    0  502    0  0.00000000000E+00  0.00000000000E+00  0.13050906934E+04  0.13050906934E+04  0.00000000000E+00 0. -1.
         -1   -1    0    0    0  501 -0.00000000000E+00 -0.00000000000E+00 -0.86137314596E+02  0.86137314596E+02  0.00000000000E+00 0.  1.
          6    2    1    2  502    0 -0.17924130592E+03 -0.18684485681E+03  0.87718959629E+03  0.93046867303E+03  0.17109037783E+03 0.  0.
         24    2    3    3    0    0 -0.98282897949E+02 -0.67258231900E+02  0.26176962368E+03  0.29831437433E+03  0.79277564687E+02 0.  0.
         -6    2    1    2    0  501  0.17924130592E+03  0.18684485681E+03  0.34176378252E+03  0.46075933497E+03  0.16869568890E+03 0.  0.
        -24    2    5    5    0    0  0.11620579937E+03  0.36918114496E+02  0.15288675273E+03  0.21146407723E+03  0.80473360908E+02 0.  0.
          5    1    3    3  502    0 -0.80958407973E+02 -0.11958662491E+03  0.61541997261E+03  0.63215429870E+03  0.47000000000E+01 0. -1.
        -11    1    4    4    0    0  0.13705716906E+02 -0.42783369001E+01  0.21590684573E+02  0.25928912489E+02  0.00000000000E+00 0.  1.
         12    1    4    4    0    0 -0.11198861486E+03 -0.62979895000E+02  0.24017893911E+03  0.27238546184E+03  0.00000000000E+00 0. -1.
         -5    1    5    5    0  501  0.63035506555E+02  0.14992674231E+03  0.18887702979E+03  0.24929525774E+03  0.47000000000E+01 0.  1.
         11    1    6    6    0    0 -0.22432793432E+01 -0.90879943077E+01  0.41319253408E+02  0.42366314979E+02  0.00000000000E+00 0. -1.
        -12    1    6    6    0    0  0.11844907871E+03  0.46006108804E+02  0.11156749932E+03  0.16909776225E+03  0.00000000000E+00 0.  1.
</event>
<event>
12    1  0.2689284E-002  0.1791940E+03  0.7818608E-02  0.1168585E+00
         -1   -1    0    0    0  501 -0.00000000000E+00  0.00000000000E+00  0.68908170467E+02  0.68908170467E+02  0.00000000000E+00 0.  1.
          1   -1    0    0  502    0  0.00000000000E+00 -0.00000000000E+00 -0.48138095238E+03  0.48138095238E+03  0.00000000000E+00 0. -1.
          6    2    1    2  502    0 -0.99660643929E+01 -0.28447164639E+02 -0.26027688138E+03  0.31881240450E+03  0.18162800077E+03 0.  0.
         24    2    3    3    0    0 -0.58539301464E+02 -0.56984382235E+02 -0.11136005667E+03  0.15952636358E+03  0.79834383705E+02 0.  0.
         -6    2    1    2    0  501  0.99660643929E+01  0.28447164639E+02 -0.15219590052E+03  0.23147671834E+03  0.17178275636E+03 0.  0.
        -24    2    5    5    0    0  0.55079624552E+02  0.46326193095E+01 -0.15184146162E+03  0.18024604876E+03  0.79859767237E+02 0.  0.
          5    1    3    3  502    0  0.48573237071E+02  0.28537217595E+02 -0.14891682471E+03  0.15928604091E+03  0.47000000000E+01 0. -1.
        -13    1    4    4    0    0 -0.71003171190E+02 -0.54112768697E+02 -0.11559394912E+03  0.14605342559E+03  0.00000000000E+00 0.  1.
         14    1    4    4    0    0  0.12463869727E+02 -0.28716135380E+01  0.42338924439E+01  0.13472937991E+02  0.00000000000E+00 0. -1.
         -5    1    5    5    0  501 -0.45113560159E+02  0.23814545330E+02 -0.35443890491E+00  0.51230669588E+02  0.47000000000E+01 0.  1.
         13    1    6    6    0    0  0.32436360446E+02 -0.35538073401E+02 -0.55605592094E+02  0.73532673092E+02  0.00000000000E+00 0. -1.
        -14    1    6    6    0    0  0.22643264106E+02  0.40170692711E+02 -0.96235869526E+02  0.10671337566E+03  0.00000000000E+00 0.  1.
</event>
<event>
12    1  0.2689284E-002  0.2014948E+03  0.7818608E-02  0.1148484E+00
         -2   -1    0    0    0  501 -0.00000000000E+00  0.00000000000E+00  0.88594922530E+02  0.88594922530E+02  0.00000000000E+00 0. -1.
          2   -1    0    0  502    0  0.00000000000E+00 -0.00000000000E+00 -0.80305421337E+03  0.80305421337E+03  0.00000000000E+00 0.  1.
          6    2    1    2  502    0  0.79898745336E+02 -0.70841386412E+02 -0.64903516947E+03  0.67950017233E+03  0.17050372858E+03 0.  0.
         24    2    3    3    0    0  0.96120390618E+02 -0.34416188829E+01 -0.33210567001E+03  0.35504329066E+03  0.80688214486E+02 0.  0.
         -6    2    1    2    0  501 -0.79898745336E+02  0.70841386412E+02 -0.65424121374E+02  0.21214896357E+03  0.17124414019E+03 0.  0.
        -24    2    5    5    0    0 -0.11493505899E+03  0.34721133203E+02 -0.23536411656E+02  0.14650685672E+03  0.80589524864E+02 0.  0.
          5    1    3    3  502    0 -0.16221645282E+02 -0.67399767529E+02 -0.31692949946E+03  0.32445688167E+03  0.47000000000E+01 0. -1.
        -13    1    4    4    0    0  0.20093609632E+02 -0.35297857875E+02 -0.14506803708E+03  0.15064669694E+03  0.00000000000E+00 0.  1.
         14    1    4    4    0    0  0.76026780986E+02  0.31856238992E+02 -0.18703763293E+03  0.20439659371E+03  0.00000000000E+00 0. -1.
         -5    1    5    5    0  501  0.35036313650E+02  0.36120253209E+02 -0.41887709718E+02  0.65642106848E+02  0.47000000000E+01 0.  1.
         11    1    6    6    0    0 -0.13610641807E+02  0.37603777658E+02 -0.20863263156E+02  0.45106201504E+02  0.00000000000E+00 0. -1.
        -12    1    6    6    0    0 -0.10132441718E+03 -0.28826444554E+01 -0.26731484999E+01  0.10140065522E+03  0.00000000000E+00 0.  1.
</event>
<event>
12    1  0.2689284E-002  0.2171156E+03  0.7818608E-02  0.1136052E+00
          2   -1    0    0  502    0  0.00000000000E+00  0.00000000000E+00  0.28293871202E+04  0.28293871202E+04  0.00000000000E+00 0.  1.
         -2   -1    0    0    0  501 -0.00000000000E+00 -0.00000000000E+00 -0.21506960270E+02  0.21506960270E+02  0.00000000000E+00 0. -1.
          6    2    1    2  502    0 -0.19131419593E+01 -0.13510514965E+03  0.71928437131E+03  0.75087585618E+03  0.16789128329E+03 0.  0.
         24    2    3    3    0    0  0.22170506576E+02 -0.14965109522E+03  0.68578296445E+03  0.70687539117E+03  0.80545407390E+02 0.  0.
         -6    2    1    2    0  501  0.19131419593E+01  0.13510514965E+03  0.20885957886E+04  0.21000182243E+04  0.17200904786E+03 0.  0.
        -24    2    5    5    0    0  0.32751996135E+01  0.14405640660E+03  0.13203003655E+04  0.13316550762E+04  0.96691320920E+02 0.  0.
          5    1    3    3  502    0 -0.24083648535E+02  0.14545945566E+02  0.33501406859E+02  0.44000465006E+02  0.47000000000E+01 0. -1.
        -11    1    4    4    0    0  0.19626390002E+02 -0.45642532212E+02  0.97133510660E+02  0.10910249687E+03  0.00000000000E+00 0.  1.
         12    1    4    4    0    0  0.25441165744E+01 -0.10400856301E+03  0.58864945379E+03  0.59777289430E+03  0.00000000000E+00 0. -1.
         -5    1    5    5    0  501 -0.13620576541E+01 -0.89512569504E+01  0.76829542308E+03  0.76836314808E+03  0.47000000000E+01 0.  1.
         13    1    6    6    0    0 -0.29975630599E+02  0.50503716327E+02  0.25210116465E+03  0.25885161968E+03  0.00000000000E+00 0. -1.
        -14    1    6    6    0    0  0.33250830213E+02  0.93552690276E+02  0.10681992009E+04  0.10728034565E+04  0.00000000000E+00 0.  1.
</event>
<event>
12    1  0.2689284E-002  0.1767356E+03  0.7818608E-02  0.1171000E+00
         -2   -1    0    0    0  501 -0.00000000000E+00  0.00000000000E+00  0.40273056892E+02  0.40273056892E+02  0.00000000000E+00 0. -1.
          2   -1    0    0  502    0  0.00000000000E+00 -0.00000000000E+00 -0.82449718401E+03  0.82449718401E+03  0.00000000000E+00 0.  1.
          6    2    1    2  502    0  0.28392495065E+02  0.23674668249E+02 -0.49728310268E+03  0.52773393714E+03  0.17275995052E+03 0.  0.
         24    2    3    3    0    0  0.48089628191E+02  0.53154314487E+02 -0.47172913222E+03  0.48377802739E+03  0.79842420483E+02 0.  0.
         -6    2    1    2    0  501 -0.28392495065E+02 -0.23674668249E+02 -0.28694102443E+03  0.33703630376E+03  0.17289214805E+03 0.  0.
        -24    2    5    5    0    0 -0.13985348270E+02 -0.28130303296E+02 -0.48333288962E+02  0.97906297300E+02  0.79136794852E+02 0.  0.
          5    1    3    3  502    0 -0.19697133126E+02 -0.29479646239E+02 -0.25553970458E+02  0.43955909749E+02  0.47000000000E+01 0. -1.
        -11    1    4    4    0    0  0.11773228455E+02 -0.12306921215E+02 -0.23218969579E+03  0.23281349627E+03  0.00000000000E+00 0.  1.
         12    1    4    4    0    0  0.36316399736E+02  0.65461235702E+02 -0.23953943644E+03  0.25096453112E+03  0.00000000000E+00 0. -1.
         -5    1    5    5    0  501 -0.14407146794E+02  0.44556350472E+01 -0.23860773547E+03  0.23913000646E+03  0.47000000000E+01 0.  1.
         13    1    6    6    0    0  0.28978337184E+02 -0.25101262894E+02 -0.85633852824E+01  0.39282935129E+02  0.00000000000E+00 0. -1.
        -14    1    6    6    0    0 -0.42963685454E+02 -0.30290404015E+01 -0.39769903679E+02  0.58623362171E+02  0.00000000000E+00 0.  1.
</event>
<event>
12    1  0.2689284E-002  0.1989465E+03  0.7818608E-02  0.1150631E+00
          1   -1    0    0  502    0  0.00000000000E+00  0.00000000000E+00  0.69448702284E+02  0.69448702284E+02  0.00000000000E+00 0.  1.
         -1   -1    0    0    0  501 -0.00000000000E+00 -0.00000000000E+00 -0.64786021373E+03  0.64786021373E+03  0.00000000000E+00 0. -1.
          6    2    1    2  502    0 -0.11748766572E+02  0.98348781809E+02 -0.41255196986E+03  0.45766107595E+03  0.17159258784E+03 0.  0.
         24    2    3    3    0    0 -0.69503584037E+02  0.52065236778E+02 -0.20077672126E+03  0.23327606886E+03  0.81024042309E+02 0.  0.
         -6    2    1    2    0  501  0.11748766572E+02 -0.98348781809E+02 -0.16585954158E+03  0.25964784007E+03  0.17348514898E+03 0.  0.
        -24    2    5    5    0    0  0.68088656837E+02 -0.50534026639E+02 -0.53103810738E+02  0.12475388585E+03  0.74523582043E+02 0.  0.
          5    1    3    3  502    0  0.57754817465E+02  0.46283545032E+02 -0.21177524861E+03  0.22438500708E+03  0.47000000000E+01 0. -1.
        -11    1    4    4    0    0 -0.17081782582E+02  0.63466854029E+01  0.25320143715E+01  0.18397793579E+02  0.00000000000E+00 0.  1.
         12    1    4    4    0    0 -0.52421801455E+02  0.45718551375E+02 -0.20330873563E+03  0.21487827529E+03  0.00000000000E+00 0. -1.
         -5    1    5    5    0  501 -0.56339890264E+02 -0.47814755170E+02 -0.11275573085E+03  0.13489395422E+03  0.47000000000E+01 0.  1.
         13    1    6    6    0    0  0.49256526549E+02  0.58871146018E+01 -0.83230319903E+01  0.50300461107E+02  0.00000000000E+00 0. -1.
        -14    1    6    6    0    0  0.18832130287E+02 -0.56421141241E+02 -0.44780778748E+02  0.74453424739E+02  0.00000000000E+00 0.  1.
</event>
<event>
12    1  0.2689284E-002  0.1937181E+03  0.7818608E-02  0.1155150E+00
          2   -1    0    0  502    0  0.00000000000E+00  0.00000000000E+00  0.44860627030E+03  0.44860627030E+03  0.00000000000E+00 0.  1.
         -2   -1    0    0    0  501 -0.00000000000E+00 -0.00000000000E+00 -0.12227938019E+03  0.12227938019E+03  0.00000000000E+00 0. -1.
          6    2    1    2  502    0 -0.24524811389E+02 -0.84860180627E+02  0.32381016734E+03  0.37752453043E+03  0.17282658931E+03 0.  0.
         24    2    3    3    0    0  0.31710087741E+02 -0.13693045817E+02  0.23522956371E+03  0.25065554960E+03  0.79386571495E+02 0.  0.
         -6    2    1    2    0  501  0.24524811389E+02  0.84860180627E+02  0.25167227680E+01  0.19336112007E+03  0.17198683738E+03 0.  0.
        -24    2    5    5    0    0 -0.39992863243E+02  0.11450165630E+02 -0.22267418492E+02  0.92425971086E+02  0.79474441184E+02 0.  0.
          5    1    3    3  502    0 -0.56234899130E+02 -0.71167134810E+02  0.88580603635E+02  0.12686898083E+03  0.47000000000E+01 0. -1.
        -11    1    4    4    0    0  0.33864921324E+02 -0.36666052608E+02  0.21243991249E+03  0.21822453741E+03  0.00000000000E+00 0.  1.
         12    1    4    4    0    0 -0.21548335831E+01  0.22973006791E+02  0.22789651219E+02  0.32431012187E+02  0.00000000000E+00 0. -1.
         -5    1    5    5    0  501  0.64517674633E+02  0.73410014997E+02  0.24784141260E+02  0.10093514898E+03  0.47000000000E+01 0.  1.
         11    1    6    6    0    0 -0.56766724966E+02  0.20458876125E+02 -0.34775963848E+02  0.69644772505E+02  0.00000000000E+00 0. -1.
        -12    1    6    6    0    0  0.16773861723E+02 -0.90087104949E+01  0.12508545356E+02  0.22781198581E+02  0.00000000000E+00 0.  1.
</event>
<event>
12    1  0.2780216E-002  0.3755523E+03  0.7818608E-02  0.1052590E+00
         -2   -1    0    0    0  501 -0.00000000000E+00  0.00000000000E+00  0.27310148966E+03  0.27310148966E+03  0.00000000000E+00 0. -1.
          2   -1    0    0  502    0  0.00000000000E+00 -0.00000000000E+00 -0.67645653781E+03  0.67645653781E+03  0.00000000000E+00 0.  1.
          6    2    1    2  502    0  0.63366703681E+02  0.32172267337E+03  0.31055021697E+02  0.37228601170E+03  0.17352706544E+03 0.  0.
         24    2    3    3    0    0 -0.23108112925E+02  0.22802287259E+03  0.92795248475E+01  0.24284950667E+03  0.79758121830E+02 0.  0.
         -6    2    1    2    0  501 -0.63366703681E+02 -0.32172267337E+03 -0.43441006985E+03  0.57727201576E+03  0.19237997220E+03 0.  0.
        -24    2    5    5    0    0 -0.17352848818E+02 -0.54022943518E+02 -0.60434738220E+02  0.11503824496E+03  0.79761146130E+02 0.  0.
          5    1    3    3  502    0  0.86474816606E+02  0.93699800779E+02  0.21775496849E+02  0.12943650504E+03  0.47000000000E+01 0. -1.
        -13    1    4    4    0    0  0.85672347202E+00  0.17245359569E+02 -0.22484163424E+02  0.28349144725E+02  0.00000000000E+00 0.  1.
         14    1    4    4    0    0 -0.23964836397E+02  0.21077751303E+03  0.31763688271E+02  0.21450036194E+03  0.00000000000E+00 0. -1.
         -5    1    5    5    0  501 -0.46013854863E+02 -0.26769972986E+03 -0.37397533163E+03  0.46223377080E+03  0.47000000000E+01 0.  1.
         13    1    6    6    0    0 -0.67430360976E+01 -0.71123043671E+02 -0.27723753948E+02  0.76632645849E+02  0.00000000000E+00 0. -1.
        -14    1    6    6    0    0 -0.10609812721E+02  0.17100100153E+02 -0.32710984272E+02  0.38405599113E+02  0.00000000000E+00 0.  1.
</event>
<event>
12    1  0.2689284E-002  0.2788230E+03  0.7818608E-02  0.1096334E+00
         -2   -1    0    0    0  501 -0.00000000000E+00  0.00000000000E+00  0.74471473856E+02  0.74471473856E+02  0.00000000000E+00 0.  1.
          2   -1    0    0  502    0  0.00000000000E+00 -0.00000000000E+00 -0.10623773056E+04  0.10623773056E+04  0.00000000000E+00 0. -1.
          6    2    1    2  502    0  0.21683663592E+03  0.29416080373E+02 -0.56868413368E+03  0.63331093396E+03  0.17261999513E+03 0.  0.
         24    2    3    3    0    0  0.71779677320E+02  0.19185939027E+02 -0.36900769108E+03  0.38625031638E+03  0.86615290210E+02 0.  0.
         -6    2    1    2    0  501 -0.21683663592E+03 -0.29416080373E+02 -0.41922169807E+03  0.50353784550E+03  0.17297426760E+03 0.  0.
        -24    2    5    5    0    0 -0.49249269667E+02 -0.26239594884E+02 -0.23708843272E+03  0.25596920504E+03  0.78710241381E+02 0.  0.
          5    1    3    3  502    0  0.14505695860E+03  0.10230141346E+02 -0.19967644260E+03  0.24706061758E+03  0.47000000000E+01 0. -1.
        -13    1    4    4    0    0  0.38906073903E+02 -0.90129622674E+01 -0.48486248043E+02  0.62815860454E+02  0.00000000000E+00 0.  1.
         14    1    4    4    0    0  0.32873603417E+02  0.28198901295E+02 -0.32052144304E+03  0.32343445593E+03  0.00000000000E+00 0. -1.
         -5    1    5    5    0  501 -0.16758736625E+03 -0.31764854887E+01 -0.18213326535E+03  0.24756864045E+03  0.47000000000E+01 0.  1.
         11    1    6    6    0    0  0.44494508347E+00 -0.36696001578E+02 -0.15626257935E+03  0.16051413711E+03  0.00000000000E+00 0. -1.
        -12    1    6    6    0    0 -0.49694214750E+02  0.10456406694E+02 -0.80825853372E+02  0.95455067932E+02  0.00000000000E+00 0.  1.
</event>
<event>
12    1  0.3266315E-002  0.2003887E+03  0.7818608E-02  0.1149411E+00
          2   -1    0    0  502    0  0.00000000000E+00  0.00000000000E+00  0.57901460918E+03  0.57901460918E+03  0.00000000000E+00 0.  1.
         -2   -1    0    0    0  501 -0.00000000000E+00 -0.00000000000E+00 -0.72609839532E+02  0.72609839532E+02  0.00000000000E+00 0. -1.
          6    2    1    2  502    0 -0.97683618753E+02 -0.74209066657E+01  0.31881958488E+03  0.37514463385E+03  0.17172771870E+03 0.  0.
         24    2    3    3    0    0 -0.56217209689E+02  0.62713375418E+02  0.16798817723E+03  0.20364978221E+03  0.78484800967E+02 0.  0.
         -6    2    1    2    0  501  0.97683618753E+02  0.74209066657E+01  0.18758518476E+03  0.27647981486E+03  0.17792056445E+03 0.  0.
        -24    2    5    5    0    0  0.55938394513E+02 -0.19766633745E+02  0.20498227287E+02  0.10206087249E+03  0.80476211274E+02 0.  0.
          5    1    3    3  502    0 -0.41466409064E+02 -0.70134282084E+02  0.15083140765E+03  0.17149485164E+03  0.47000000000E+01 0. -1.
        -13    1    4    4    0    0 -0.44787439215E+02  0.35914418773E+02  0.16459356807E+03  0.17431810818E+03  0.00000000000E+00 0.  1.
         14    1    4    4    0    0 -0.11429770473E+02  0.26798956645E+02  0.33946091608E+01  0.29331674035E+02  0.00000000000E+00 0. -1.
         -5    1    5    5    0  501  0.41745224240E+02  0.27187540411E+02  0.16708695747E+03  0.17441894237E+03  0.47000000000E+01 0.  1.
         11    1    6    6    0    0  0.16195355979E+02  0.31032006320E+02  0.24722351238E+01  0.35091123066E+02  0.00000000000E+00 0. -1.
        -12    1    6    6    0    0  0.39743038534E+02 -0.50798640065E+02  0.18025992164E+02  0.66969749423E+02  0.00000000000E+00 0.  1.
</event>
<event>
12    1  0.2689284E-002  0.2875811E+03  0.7818608E-02  0.1091619E+00
         -3   -1    0    0    0  501 -0.00000000000E+00  0.00000000000E+00  0.78455951805E+02  0.78455951805E+02  0.00000000000E+00 0.  1.
          3   -1    0    0  502    0  0.00000000000E+00 -0.00000000000E+00 -0.10673344914E+04  0.10673344914E+04  0.00000000000E+00 0. -1.
          6    2    1    2  502    0 -0.60440933369E+01 -0.22478540134E+03 -0.42437529365E+03  0.51039950632E+03  0.17276648539E+03 0.  0.
         24    2    3    3    0    0 -0.58333955611E+02 -0.70137354709E+02 -0.19983074905E+03  0.23274398137E+03  0.76911206585E+02 0.  0.
         -6    2    1    2    0  501  0.60440933369E+01  0.22478540134E+03 -0.56450324597E+03  0.63539093691E+03  0.18572215880E+03 0.  0.
        -24    2    5    5    0    0 -0.41138174378E+02  0.16818989416E+03 -0.26341435035E+03  0.32538153239E+03  0.80658736435E+02 0.  0.
          5    1    3    3  502    0  0.52289862275E+02 -0.15464804663E+03 -0.22454454460E+03  0.27765552495E+03  0.47000000000E+01 0. -1.
        -11    1    4    4    0    0 -0.49276129134E+02 -0.87026525933E+02 -0.16327822159E+03  0.19147201039E+03  0.00000000000E+00 0.  1.
         12    1    4    4    0    0 -0.90578264773E+01  0.16889171224E+02 -0.36552527460E+02  0.41271970983E+02  0.00000000000E+00 0. -1.
         -5    1    5    5    0  501  0.47182267715E+02  0.56595507179E+02 -0.30108889562E+03  0.31000940451E+03  0.47000000000E+01 0.  1.
         13    1    6    6    0    0 -0.62151846409E+02  0.14582881078E+03 -0.23560604928E+03  0.28397025288E+03  0.00000000000E+00 0. -1.
        -14    1    6    6    0    0  0.21013672031E+02  0.22361083384E+02 -0.27808301069E+02  0.41411279510E+02  0.00000000000E+00 0.  1.
</event>
<event>
12    1  0.2689284E-002  0.1778838E+03  0.7818608E-02  0.1169867E+00
         -2   -1    0    0    0  501 -0.00000000000E+00  0.00000000000E+00  0.62537512499E+02  0.62537512499E+02  0.00000000000E+00 0. -1.
          2   -1    0    0  502    0  0.00000000000E+00 -0.00000000000E+00 -0.80806637058E+03  0.80806637058E+03  0.00000000000E+00 0.  1.
          6    2    1    2  502    0 -0.12324823833E+02 -0.44296583145E+02 -0.63897692280E+03  0.66328723304E+03  0.17188472033E+03 0.  0.
         24    2    3    3    0    0  0.56312708908E+02 -0.77092847448E+01 -0.32243927614E+03  0.33729963656E+03  0.81076530331E+02 0.  0.
         -6    2    1    2    0  501  0.12324823833E+02  0.44296583145E+02 -0.10655193527E+03  0.20731665003E+03  0.17179286920E+03 0.  0.
        -24    2    5    5    0    0  0.35286024074E+02  0.20389562639E+02  0.61543768032E+01  0.89742991725E+02  0.79718821180E+02 0.  0.
          5    1    3    3  502    0 -0.68637532740E+02 -0.36587298400E+02 -0.31653764667E+03  0.32598759649E+03  0.47000000000E+01 0. -1.
        -13    1    4    4    0    0  0.16230510480E+02 -0.42442291461E+02 -0.16641704812E+03  0.17250916346E+03  0.00000000000E+00 0.  1.
         14    1    4    4    0    0  0.40082198428E+02  0.34733006716E+02 -0.15602222802E+03  0.16479047309E+03  0.00000000000E+00 0. -1.
         -5    1    5    5    0  501 -0.22961200242E+02  0.23907020506E+02 -0.11270631208E+03  0.11757365831E+03  0.47000000000E+01 0.  1.
         13    1    6    6    0    0  0.11956308710E+02  0.47118558988E+02 -0.11736972348E+02  0.50008683636E+02  0.00000000000E+00 0. -1.
        -14    1    6    6    0    0  0.23329715364E+02 -0.26728996349E+02  0.17891349152E+02  0.39734308089E+02  0.00000000000E+00 0.  1.
</event>
<event>
12    1  0.2689284E-002  0.1923950E+03  0.7818608E-02  0.1156319E+00
         -1   -1    0    0    0  501 -0.00000000000E+00  0.00000000000E+00  0.56231266158E+02  0.56231266158E+02  0.00000000000E+00 0. -1.
          1   -1    0    0  502    0  0.00000000000E+00 -0.00000000000E+00 -0.65915415365E+03  0.65915415365E+03  0.00000000000E+00 0.  1.
          6    2    1    2  502    0  0.29330922728E+02  0.84099561478E+02 -0.31223877460E+03  0.36607669382E+03  0.16907410840E+03 0.  0.
         24    2    3    3    0    0  0.28638451136E+02  0.12425635475E+03 -0.24078203504E+03  0.28397186333E+03  0.80026421802E+02 0.  0.
         -6    2    1    2    0  501 -0.29330922728E+02 -0.84099561478E+02 -0.29068411289E+03  0.34930872598E+03  0.17200666641E+03 0.  0.
        -24    2    5    5    0    0  0.14446721483E+02 -0.75889320942E+01 -0.57109551869E+02  0.99609859147E+02  0.79964513835E+02 0.  0.
          5    1    3    3  502    0  0.69247159207E+00 -0.40156793267E+02 -0.71456739556E+02  0.82104830494E+02  0.47000000000E+01 0. -1.
        -11    1    4    4    0    0  0.10818114950E+01 -0.10978696855E+02 -0.30594462575E+02  0.32522657348E+02  0.00000000000E+00 0.  1.
         12    1    4    4    0    0  0.27556639641E+02  0.13523505160E+03 -0.21018757247E+03  0.25144920598E+03  0.00000000000E+00 0. -1.
         -5    1    5    5    0  501 -0.43777644211E+02 -0.76510629384E+02 -0.23357456102E+03  0.24969886683E+03  0.47000000000E+01 0.  1.
         11    1    6    6    0    0 -0.32973987342E+01 -0.33095222348E+02  0.14791775069E+01  0.33291959191E+02  0.00000000000E+00 0. -1.
        -12    1    6    6    0    0  0.17744120217E+02  0.25506290254E+02 -0.58588729376E+02  0.66317899957E+02  0.00000000000E+00 0.  1.
</event>
<event>
12    1  0.2689284E-002  0.3597625E+03  0.7818608E-02  0.1058678E+00
          2   -1    0    0  502    0  0.00000000000E+00  0.00000000000E+00  0.45876929255E+03  0.45876929255E+03  0.00000000000E+00 0.  1.
         -2   -1    0    0    0  501 -0.00000000000E+00 -0.00000000000E+00 -0.30619653671E+03  0.30619653671E+03  0.00000000000E+00 0. -1.
          6    2    1    2  502    0  0.30419764717E+03  0.86168789266E+02 -0.30944838031E+02  0.36117547390E+03  0.17183966701E+03 0.  0.
         24    2    3    3    0    0  0.11427575054E+03 -0.28481691425E+02 -0.17144927180E+02  0.13885231477E+03  0.71525260454E+02 0.  0.
         -6    2    1    2    0  501 -0.30419764717E+03 -0.86168789266E+02  0.18351759387E+03  0.40379035536E+03  0.17148374567E+03 0.  0.
        -24    2    5    5    0    0 -0.94157154400E+02 -0.21648503436E+02  0.12166285914E+03  0.17547484100E+03  0.81580273979E+02 0.  0.
          5    1    3    3  502    0  0.18992189664E+03  0.11465048069E+03 -0.13799910851E+02  0.22232315913E+03  0.47000000000E+01 0. -1.
        -13    1    4    4    0    0  0.11224694357E+03 -0.61752648598E+01 -0.31892601381E+01  0.11246191185E+03  0.00000000000E+00 0.  1.
         14    1    4    4    0    0  0.20288069654E+01 -0.22306426566E+02 -0.13955667042E+02  0.26390402922E+02  0.00000000000E+00 0. -1.
         -5    1    5    5    0  501 -0.21004049277E+03 -0.64520285830E+02  0.61854734721E+02  0.22831551436E+03  0.47000000000E+01 0.  1.
         11    1    6    6    0    0 -0.43731303862E+02 -0.41290240042E+02  0.25910031124E+02  0.65487713146E+02  0.00000000000E+00 0. -1.
        -12    1    6    6    0    0 -0.50425850537E+02  0.19641736605E+02  0.95752828021E+02  0.10998712785E+03  0.00000000000E+00 0.  1.
</event>
<event>
12    1  0.2689284E-002  0.2692749E+03  0.7818608E-02  0.1101695E+00
          2   -1    0    0  502    0  0.00000000000E+00  0.00000000000E+00  0.13248622343E+04  0.13248622343E+04  0.00000000000E+00 0. -1.
         -2   -1    0    0    0  501 -0.00000000000E+00 -0.00000000000E+00 -0.60532151191E+02  0.60532151191E+02  0.00000000000E+00 0.  1.
          6    2    1    2  502    0  0.10201160403E+03  0.18082356072E+03  0.41870490387E+03  0.49807471320E+03  0.17222397027E+03 0.  0.
         24    2    3    3    0    0  0.13716867603E+03  0.15174895220E+03  0.37300512733E+03  0.43332973542E+03  0.82455105419E+02 0.  0.
         -6    2    1    2    0  501 -0.10201160403E+03 -0.18082356072E+03  0.84562517923E+03  0.88731967228E+03  0.17073584742E+03 0.  0.
        -24    2    5    5    0    0 -0.10061476479E+03 -0.12621518196E+03  0.78626773648E+03  0.80651483208E+03  0.78712247269E+02 0.  0.
          5    1    3    3  502    0 -0.35157071995E+02  0.29074608521E+02  0.45699776541E+02  0.64744977781E+02  0.47000000000E+01 0. -1.
        -11    1    4    4    0    0  0.88460390786E+02  0.13310322878E+03  0.22178655143E+03  0.27336968494E+03  0.00000000000E+00 0.  1.
         12    1    4    4    0    0  0.48708285239E+02  0.18645723423E+02  0.15121857589E+03  0.15996005048E+03  0.00000000000E+00 0. -1.
         -5    1    5    5    0  501 -0.13968392379E+01 -0.54608378764E+02  0.59357442748E+02  0.80804840205E+02  0.47000000000E+01 0.  1.
         13    1    6    6    0    0  0.95756036436E+01 -0.34339406925E+02  0.18085493513E+03  0.18433500648E+03  0.00000000000E+00 0. -1.
        -14    1    6    6    0    0 -0.11019036844E+03 -0.91875775036E+02  0.60541280136E+03  0.62217982560E+03  0.00000000000E+00 0.  1.
</event>
<event>
12    1  0.2689284E-002  0.2428591E+03  0.7818608E-02  0.1117903E+00
          3   -1    0    0  502    0  0.00000000000E+00  0.00000000000E+00  0.30396487908E+03  0.30396487908E+03  0.00000000000E+00 0.  1.
         -3   -1    0    0    0  501 -0.00000000000E+00 -0.00000000000E+00 -0.20280247106E+03  0.20280247106E+03  0.00000000000E+00 0. -1.
          6    2    1    2  502    0  0.89888118182E+02  0.15029935147E+03 -0.15558307933E+01  0.24528457597E+03  0.17173332163E+03 0.  0.
         24    2    3    3    0    0 -0.44789517992E+01  0.20571985854E+02  0.22771239849E+02  0.82963198290E+02  0.76948653627E+02 0.  0.
         -6    2    1    2    0  501 -0.89888118182E+02 -0.15029935147E+03  0.10271823882E+03  0.26148277417E+03  0.16477996165E+03 0.  0.
        -24    2    5    5    0    0 -0.54191475630E+02 -0.81340366798E+02 -0.74497160874E+01  0.12661743339E+03  0.80146770778E+02 0.  0.
          5    1    3    3  502    0  0.94367069981E+02  0.12972736561E+03 -0.24327070642E+02  0.16232137768E+03  0.47000000000E+01 0. -1.
        -11    1    4    4    0    0  0.68856482102E+01  0.48817439554E+02  0.12964927563E+02  0.50976895772E+02  0.00000000000E+00 0.  1.
         12    1    4    4    0    0 -0.11364600009E+02 -0.28245453700E+02  0.98063122861E+01  0.31986302517E+02  0.00000000000E+00 0. -1.
         -5    1    5    5    0  501 -0.35696642552E+02 -0.68958984669E+02  0.11016795491E+03  0.13486534078E+03  0.47000000000E+01 0.  1.
         13    1    6    6    0    0 -0.11386882286E+02 -0.63100075193E+02 -0.34484841445E+02  0.72804428897E+02  0.00000000000E+00 0. -1.
        -14    1    6    6    0    0 -0.42804593344E+02 -0.18240291605E+02  0.27035125358E+02  0.53813004490E+02  0.00000000000E+00 0.  1.
</event>
<event>
12    1  0.2689284E-002  0.3657463E+03  0.7818608E-02  0.1056331E+00
         -2   -1    0    0    0  501 -0.00000000000E+00  0.00000000000E+00  0.44215114516E+03  0.44215114516E+03  0.00000000000E+00 0. -1.
          2   -1    0    0  502    0  0.00000000000E+00 -0.00000000000E+00 -0.38236163853E+03  0.38236163853E+03  0.00000000000E+00 0.  1.
          6    2    1    2  502    0  0.27797326932E+03  0.16382258722E+03 -0.15847870634E+03  0.39834851014E+03  0.17163640822E+03 0.  0.
         24    2    3    3    0    0  0.12024603668E+03  0.13633137304E+03 -0.12503007986E+03  0.23471921146E+03  0.80095160562E+02 0.  0.
         -6    2    1    2    0  501 -0.27797326932E+03 -0.16382258722E+03  0.21826821296E+03  0.42616427355E+03  0.17282360002E+03 0.  0.
        -24    2    5    5    0    0 -0.19822933404E+03 -0.15620338164E+03  0.10102647343E+03  0.28409083129E+03  0.82503859177E+02 0.  0.
          5    1    3    3  502    0  0.15772723264E+03  0.27491214187E+02 -0.33448626475E+02  0.16362929868E+03  0.47000000000E+01 0. -1.
        -13    1    4    4    0    0  0.12357290759E+03  0.97499732662E+02 -0.85164601472E+02  0.17896779236E+03  0.00000000000E+00 0.  1.
         14    1    4    4    0    0 -0.33268709035E+01  0.38831640375E+02 -0.39865478391E+02  0.55751419099E+02  0.00000000000E+00 0. -1.
         -5    1    5    5    0  501 -0.79743935275E+02 -0.76192055796E+01  0.11724173953E+03  0.14207344226E+03  0.47000000000E+01 0.  1.
         11    1    6    6    0    0  0.61660351762E+01  0.39898431760E+00  0.84391340066E+01  0.10459357584E+02  0.00000000000E+00 0. -1.
        -12    1    6    6    0    0 -0.20439536922E+03 -0.15660236596E+03  0.92587339423E+02  0.27363147371E+03  0.00000000000E+00 0.  1.
</event>
<event>
12    1  0.2689284E-002  0.1765017E+03  0.7818608E-02  0.1171232E+00
          1   -1    0    0  502    0  0.00000000000E+00  0.00000000000E+00  0.29886542544E+03  0.29886542544E+03  0.00000000000E+00 0. -1.
         -1   -1    0    0    0  501 -0.00000000000E+00 -0.00000000000E+00 -0.12467368371E+03  0.12467368371E+03  0.00000000000E+00 0.  1.
          6    2    1    2  502    0  0.36752353363E+02  0.10902505678E+02  0.17344683270E+03  0.24855770122E+03  0.17386065384E+03 0.  0.
         24    2    3    3    0    0 -0.23259004614E+02  0.55848583017E+02  0.80439484797E+02  0.12900031032E+03  0.80687817094E+02 0.  0.
         -6    2    1    2    0  501 -0.36752353363E+02 -0.10902505678E+02  0.74490902953E+00  0.17498140793E+03  0.17072884385E+03 0.  0.
        -24    2    5    5    0    0 -0.81192437217E+02  0.34621939488E+01  0.32670979378E+02  0.11821319837E+03  0.79389978759E+02 0.  0.
          5    1    3    3  502    0  0.60011357977E+02 -0.44946077340E+02  0.93007347906E+02  0.11955739090E+03  0.47000000000E+01 0. -1.
        -11    1    4    4    0    0 -0.36341599660E+02  0.13593075032E+02  0.18833003334E+01  0.38846240164E+02  0.00000000000E+00 0.  1.
         12    1    4    4    0    0  0.13082595046E+02  0.42255507985E+02  0.78556184463E+02  0.90154070156E+02  0.00000000000E+00 0. -1.
         -5    1    5    5    0  501  0.44440083854E+02 -0.14364699626E+02 -0.31926070348E+02  0.56768209556E+02  0.47000000000E+01 0.  1.
         11    1    6    6    0    0 -0.13996603403E+02 -0.12835417297E+02  0.44206944897E+02  0.48113478580E+02  0.00000000000E+00 0. -1.
        -12    1    6    6    0    0 -0.67195833813E+02  0.16297611246E+02 -0.11535965519E+02  0.70099719790E+02  0.00000000000E+00 0.  1.
</event>
<event>
12    1  0.2689284E-002  0.2130339E+03  0.7818608E-02  0.1139186E+00
         -2   -1    0    0    0  501 -0.00000000000E+00  0.00000000000E+00  0.77224693266E+02  0.77224693266E+02  0.00000000000E+00 0. -1.
          2   -1    0    0  502    0  0.00000000000E+00 -0.00000000000E+00 -0.99095065945E+03  0.99095065945E+03  0.00000000000E+00 0.  1.
          6    2    1    2  502    0  0.49729207027E+02 -0.11632583770E+03 -0.79749147077E+03  0.82543857531E+03  0.17132279802E+03 0.  0.
         24    2    3    3    0    0  0.58137859879E+02 -0.20485944969E+01 -0.32867820434E+03  0.34280210494E+03  0.78100663579E+02 0.  0.
         -6    2    1    2    0  501 -0.49729207027E+02  0.11632583770E+03 -0.11623449542E+03  0.24273677740E+03  0.17148175014E+03 0.  0.
        -24    2    5    5    0    0  0.19606433565E+02  0.26970458916E+02 -0.13485571014E+02  0.89860205488E+02  0.82347908374E+02 0.  0.
          5    1    3    3  502    0 -0.84086528528E+01 -0.11427724321E+03 -0.46881326642E+03  0.48263647037E+03  0.47000000000E+01 0. -1.
        -11    1    4    4    0    0  0.58770864943E+02 -0.82618267417E+01 -0.33089480392E+03  0.33617501931E+03  0.00000000000E+00 0.  1.
         12    1    4    4    0    0 -0.63300506375E+00  0.62132322447E+01  0.22165995735E+01  0.66270856345E+01  0.00000000000E+00 0. -1.
         -5    1    5    5    0  501 -0.69335640592E+02  0.89355378787E+02 -0.10274892440E+03  0.15287657191E+03  0.47000000000E+01 0.  1.
         13    1    6    6    0    0  0.38934140300E+02  0.46484284754E+02 -0.14613780591E+02  0.62371616887E+02  0.00000000000E+00 0. -1.
        -14    1    6    6    0    0 -0.19327706735E+02 -0.19513825837E+02  0.11282095768E+01  0.27488588601E+02  0.00000000000E+00 0.  1.
</event>
<event>
12    1  0.2689284E-002  0.1883618E+03  0.7818608E-02  0.1159947E+00
         -2   -1    0    0    0  501 -0.00000000000E+00  0.00000000000E+00  0.24069517072E+03  0.24069517072E+03  0.00000000000E+00 0.  1.
          2   -1    0    0  502    0  0.00000000000E+00 -0.00000000000E+00 -0.14969256115E+03  0.14969256115E+03  0.00000000000E+00 0. -1.
          6    2    1    2  502    0 -0.46152244427E+02 -0.69679081239E+02  0.69997902630E+02  0.20277515440E+03  0.17097617624E+03 0.  0.
         24    2    3    3    0    0 -0.51261939082E+02 -0.97657886246E+02  0.21205969650E+02  0.14610359863E+03  0.93443668807E+02 0.  0.
         -6    2    1    2    0  501  0.46152244427E+02  0.69679081239E+02  0.21004706940E+02  0.18761257748E+03  0.16664956491E+03 0.  0.
        -24    2    5    5    0    0 -0.33976172001E+01  0.93594443901E+02  0.40606091109E+02  0.12901703481E+03  0.78899156556E+02 0.  0.
          5    1    3    3  502    0  0.51096946553E+01  0.27978805008E+02  0.48791932980E+02  0.56671555767E+02  0.47000000000E+01 0. -1.
        -11    1    4    4    0    0 -0.24280047145E+02 -0.42992845135E+02  0.56999218798E+02  0.75410983058E+02  0.00000000000E+00 0.  1.
         12    1    4    4    0    0 -0.26981891937E+02 -0.54665041112E+02 -0.35793249148E+02  0.70692615575E+02  0.00000000000E+00 0. -1.
         -5    1    5    5    0  501  0.49549861627E+02 -0.23915362662E+02 -0.19601384170E+02  0.58595542662E+02  0.47000000000E+01 0.  1.
         13    1    6    6    0    0 -0.38252923412E+02  0.61946892794E+02  0.11612813609E+02  0.73726257984E+02  0.00000000000E+00 0. -1.
        -14    1    6    6    0    0  0.34855306212E+02  0.31647551106E+02  0.28993277500E+02  0.55290776829E+02  0.00000000000E+00 0.  1.
</event>
<event>
12    1  0.2689284E-002  0.2347768E+03  0.7818608E-02  0.1123322E+00
          2   -1    0    0  502    0  0.00000000000E+00  0.00000000000E+00  0.29878874534E+04  0.29878874534E+04  0.00000000000E+00 0.  1.
         -2   -1    0    0    0  501 -0.00000000000E+00 -0.00000000000E+00 -0.22936832887E+02  0.22936832887E+02  0.00000000000E+00 0. -1.
          6    2    1    2  502    0  0.15016643923E+02  0.15747612237E+03  0.80938618681E+03  0.84235828677E+03  0.17157288593E+03 0.  0.
         24    2    3    3    0    0  0.57565930995E+02  0.10216172142E+03  0.34967686187E+03  0.37735841772E+03  0.79841179615E+02 0.  0.
         -6    2    1    2    0  501 -0.15016643923E+02 -0.15747612237E+03  0.21555644337E+04  0.21684659995E+04  0.17539251550E+03 0.  0.
        -24    2    5    5    0    0  0.22554707848E+02 -0.46871069150E+02  0.14635235638E+04  0.14666200478E+04  0.79796810385E+02 0.  0.
          5    1    3    3  502    0 -0.42549287072E+02  0.55314400947E+02  0.45970932494E+03  0.46499986906E+03  0.47000000000E+01 0. -1.
        -11    1    4    4    0    0  0.44377834335E+02  0.42123513008E+02  0.26933991822E+03  0.27620241504E+03  0.00000000000E+00 0.  1.
         12    1    4    4    0    0  0.13188096659E+02  0.60038208411E+02  0.80336943648E+02  0.10115600268E+03  0.00000000000E+00 0. -1.
         -5    1    5    5    0  501 -0.37571351771E+02 -0.11060505322E+03  0.69204086988E+03  0.70184595166E+03  0.47000000000E+01 0.  1.
         13    1    6    6    0    0 -0.66624762561E+01  0.18744841833E+02  0.51345252212E+03  0.51383776638E+03  0.00000000000E+00 0. -1.
        -14    1    6    6    0    0  0.29217184104E+02 -0.65615910983E+02  0.95007104167E+03  0.95278228145E+03  0.00000000000E+00 0.  1.
</event>
<event>
12    1  0.2689284E-002  0.1800460E+03  0.7818608E-02  0.1167759E+00
         -2   -1    0    0    0  501 -0.00000000000E+00  0.00000000000E+00  0.88975236973E+02  0.88975236973E+02  0.00000000000E+00 0. -1.
          2   -1    0    0  502    0  0.00000000000E+00 -0.00000000000E+00 -0.36883260678E+03  0.36883260678E+03  0.00000000000E+00 0.  1.
          6    2    1    2  502    0  0.12870621985E+02  0.53500323735E+02 -0.16511966289E+03  0.24420756957E+03  0.17130352131E+03 0.  0.
         24    2    3    3    0    0 -0.28222602797E+01  0.96739117603E+02 -0.85566279435E+02  0.15219294753E+03  0.80465415399E+02 0.  0.
         -6    2    1    2    0  501 -0.12870621985E+02 -0.53500323735E+02 -0.11473770691E+03  0.21360027418E+03  0.17155873103E+03 0.  0.
        -24    2    5    5    0    0 -0.65802720850E+02 -0.68415472725E+02 -0.86551937535E+02  0.15162611541E+03  0.80551635638E+02 0.  0.
          5    1    3    3  502    0  0.15692882265E+02 -0.43238793868E+02 -0.79553383458E+02  0.92014622036E+02  0.47000000000E+01 0. -1.
        -11    1    4    4    0    0 -0.83855776509E+01  0.13486690512E+01 -0.49241787879E+02  0.49968895268E+02  0.00000000000E+00 0.  1.
         12    1    4    4    0    0  0.55633173713E+01  0.95390448552E+02 -0.36324491556E+02  0.10222405227E+03  0.00000000000E+00 0. -1.
         -5    1    5    5    0  501  0.52932098865E+02  0.14915148990E+02 -0.28185769376E+02  0.61974158768E+02  0.47000000000E+01 0.  1.
         11    1    6    6    0    0  0.61259616560E+01 -0.89811995365E+00  0.11167237112E+02  0.12768759156E+02  0.00000000000E+00 0. -1.
        -12    1    6    6    0    0 -0.71928682506E+02 -0.67517352772E+02 -0.97719174647E+02  0.13885735626E+03  0.00000000000E+00 0.  1.
</event>
<event>
12    1  0.2689284E-002  0.1856265E+03  0.7818608E-02  0.1162466E+00
          1   -1    0    0  502    0  0.00000000000E+00  0.00000000000E+00  0.32559271280E+03  0.32559271280E+03  0.00000000000E+00 0.  1.
         -1   -1    0    0    0  501 -0.00000000000E+00 -0.00000000000E+00 -0.12060090871E+03  0.12060090871E+03  0.00000000000E+00 0. -1.
          6    2    1    2  502    0 -0.50588657926E+02 -0.47641624984E+02  0.18063534567E+03  0.25909991423E+03  0.17226346306E+03 0.  0.
         24    2    3    3    0    0 -0.69679598491E+02  0.16572581734E+02  0.58845345083E+02  0.12002143782E+03  0.76239582813E+02 0.  0.
         -6    2    1    2    0  501  0.50588657926E+02  0.47641624984E+02  0.24356458423E+02  0.18709370729E+03  0.17199384146E+03 0.  0.
        -24    2    5    5    0    0  0.63888449108E+02  0.60220362678E+02  0.69896123123E+02  0.13778792519E+03  0.79948847960E+02 0.  0.
          5    1    3    3  502    0  0.19090940565E+02 -0.64214206718E+02  0.12179000059E+03  0.13907847640E+03  0.47000000000E+01 0. -1.
        -11    1    4    4    0    0 -0.15130801289E+02 -0.66002340881E+01  0.58467757064E+02  0.60753459604E+02  0.00000000000E+00 0.  1.
         12    1    4    4    0    0 -0.54548797202E+02  0.23172815822E+02  0.37758801826E+00  0.59267978218E+02  0.00000000000E+00 0. -1.
         -5    1    5    5    0  501 -0.13299791182E+02 -0.12578737694E+02 -0.45539664700E+02  0.49305782100E+02  0.47000000000E+01 0.  1.
         11    1    6    6    0    0  0.16261592600E+02  0.65519118003E+02  0.24605731778E+02  0.71851487487E+02  0.00000000000E+00 0. -1.
        -12    1    6    6    0    0  0.47626856508E+02 -0.52987553251E+01  0.45290391345E+02  0.65936437704E+02  0.00000000000E+00 0.  1.
</event>
<event>
12    1  0.2689284E-002  0.2033719E+03  0.7818608E-02  0.1146925E+00
          2   -1    0    0  502    0  0.00000000000E+00  0.00000000000E+00  0.10851180375E+04  0.10851180375E+04  0.00000000000E+00 0. -1.
         -2   -1    0    0    0  501 -0.00000000000E+00 -0.00000000000E+00 -0.40351678435E+02  0.40351678435E+02  0.00000000000E+00 0.  1.
          6    2    1    2  502    0  0.70823453379E+02 -0.84942730084E+02  0.65560593832E+03  0.68651810350E+03  0.17104599126E+03 0.  0.
         24    2    3    3    0    0  0.50664170546E+02  0.16061639479E+02  0.24658799365E+03  0.26470529144E+03  0.80239754883E+02 0.  0.
         -6    2    1    2    0  501 -0.70823453379E+02  0.84942730084E+02  0.38916042074E+03  0.43895161243E+03  0.17029813870E+03 0.  0.
        -24    2    5    5    0    0  0.13050377090E+02  0.12718488717E+02  0.23882846212E+03  0.25220861186E+03  0.78981499626E+02 0.  0.
          5    1    3    3  502    0  0.20159282834E+02 -0.10100436956E+03  0.40901794466E+03  0.42181281205E+03  0.47000000000E+01 0. -1.
        -11    1    4    4    0    0  0.42447467243E+02  0.32698005843E+02  0.23853399642E+03  0.24447784053E+03  0.00000000000E+00 0.  1.
         12    1    4    4    0    0  0.82167033022E+01 -0.16636366364E+02  0.80539972297E+01  0.20227450910E+02  0.00000000000E+00 0. -1.
         -5    1    5    5    0  501 -0.83873830469E+02  0.72224241366E+02  0.15033195862E+03  0.18674300057E+03  0.47000000000E+01 0.  1.
         13    1    6    6    0    0  0.21525630939E+02 -0.11109572026E+02  0.21828732589E+03  0.21962725701E+03  0.00000000000E+00 0. -1.
        -14    1    6    6    0    0 -0.84752538494E+01  0.23828060744E+02  0.20541136233E+02  0.32581354858E+02  0.00000000000E+00 0.  1.
</event>
<event>
12    1  0.2689284E-002  0.2673150E+03  0.7818608E-02  0.1102826E+00
         -2   -1    0    0    0  501 -0.00000000000E+00  0.00000000000E+00  0.29897669203E+02  0.29897669203E+02  0.00000000000E+00 0. -1.
          2   -1    0    0  502    0  0.00000000000E+00 -0.00000000000E+00 -0.34367038582E+04  0.34367038582E+04  0.00000000000E+00 0.  1.
          6    2    1    2  502    0 -0.18500259141E+03  0.86314964489E+02 -0.26627288741E+04  0.26761764864E+04  0.17354912055E+03 0.  0.
         24    2    3    3    0    0 -0.14027987650E+03 -0.81784178774E+01 -0.17529172308E+04  0.17603662239E+04  0.80156683684E+02 0.  0.
         -6    2    1    2    0  501  0.18500259141E+03 -0.86314964489E+02 -0.74407731485E+03  0.79042504100E+03  0.17159388987E+03 0.  0.
        -24    2    5    5    0    0  0.12441118163E+03 -0.76188356784E+01 -0.57941776181E+03  0.59807312903E+03  0.80189377113E+02 0.  0.
          5    1    3    3  502    0 -0.44722714906E+02  0.94493382366E+02 -0.90981164333E+03  0.91581026248E+03  0.47000000000E+01 0. -1.
        -11    1    4    4    0    0 -0.53401128305E+02 -0.44204881169E+01 -0.29286245444E+03  0.29772409785E+03  0.00000000000E+00 0.  1.
         12    1    4    4    0    0 -0.86878748195E+02 -0.37579297604E+01 -0.14600547764E+04  0.14626421261E+04  0.00000000000E+00 0. -1.
         -5    1    5    5    0  501  0.60591409780E+02 -0.78696128811E+02 -0.16465955304E+03  0.19235191196E+03  0.47000000000E+01 0.  1.
         11    1    6    6    0    0  0.70496936023E+02 -0.12055334449E+02 -0.16097370977E+03  0.17614676924E+03  0.00000000000E+00 0. -1.
        -12    1    6    6    0    0  0.53914245603E+02  0.44364987703E+01 -0.41844405204E+03  0.42192635979E+03  0.00000000000E+00 0.  1.
</event>
<event>
12    1  0.2689284E-002  0.1785757E+03  0.7818608E-02  0.1169189E+00
         -1   -1    0    0    0  501 -0.00000000000E+00  0.00000000000E+00  0.92347508749E+03  0.92347508749E+03  0.00000000000E+00 0. -1.
          1   -1    0    0  502    0  0.00000000000E+00 -0.00000000000E+00 -0.34897606445E+02  0.34897606445E+02  0.00000000000E+00 0.  1.
          6    2    1    2  502    0  0.47380957842E+02 -0.23558390208E+01  0.39567914330E+03  0.43418455246E+03  0.17234771832E+03 0.  0.
         24    2    3    3    0    0  0.25527245086E+02 -0.49997211259E+02  0.11640484445E+03  0.14999533890E+03  0.76139034036E+02 0.  0.
         -6    2    1    2    0  501 -0.47380957842E+02  0.23558390208E+01  0.49289833775E+03  0.52418814147E+03  0.17197072764E+03 0.  0.
        -24    2    5    5    0    0  0.81828936046E+01  0.23839420546E+02  0.11808527982E+03  0.14464130081E+03  0.79634759188E+02 0.  0.
          5    1    3    3  502    0  0.21853712756E+02  0.47641372238E+02  0.27927429885E+03  0.28418921356E+03  0.47000000000E+01 0. -1.
        -11    1    4    4    0    0  0.52854956231E+02 -0.35031135818E+02  0.79790061624E+02  0.10191801023E+03  0.00000000000E+00 0.  1.
         12    1    4    4    0    0 -0.27327711145E+02 -0.14966075441E+02  0.36614782831E+02  0.48077328672E+02  0.00000000000E+00 0. -1.
         -5    1    5    5    0  501 -0.55563851447E+02 -0.21483581526E+02  0.37481305793E+03  0.37954684066E+03  0.47000000000E+01 0.  1.
         13    1    6    6    0    0  0.31244542031E+00  0.27407289144E+02  0.12833823855E+03  0.13123246776E+03  0.00000000000E+00 0. -1.
        -14    1    6    6    0    0  0.78704481843E+01 -0.35678685977E+01 -0.10252958734E+02  0.13408833049E+02  0.00000000000E+00 0.  1.
</event>
<event>
12    1  0.2689284E-002  0.1942596E+03  0.7818608E-02  0.1154675E+00
         -2   -1    0    0    0  501 -0.00000000000E+00  0.00000000000E+00  0.43265958913E+02  0.43265958913E+02  0.00000000000E+00 0. -1.
          2   -1    0    0  502    0  0.00000000000E+00 -0.00000000000E+00 -0.15297176773E+04  0.15297176773E+04  0.00000000000E+00 0.  1.
          6    2    1    2  502    0 -0.38648465416E+02  0.80042198230E+02 -0.12612988881E+04  0.12763431230E+04  0.17400122203E+03 0.  0.
         24    2    3    3    0    0 -0.80012305998E+01 -0.47528592065E+01 -0.91595571151E+03  0.91939291030E+03  0.78878696107E+02 0.  0.
         -6    2    1    2    0  501  0.38648465416E+02 -0.80042198230E+02 -0.22515283027E+03  0.29664051315E+03  0.17146818855E+03 0.  0.
        -24    2    5    5    0    0 -0.15909112691E+01  0.69324093801E+01 -0.15778815840E+03  0.17940622285E+03  0.85081728749E+02 0.  0.
          5    1    3    3  502    0 -0.30647234816E+02  0.84795057437E+02 -0.34534317658E+03  0.35695021274E+03  0.47000000000E+01 0. -1.
        -11    1    4    4    0    0 -0.10510465614E+02  0.32426123266E+02 -0.64331681009E+03  0.64421924956E+03  0.00000000000E+00 0.  1.
         12    1    4    4    0    0  0.25092350143E+01 -0.37178982473E+02 -0.27263890142E+03  0.27517366074E+03  0.00000000000E+00 0. -1.
         -5    1    5    5    0  501  0.40239376685E+02 -0.86974607610E+02 -0.67364671871E+02  0.11723429030E+03  0.47000000000E+01 0.  1.
         11    1    6    6    0    0 -0.66202931396E+01 -0.15328116542E+02  0.30363668303E+01  0.16970532152E+02  0.00000000000E+00 0. -1.
        -12    1    6    6    0    0  0.50293818705E+01  0.22260525922E+02 -0.16082452523E+03  0.16243569070E+03  0.00000000000E+00 0.  1.
</event>
<event>
12    1  0.2689284E-002  0.1721116E+03  0.7818608E-02  0.1175664E+00
          2   -1    0    0  502    0  0.00000000000E+00  0.00000000000E+00  0.18185348872E+04  0.18185348872E+04  0.00000000000E+00 0. -1.
         -2   -1    0    0    0  501 -0.00000000000E+00 -0.00000000000E+00 -0.16449542957E+02  0.16449542957E+02  0.00000000000E+00 0.  1.
          6    2    1    2  502    0 -0.14057364878E+01  0.17175346413E+02  0.99124871264E+03  0.10060668156E+04  0.17117084585E+03 0.  0.
         24    2    3    3    0    0 -0.34464376105E+02  0.75582306164E+01  0.94058567180E+03  0.94463232789E+03  0.79899366914E+02 0.  0.
         -6    2    1    2    0  501  0.14057364878E+01 -0.17175346413E+02  0.81083663161E+03  0.82891761459E+03  0.17132250290E+03 0.  0.
        -24    2    5    5    0    0  0.26125351941E+02 -0.45879888766E+02  0.75659312720E+03  0.76258920507E+03  0.79508724948E+02 0.  0.
          5    1    3    3  502    0  0.33058639617E+02  0.96171157968E+01  0.50663040839E+02  0.61434487681E+02  0.47000000000E+01 0. -1.
        -11    1    4    4    0    0 -0.26122825302E+02 -0.32655835737E+02  0.32521614928E+03  0.32789380806E+03  0.00000000000E+00 0.  1.
         12    1    4    4    0    0 -0.83415508030E+01  0.40214066353E+02  0.61536952252E+03  0.61673851984E+03  0.00000000000E+00 0. -1.
         -5    1    5    5    0  501 -0.24719615453E+02  0.28704542353E+02  0.54243504403E+02  0.66328409523E+02  0.47000000000E+01 0.  1.
         13    1    6    6    0    0 -0.17980983887E+02 -0.14382840890E+02  0.49010268179E+03  0.49064327223E+03  0.00000000000E+00 0. -1.
        -14    1    6    6    0    0  0.44106335828E+02 -0.31497047876E+02  0.26649044542E+03  0.27194593283E+03  0.00000000000E+00 0.  1.
</event>
<event>
12    1  0.2689284E-002  0.1761450E+03  0.7818608E-02  0.1171587E+00
         -1   -1    0    0    0  501 -0.00000000000E+00  0.00000000000E+00  0.75229724378E+02  0.75229724378E+02  0.00000000000E+00 0.  1.
          1   -1    0    0  502    0  0.00000000000E+00 -0.00000000000E+00 -0.43985091597E+03  0.43985091597E+03  0.00000000000E+00 0. -1.
          6    2    1    2  502    0 -0.77573676423E+01 -0.34836510162E+02 -0.11780958813E+03  0.21174022351E+03  0.17228193174E+03 0.  0.
         24    2    3    3    0    0 -0.18347533368E+02  0.43872621978E+02 -0.39381932797E+02  0.10002511167E+03  0.78693375793E+02 0.  0.
         -6    2    1    2    0  501  0.77573676423E+01  0.34836510162E+02 -0.24681160347E+03  0.30334041684E+03  0.17270113402E+03 0.  0.
        -24    2    5    5    0    0 -0.37122585458E+02  0.73464199417E+02 -0.19133444669E+03  0.22206241557E+03  0.76992018871E+02 0.  0.
          5    1    3    3  502    0  0.10590165726E+02 -0.78709132140E+02 -0.78427655328E+02  0.11171511184E+03  0.47000000000E+01 0. -1.
        -11    1    4    4    0    0 -0.52157295165E+00 -0.20623837051E+02 -0.23463055132E+02  0.31243073620E+02  0.00000000000E+00 0.  1.
         12    1    4    4    0    0 -0.17825960417E+02  0.64496459030E+02 -0.15918877665E+02  0.68782038050E+02  0.00000000000E+00 0. -1.
         -5    1    5    5    0  501  0.44879953101E+02 -0.38627689255E+02 -0.55477156780E+02  0.81278001279E+02  0.47000000000E+01 0.  1.
         11    1    6    6    0    0  0.19601028506E+02  0.43276910356E+02 -0.95736884203E+02  0.10687676214E+03  0.00000000000E+00 0. -1.
        -12    1    6    6    0    0 -0.56723613964E+02  0.30187289061E+02 -0.95597562486E+02  0.11518565343E+03  0.00000000000E+00 0.  1.
</event>
<event>
12    1  0.2689284E-002  0.3614842E+03  0.7818608E-02  0.1057998E+00
          1   -1    0    0  502    0  0.00000000000E+00  0.00000000000E+00  0.81167035022E+03  0.81167035022E+03  0.00000000000E+00 0.  1.
         -1   -1    0    0    0  501 -0.00000000000E+00 -0.00000000000E+00 -0.20615828762E+03  0.20615828762E+03  0.00000000000E+00 0. -1.
          6    2    1    2  502    0  0.15672586367E+03  0.27663769704E+03  0.54115601337E+03  0.65094588434E+03  0.17259577564E+03 0.  0.
         24    2    3    3    0    0  0.14088511885E+03  0.11893636817E+03  0.34723005118E+03  0.40044636911E+03  0.76119049521E+02 0.  0.
         -6    2    1    2    0  501 -0.15672586367E+03 -0.27663769704E+03  0.64356049231E+02  0.36688275349E+03  0.17137631683E+03 0.  0.
        -24    2    5    5    0    0 -0.12459879083E+03 -0.28485872458E+03  0.36253410760E+02  0.32316110677E+03  0.80308402382E+02 0.  0.
          5    1    3    3  502    0  0.15840744822E+02  0.15770132887E+03  0.19392596219E+03  0.25049951524E+03  0.47000000000E+01 0. -1.
        -11    1    4    4    0    0  0.78447800822E+02  0.17548436274E+02  0.14219370416E+03  0.16334336403E+03  0.00000000000E+00 0.  1.
         12    1    4    4    0    0  0.62437318028E+02  0.10138793190E+03  0.20503634702E+03  0.23710300507E+03  0.00000000000E+00 0. -1.
         -5    1    5    5    0  501 -0.32127072846E+02  0.82210275369E+01  0.28102638471E+02  0.43721646726E+02  0.47000000000E+01 0.  1.
         11    1    6    6    0    0 -0.11586828076E+03 -0.23620242950E+03  0.21407242986E+01  0.26310003590E+03  0.00000000000E+00 0. -1.
        -12    1    6    6    0    0 -0.87305100637E+01 -0.48656295077E+02  0.34112686462E+02  0.60061070872E+02  0.00000000000E+00 0.  1.
</event>
<event>
12    1  0.2689284E-002  0.1827418E+03  0.7818608E-02  0.1165176E+00
         -3   -1    0    0    0  501 -0.00000000000E+00  0.00000000000E+00  0.33697963166E+03  0.33697963166E+03  0.00000000000E+00 0. -1.
          3   -1    0    0  502    0  0.00000000000E+00 -0.00000000000E+00 -0.10667733602E+03  0.10667733602E+03  0.00000000000E+00 0.  1.
          6    2    1    2  502    0  0.30541159444E+02  0.46970682342E+02  0.17308247729E+03  0.25029136591E+03  0.17189885539E+03 0.  0.
         24    2    3    3    0    0  0.75939562036E+02  0.64603165372E+02  0.95938735800E+02  0.15893948434E+03  0.78212100065E+02 0.  0.
         -6    2    1    2    0  501 -0.30541159444E+02 -0.46970682342E+02  0.57219818339E+02  0.19336560177E+03  0.17600324121E+03 0.  0.
        -24    2    5    5    0    0 -0.75834292871E+02 -0.15202549281E+02  0.78128500986E+02  0.13403647550E+03  0.76679571055E+02 0.  0.
          5    1    3    3  502    0 -0.45398402592E+02 -0.17632483030E+02  0.77143741495E+02  0.91351881576E+02  0.47000000000E+01 0. -1.
        -11    1    4    4    0    0  0.33419264596E+02 -0.13247450952E+02  0.15337259752E+02  0.39084187846E+02  0.00000000000E+00 0.  1.
         12    1    4    4    0    0  0.42520297440E+02  0.77850616324E+02  0.80601476047E+02  0.11985529649E+03  0.00000000000E+00 0. -1.
         -5    1    5    5    0  501  0.45293133427E+02 -0.31768133062E+02 -0.20908682647E+02  0.59329126269E+02  0.47000000000E+01 0.  1.
         13    1    6    6    0    0 -0.28731839471E+02 -0.37373477459E+02  0.98229570726E+01  0.48153773501E+02  0.00000000000E+00 0. -1.
        -14    1    6    6    0    0 -0.47102453400E+02  0.22170928178E+02  0.68305543914E+02  0.85882701995E+02  0.00000000000E+00 0.  1.
</event>
<event>
12    1  0.2689284E-002  0.3795327E+03  0.7818608E-02  0.1051107E+00
         -2   -1    0    0    0  501 -0.00000000000E+00  0.00000000000E+00  0.17968372772E+03  0.17968372772E+03  0.00000000000E+00 0.  1.
          2   -1    0    0  502    0  0.00000000000E+00 -0.00000000000E+00 -0.87431985993E+03  0.87431985993E+03  0.00000000000E+00 0. -1.
          6    2    1    2  502    0  0.10367573462E+03  0.32200854140E+03 -0.19527669927E+03  0.42669897982E+03  0.17175817716E+03 0.  0.
         24    2    3    3    0    0  0.10858788242E+03  0.23459633538E+03 -0.78093634582E+02  0.28034672119E+03  0.75292094796E+02 0.  0.
         -6    2    1    2    0  501 -0.10367573462E+03 -0.32200854140E+03 -0.49935943294E+03  0.62730460782E+03  0.17237479235E+03 0.  0.
        -24    2    5    5    0    0 -0.11857620626E+02 -0.16016791544E+03 -0.16312113122E+03  0.24298541780E+03  0.81480338197E+02 0.  0.
          5    1    3    3  502    0 -0.49121478013E+01  0.87412206027E+02 -0.11718306468E+03  0.14635225863E+03  0.47000000000E+01 0. -1.
        -13    1    4    4    0    0  0.43038080154E+02  0.17101094951E+03 -0.65708678579E+02  0.18818780947E+03  0.00000000000E+00 0.  1.
         14    1    4    4    0    0  0.65549802264E+02  0.63585385872E+02 -0.12384956004E+02  0.92158911715E+02  0.00000000000E+00 0. -1.
         -5    1    5    5    0  501 -0.91818113991E+02 -0.16184062597E+03 -0.33623830172E+03  0.38431919002E+03  0.47000000000E+01 0.  1.
         13    1    6    6    0    0 -0.30044927097E+02 -0.24712410185E+02 -0.15680246052E+02  0.41943664332E+02  0.00000000000E+00 0. -1.
        -14    1    6    6    0    0  0.18187306471E+02 -0.13545550525E+03 -0.14744088517E+03  0.20104175347E+03  0.00000000000E+00 0.  1.
</event>
<event>
12    1  0.2689284E-002  0.1994931E+03  0.7818608E-02  0.1150167E+00
          1   -1    0    0  502    0  0.00000000000E+00  0.00000000000E+00  0.18137392251E+04  0.18137392251E+04  0.00000000000E+00 0. -1.
         -1   -1    0    0    0  501 -0.00000000000E+00 -0.00000000000E+00 -0.35561063400E+02  0.35561063400E+02  0.00000000000E+00 0.  1.
          6    2    1    2  502    0  0.10089163355E+03  0.16527246627E+02  0.31597072857E+03  0.37350239185E+03  0.17092180612E+03 0.  0.
         24    2    3    3    0    0  0.73252792784E+02  0.20131800405E+02  0.32576379037E+03  0.34358763987E+03  0.78480303998E+02 0.  0.
         -6    2    1    2    0  501 -0.10089163355E+03 -0.16527246627E+02  0.14622074331E+04  0.14757978966E+04  0.17168745625E+03 0.  0.
        -24    2    5    5    0    0 -0.86423998316E+02 -0.28880104874E+02  0.14436410720E+04  0.14488033538E+04  0.81415264904E+02 0.  0.
          5    1    3    3  502    0  0.27638840768E+02 -0.36045537781E+01 -0.97930618030E+01  0.29914751987E+02  0.47000000000E+01 0. -1.
        -13    1    4    4    0    0  0.34402630116E+02  0.49665616191E+02  0.18227016595E+03  0.19202246688E+03  0.00000000000E+00 0.  1.
         14    1    4    4    0    0  0.38850162668E+02 -0.29533815786E+02  0.14349362442E+03  0.15156517299E+03  0.00000000000E+00 0. -1.
         -5    1    5    5    0  501 -0.14467635235E+02  0.12352858246E+02  0.18566361134E+02  0.26994542817E+02  0.47000000000E+01 0.  1.
         13    1    6    6    0    0 -0.73130208801E+02  0.13609975834E+02  0.10553394023E+04  0.10579577085E+04  0.00000000000E+00 0. -1.
        -14    1    6    6    0    0 -0.13293789516E+02 -0.42490080707E+02  0.38830166970E+03  0.39084564536E+03  0.00000000000E+00 0.  1.
</event>
<event>
12    1  0.2689284E-002  0.1807491E+03  0.7818608E-02  0.1167080E+00
          1   -1    0    0  502    0  0.00000000000E+00  0.00000000000E+00  0.58557819691E+02  0.58557819691E+02  0.00000000000E+00 0.  1.
         -1   -1    0    0    0  501 -0.00000000000E+00 -0.00000000000E+00 -0.61735666420E+03  0.61735666420E+03  0.00000000000E+00 0. -1.
          6    2    1    2  502    0  0.48812059722E+02 -0.25727581764E+02 -0.17432321554E+03  0.25100775325E+03  0.17196448203E+03 0.  0.
         24    2    3    3    0    0  0.34208510755E+02  0.51294990229E+02 -0.94644388781E+02  0.13913038435E+03  0.81229953164E+02 0.  0.
         -6    2    1    2    0  501 -0.48812059722E+02  0.25727581764E+02 -0.38447562897E+03  0.42490673064E+03  0.17227795806E+03 0.  0.
        -24    2    5    5    0    0 -0.78318607967E+02  0.66015458592E+02 -0.27546981050E+03  0.30491461478E+03  0.81224754120E+02 0.  0.
          5    1    3    3  502    0  0.14603548967E+02 -0.77022571992E+02 -0.79678826760E+02  0.11187736890E+03  0.47000000000E+01 0. -1.
        -11    1    4    4    0    0 -0.95705975508E+01  0.40982343805E+02 -0.82385629172E+02  0.92512381524E+02  0.00000000000E+00 0.  1.
         12    1    4    4    0    0  0.43779108306E+02  0.10312646424E+02 -0.12258759609E+02  0.46618002826E+02  0.00000000000E+00 0. -1.
         -5    1    5    5    0  501  0.29506548245E+02 -0.40287876828E+02 -0.10900581847E+03  0.11999211586E+03  0.47000000000E+01 0.  1.
         13    1    6    6    0    0  0.10495907201E+02  0.90217130443E+01 -0.93826292378E+02  0.94841596969E+02  0.00000000000E+00 0. -1.
        -14    1    6    6    0    0 -0.88814515168E+02  0.56993745548E+02 -0.18164351812E+03  0.21007301781E+03  0.00000000000E+00 0.  1.
</event>
<event>
12    1  0.2689284E-002  0.2213609E+03  0.7818608E-02  0.1132873E+00
         -2   -1    0    0    0  501 -0.00000000000E+00  0.00000000000E+00  0.34948584959E+03  0.34948584959E+03  0.00000000000E+00 0.  1.
          2   -1    0    0  502    0  0.00000000000E+00 -0.00000000000E+00 -0.14321223137E+03  0.14321223137E+03  0.00000000000E+00 0. -1.
          6    2    1    2  502    0 -0.82565182579E+02  0.97498939493E+02  0.13478183087E+03  0.25332702434E+03  0.17229447684E+03 0.  0.
         24    2    3    3    0    0 -0.21882673329E+02  0.85997285672E+02  0.14671868678E+03  0.19024585838E+03  0.82418014087E+02 0.  0.
         -6    2    1    2    0  501  0.82565182579E+02 -0.97498939493E+02  0.71491787353E+02  0.23937105662E+03  0.18937891781E+03 0.  0.
        -24    2    5    5    0    0  0.10618636511E+03 -0.12748188221E+02  0.18886539805E+02  0.13675501414E+03  0.83109398198E+02 0.  0.
          5    1    3    3  502    0 -0.60682509250E+02  0.11501653821E+02 -0.11936855909E+02  0.63081165957E+02  0.47000000000E+01 0. -1.
        -13    1    4    4    0    0 -0.35040523105E+02  0.35066170044E+02  0.12286115571E+03  0.13248523738E+03  0.00000000000E+00 0.  1.
         14    1    4    4    0    0  0.13157849776E+02  0.50931115628E+02  0.23857531071E+02  0.57760621003E+02  0.00000000000E+00 0. -1.
         -5    1    5    5    0  501 -0.23621182528E+02 -0.84750751272E+02  0.52605247548E+02  0.10261604248E+03  0.47000000000E+01 0.  1.
         11    1    6    6    0    0  0.37781344459E+02 -0.30893446689E+02 -0.23599796134E+02  0.54210565530E+02  0.00000000000E+00 0. -1.
        -12    1    6    6    0    0  0.68405020648E+02  0.18145258468E+02  0.42486335939E+02  0.82544448609E+02  0.00000000000E+00 0.  1.
</event>
<event>
12    1  0.2689284E-002  0.2062044E+03  0.7818608E-02  0.1144607E+00
          1   -1    0    0  502    0  0.00000000000E+00  0.00000000000E+00  0.25372083558E+04  0.25372083558E+04  0.00000000000E+00 0.  1.
         -1   -1    0    0    0  501 -0.00000000000E+00 -0.00000000000E+00 -0.18940469632E+02  0.18940469632E+02  0.00000000000E+00 0. -1.
          6    2    1    2  502    0  0.92030082760E+02  0.65771169737E+02  0.82358088807E+03  0.84892290893E+03  0.17201524119E+03 0.  0.
         24    2    3    3    0    0  0.74677943233E+02 -0.74929502355E+00  0.21187865883E+03  0.23335181130E+03  0.63112163006E+02 0.  0.
         -6    2    1    2    0  501 -0.92030082760E+02 -0.65771169737E+02  0.16946869981E+04  0.17072259165E+04  0.17280314110E+03 0.  0.
        -24    2    5    5    0    0 -0.10278779931E+03 -0.43154221159E+01  0.13965207465E+04  0.14025658749E+04  0.79604543715E+02 0.  0.
          5    1    3    3  502    0  0.17352139527E+02  0.66520464760E+02  0.61170222924E+03  0.61557109763E+03  0.47000000000E+01 0. -1.
        -13    1    4    4    0    0  0.18825295005E+02 -0.92573342194E+01  0.14176283904E+03  0.14330663803E+03  0.00000000000E+00 0.  1.
         14    1    4    4    0    0  0.55852648227E+02  0.85080391959E+01  0.70115819791E+02  0.90045173273E+02  0.00000000000E+00 0. -1.
         -5    1    5    5    0  501  0.10757716549E+02 -0.61455747621E+02  0.29816625158E+03  0.30466004162E+03  0.47000000000E+01 0.  1.
         13    1    6    6    0    0 -0.87652979063E+01  0.17246777060E+02  0.58689792214E+03  0.58721670002E+03  0.00000000000E+00 0. -1.
        -14    1    6    6    0    0 -0.94022501402E+02 -0.21562199176E+02  0.80962282436E+03  0.81534917485E+03  0.00000000000E+00 0.  1.
</event>
<event>
12    1  0.2689284E-002  0.1984873E+03  0.7818608E-02  0.1151022E+00
         -2   -1    0    0    0  501 -0.00000000000E+00  0.00000000000E+00  0.35919799408E+03  0.35919799408E+03  0.00000000000E+00 0.  1.
          2   -1    0    0  502    0  0.00000000000E+00 -0.00000000000E+00 -0.13687137756E+03  0.13687137756E+03  0.00000000000E+00 0. -1.
          6    2    1    2  502    0  0.95929327897E+02 -0.24574053964E+02  0.22148772031E+03  0.29707835846E+03  0.17144217898E+03 0.  0.
         24    2    3    3    0    0  0.83609177106E+02 -0.44777342622E+02  0.23806638208E+03  0.26780548682E+03  0.77773206080E+02 0.  0.
         -6    2    1    2    0  501 -0.95929327897E+02  0.24574053964E+02  0.83889620744E+00  0.19899101318E+03  0.17259895568E+03 0.  0.
        -24    2    5    5    0    0 -0.13501664582E+03  0.23873794504E+02 -0.91583037079E+01  0.15836660190E+03  0.78718824663E+02 0.  0.
          5    1    3    3  502    0  0.12320150791E+02  0.20203288658E+02 -0.16578661766E+02  0.29272871640E+02  0.47000000000E+01 0. -1.
        -11    1    4    4    0    0  0.66443642798E+02 -0.54623000959E+01  0.80594289957E+02  0.10459461728E+03  0.00000000000E+00 0.  1.
         12    1    4    4    0    0  0.17165534308E+02 -0.39315042526E+02  0.15747209212E+03  0.16321086953E+03  0.00000000000E+00 0. -1.
         -5    1    5    5    0  501  0.39087317928E+02  0.70025945986E+00  0.99971999154E+01  0.40624411285E+02  0.47000000000E+01 0.  1.
         11    1    6    6    0    0 -0.10826389683E+02  0.26301096780E+02 -0.18293254576E+02  0.33817178599E+02  0.00000000000E+00 0. -1.
        -12    1    6    6    0    0 -0.12419025614E+03 -0.24273022766E+01  0.91349508685E+01  0.12454942330E+03  0.00000000000E+00 0.  1.
</event>
<event>
12    1  0.2689284E-002  0.1799422E+03  0.7818608E-02  0.1167859E+00
         -4   -1    0    0    0  501 -0.00000000000E+00  0.00000000000E+00  0.13922747545E+04  0.13922747545E+04  0.00000000000E+00 0.  1.
          4   -1    0    0  502    0  0.00000000000E+00 -0.00000000000E+00 -0.40414197452E+02  0.40414197452E+02  0.00000000000E+00 0. -1.
          6    2    1    2  502    0  0.18301013998E+02  0.50187131431E+02  0.11430277398E+04  0.11571296854E+04  0.17199714997E+03 0.  0.
         24    2    3    3    0    0  0.72673582067E+02  0.67319344688E+01  0.59210214298E+03  0.60180470529E+03  0.79102383738E+02 0.  0.
         -6    2    1    2    0  501 -0.18301013998E+02 -0.50187131431E+02  0.20883281734E+03  0.27555926664E+03  0.17166271745E+03 0.  0.
        -24    2    5    5    0    0 -0.61967717480E+02 -0.80019334042E+02  0.14717278496E+03  0.19419102408E+03  0.76205205658E+02 0.  0.
          5    1    3    3  502    0 -0.54372568069E+02  0.43455196962E+02  0.55092559677E+03  0.55532498006E+03  0.47000000000E+01 0. -1.
        -11    1    4    4    0    0  0.70497926080E+02  0.21973590176E+02  0.57060311493E+03  0.57536137428E+03  0.00000000000E+00 0.  1.
         12    1    4    4    0    0  0.21756559871E+01 -0.15241655707E+02  0.21499028053E+02  0.26443331010E+02  0.00000000000E+00 0. -1.
         -5    1    5    5    0  501  0.43666703482E+02  0.29832202611E+02  0.61660032377E+02  0.81368242567E+02  0.47000000000E+01 0.  1.
         13    1    6    6    0    0 -0.49052060455E+02 -0.56431151831E+02  0.42260332411E+02  0.85886641728E+02  0.00000000000E+00 0. -1.
        -14    1    6    6    0    0 -0.12915657026E+02 -0.23588182211E+02  0.10491245255E+03  0.10830438235E+03  0.00000000000E+00 0.  1.
</event>
<event>
12    1  0.2689284E-002  0.1731046E+03  0.7818608E-02  0.1174648E+00
         -1   -1    0    0    0  501 -0.00000000000E+00  0.00000000000E+00  0.14837117905E+03  0.14837117905E+03  0.00000000000E+00 0.  1.
          1   -1    0    0  502    0  0.00000000000E+00 -0.00000000000E+00 -0.20298289384E+03  0.20298289384E+03  0.00000000000E+00 0. -1.
          6    2    1    2  502    0 -0.50246095853E+02  0.82519471669E+01 -0.37245968978E+02  0.17131298820E+03  0.15927370449E+03 0.  0.
         24    2    3    3    0    0 -0.56525864176E+02  0.34900124761E+02  0.22568217583E+02  0.10536309985E+03  0.78605765288E+02 0.  0.
         -6    2    1    2    0  501  0.50246095853E+02 -0.82519471669E+01 -0.17365745809E+02  0.18004108469E+03  0.17181518637E+03 0.  0.
        -24    2    5    5    0    0 -0.78257089307E+01 -0.60813386105E+02 -0.68810243911E+01  0.10087632765E+03  0.79807113303E+02 0.  0.
          5    1    3    3  502    0  0.62797683233E+01 -0.26648177594E+02 -0.59814186561E+02  0.65949888349E+02  0.47000000000E+01 0. -1.
        -13    1    4    4    0    0 -0.11154189017E+02  0.52892630341E+02  0.10174576286E+02  0.55005165936E+02  0.00000000000E+00 0.  1.
         14    1    4    4    0    0 -0.45371675159E+02 -0.17992505580E+02  0.12393641297E+02  0.50357933917E+02  0.00000000000E+00 0. -1.
         -5    1    5    5    0  501  0.58071804783E+02  0.52561438938E+02 -0.10484721418E+02  0.79164757040E+02  0.47000000000E+01 0.  1.
         11    1    6    6    0    0  0.33236349396E+02 -0.45915917934E+02 -0.75968171160E+01  0.57189492664E+02  0.00000000000E+00 0. -1.
        -12    1    6    6    0    0 -0.41062058326E+02 -0.14897468171E+02  0.71579272483E+00  0.43686834987E+02  0.00000000000E+00 0.  1.
</event>
<event>
12    1  0.2689284E-002  0.1997183E+03  0.7818608E-02  0.1149977E+00
         -2   -1    0    0    0  501 -0.00000000000E+00  0.00000000000E+00  0.16422080210E+03  0.16422080210E+03  0.00000000000E+00 0. -1.
          2   -1    0    0  502    0  0.00000000000E+00 -0.00000000000E+00 -0.26965120103E+03  0.26965120103E+03  0.00000000000E+00 0.  1.
          6    2    1    2  502    0  0.67484264019E+01 -0.99918940381E+02 -0.12125377929E+03  0.23437307421E+03  0.17377837328E+03 0.  0.
         24    2    3    3    0    0  0.18643178825E+01  0.18020062694E+02 -0.43703683793E+02  0.93059344259E+02  0.80136329066E+02 0.  0.
         -6    2    1    2    0  501 -0.67484264019E+01  0.99918940381E+02  0.15823380365E+02  0.19949892892E+03  0.17181416521E+03 0.  0.
        -24    2    5    5    0    0  0.59686311800E+02  0.48100043450E+02  0.18088560450E+02  0.11508332870E+03  0.83910109820E+02 0.  0.
          5    1    3    3  502    0  0.48841085194E+01 -0.11793900307E+03 -0.77550095494E+02  0.14131372995E+03  0.47000000000E+01 0. -1.
        -13    1    4    4    0    0  0.34707468353E+02  0.23067243241E+02 -0.42917202943E+02  0.59821337152E+02  0.00000000000E+00 0.  1.
         14    1    4    4    0    0 -0.32843150470E+02 -0.50471805475E+01 -0.78648085002E+00  0.33238007107E+02  0.00000000000E+00 0. -1.
         -5    1    5    5    0  501 -0.66434738202E+02  0.51818896931E+02 -0.22651800851E+01  0.84415600216E+02  0.47000000000E+01 0.  1.
         11    1    6    6    0    0  0.23895604119E+02  0.68050206386E+02  0.16967017350E+02  0.74092578327E+02  0.00000000000E+00 0. -1.
        -12    1    6    6    0    0  0.35790707681E+02 -0.19950162936E+02  0.11215431006E+01  0.40990750376E+02  0.00000000000E+00 0.  1.
</event>
<event>
12    1  0.2689284E-002  0.1784248E+03  0.7818608E-02  0.1169336E+00
         -2   -1    0    0    0  501 -0.00000000000E+00  0.00000000000E+00  0.67755665040E+02  0.67755665040E+02  0.00000000000E+00 0.  1.
          2   -1    0    0  502    0  0.00000000000E+00 -0.00000000000E+00 -0.47189314175E+03  0.47189314175E+03  0.00000000000E+00 0. -1.
          6    2    1    2  502    0 -0.42064668399E+02 -0.17454376471E+02 -0.21962237511E+03  0.28286813065E+03  0.17235515688E+03 0.  0.
         24    2    3    3    0    0  0.19044327018E+02  0.37010073938E+02 -0.10108555646E+03  0.13873710326E+03  0.85424013795E+02 0.  0.
         -6    2    1    2    0  501  0.42064668399E+02  0.17454376471E+02 -0.18451510160E+03  0.25678067615E+03  0.17267426368E+03 0.  0.
        -24    2    5    5    0    0 -0.30666399974E+02  0.36199255440E+02 -0.63239320946E+02  0.11405337053E+03  0.82207940212E+02 0.  0.
          5    1    3    3  502    0 -0.61108995417E+02 -0.54464450408E+02 -0.11853681865E+03  0.14413102739E+03  0.47000000000E+01 0. -1.
        -11    1    4    4    0    0  0.21574288304E+02 -0.15478161708E+02 -0.20596531266E+01  0.26632040416E+02  0.00000000000E+00 0.  1.
         12    1    4    4    0    0 -0.25299612869E+01  0.52488235645E+02 -0.99025903331E+02  0.11210506285E+03  0.00000000000E+00 0. -1.
         -5    1    5    5    0  501  0.72731068373E+02 -0.18744878969E+02 -0.12127578066E+03  0.14272730561E+03  0.47000000000E+01 0.  1.
         13    1    6    6    0    0 -0.13417849816E+02  0.58561442451E+02 -0.61164957255E+02  0.85735834000E+02  0.00000000000E+00 0. -1.
        -14    1    6    6    0    0 -0.17248550157E+02 -0.22362187011E+02 -0.20743636908E+01  0.28317536530E+02  0.00000000000E+00 0.  1.
</event>
<event>
12    1  0.2689284E-002  0.1811180E+03  0.7818608E-02  0.1166725E+00
         -2   -1    0    0    0  501 -0.00000000000E+00  0.00000000000E+00  0.23373064025E+02  0.23373064025E+02  0.00000000000E+00 0.  1.
          2   -1    0    0  502    0  0.00000000000E+00 -0.00000000000E+00 -0.14568292020E+04  0.14568292020E+04  0.00000000000E+00 0. -1.
          6    2    1    2  502    0  0.55320854616E+02  0.10413416669E+02 -0.85961683654E+03  0.87855897225E+03  0.17249906045E+03 0.  0.
         24    2    3    3    0    0  0.10057307395E+03  0.53627440588E+01 -0.51316336777E+03  0.52909456967E+03  0.80378600418E+02 0.  0.
         -6    2    1    2    0  501 -0.55320854616E+02 -0.10413416669E+02 -0.57383930139E+03  0.60164329373E+03  0.17179718527E+03 0.  0.
        -24    2    5    5    0    0 -0.91449207142E+02  0.15029521497E+02 -0.50588010144E+03  0.52044511754E+03  0.79747096090E+02 0.  0.
          5    1    3    3  502    0 -0.45252219335E+02  0.50506726105E+01 -0.34645346877E+03  0.34946440258E+03  0.47000000000E+01 0. -1.
        -13    1    4    4    0    0  0.41085541516E+02  0.40768102690E+02 -0.19098872554E+03  0.19956641301E+03  0.00000000000E+00 0.  1.
         14    1    4    4    0    0  0.59487532434E+02 -0.35405358631E+02 -0.32217464223E+03  0.32952815666E+03  0.00000000000E+00 0. -1.
         -5    1    5    5    0  501  0.36128352527E+02 -0.25442938166E+02 -0.67959199955E+02  0.81198176194E+02  0.47000000000E+01 0.  1.
         13    1    6    6    0    0  0.34267180639E+00  0.11352951175E+02 -0.21728052482E+03  0.21757718950E+03  0.00000000000E+00 0. -1.
        -14    1    6    6    0    0 -0.91791878949E+02  0.36765703220E+01 -0.28859957661E+03  0.30286792804E+03  0.00000000000E+00 0.  1.
</event>
<event>
12    1  0.2689284E-002  0.1907538E+03  0.7818608E-02  0.1157783E+00
         -1   -1    0    0    0  501 -0.00000000000E+00  0.00000000000E+00  0.27606827159E+03  0.27606827159E+03  0.00000000000E+00 0.  1.
          1   -1    0    0  502    0  0.00000000000E+00 -0.00000000000E+00 -0.13499390701E+03  0.13499390701E+03  0.00000000000E+00 0. -1.
          6    2    1    2  502    0 -0.81618761585E+02  0.57791742946E+01  0.38806229383E+02  0.19427855626E+03  0.17188139191E+03 0.  0.
         24    2    3    3    0    0 -0.41366883912E+02  0.69756034062E+02  0.13884348935E+02  0.11455125625E+03  0.79700011234E+02 0.  0.
         -6    2    1    2    0  501  0.81618761585E+02 -0.57791742946E+01  0.10226813519E+03  0.21678362234E+03  0.17274647996E+03 0.  0.
        -24    2    5    5    0    0  0.15910009942E+02 -0.36954756072E+02  0.10448379192E+03  0.14386890451E+03  0.90347199716E+02 0.  0.
          5    1    3    3  502    0 -0.40251877673E+02 -0.63976859767E+02  0.24921880448E+02  0.79727300010E+02  0.47000000000E+01 0. -1.
        -13    1    4    4    0    0  0.74071727874E+01  0.44469261970E+02  0.33552525804E+02  0.56197450625E+02  0.00000000000E+00 0.  1.
         14    1    4    4    0    0 -0.48774056700E+02  0.25286772092E+02 -0.19668176869E+02  0.58353805627E+02  0.00000000000E+00 0. -1.
         -5    1    5    5    0  501  0.65708751643E+02  0.31175581777E+02 -0.22156567272E+01  0.72914717831E+02  0.47000000000E+01 0.  1.
         11    1    6    6    0    0  0.28430631930E+02 -0.14980332217E+02 -0.40839274677E+01  0.32394284200E+02  0.00000000000E+00 0. -1.
        -12    1    6    6    0    0 -0.12520621988E+02 -0.21974423855E+02  0.10856771939E+03  0.11147462031E+03  0.00000000000E+00 0.  1.
</event>
<event>
12    1  0.2689284E-002  0.2140346E+03  0.7818608E-02  0.1138410E+00
         -2   -1    0    0    0  501 -0.00000000000E+00  0.00000000000E+00  0.29481112522E+03  0.29481112522E+03  0.00000000000E+00 0.  1.
          2   -1    0    0  502    0  0.00000000000E+00 -0.00000000000E+00 -0.15587941667E+03  0.15587941667E+03  0.00000000000E+00 0. -1.
          6    2    1    2  502    0  0.10699389941E+03 -0.68541061145E+02  0.82288471750E+02  0.22994799432E+03  0.17308701839E+03 0.  0.
         24    2    3    3    0    0  0.44186590197E+02  0.14206074035E+02  0.85642669439E+02  0.12590383488E+03  0.79767421395E+02 0.  0.
         -6    2    1    2    0  501 -0.10699389941E+03  0.68541061145E+02  0.56643236798E+02  0.22074254757E+03  0.17138624350E+03 0.  0.
        -24    2    5    5    0    0 -0.58996747594E+02  0.71408450374E+02  0.99856997421E+02  0.15592381871E+03  0.75901477568E+02 0.  0.
          5    1    3    3  502    0  0.62807309213E+02 -0.82747135180E+02 -0.33541976888E+01  0.10404415944E+03  0.47000000000E+01 0. -1.
        -13    1    4    4    0    0  0.13758074129E+02 -0.15135512683E+02  0.80809110441E+02  0.83357547218E+02  0.00000000000E+00 0.  1.
         14    1    4    4    0    0  0.30428516068E+02  0.29341586718E+02  0.48335589978E+01  0.42546287662E+02  0.00000000000E+00 0. -1.
         -5    1    5    5    0  501 -0.47997151817E+02 -0.28673892288E+01 -0.43213760623E+02  0.64818728857E+02  0.47000000000E+01 0.  1.
         13    1    6    6    0    0 -0.40980858629E+02 -0.30693470782E+01  0.49022326470E+02  0.63969056254E+02  0.00000000000E+00 0. -1.
        -14    1    6    6    0    0 -0.18015888965E+02  0.74477797452E+02  0.50834670952E+02  0.91954762461E+02  0.00000000000E+00 0.  1.
</event>
<event>
12    1  0.2689284E-002  0.1963563E+03  0.7818608E-02  0.1152850E+00
          2   -1    0    0  502    0  0.00000000000E+00  0.00000000000E+00  0.86368076755E+02  0.86368076755E+02  0.00000000000E+00 0. -1.
         -2   -1    0    0    0  501 -0.00000000000E+00 -0.00000000000E+00 -0.62362118177E+03  0.62362118177E+03  0.00000000000E+00 0.  1.
          6    2    1    2  502    0 -0.69863027527E+02  0.64766925217E+02 -0.45753921526E+03  0.49776389408E+03  0.17132181277E+03 0.  0.
         24    2    3    3    0    0  0.16913099360E+02  0.52221023491E+00 -0.26619766959E+03  0.27801140444E+03  0.78376119273E+02 0.  0.
         -6    2    1    2    0  501  0.69863027527E+02 -0.64766925217E+02 -0.79713889755E+02  0.21222536445E+03  0.17207470435E+03 0.  0.
        -24    2    5    5    0    0  0.48264040102E+02  0.18500553496E+02 -0.81605216614E+02  0.12605311609E+03  0.80983261554E+02 0.  0.
          5    1    3    3  502    0 -0.86776126888E+02  0.64244714982E+02 -0.19134154567E+03  0.21975248963E+03  0.47000000000E+01 0. -1.
        -13    1    4    4    0    0 -0.30228367599E+02 -0.40911730623E+01 -0.13830807077E+03  0.14163196795E+03  0.00000000000E+00 0.  1.
         14    1    4    4    0    0  0.47141466960E+02  0.46133832972E+01 -0.12788959882E+03  0.13637943649E+03  0.00000000000E+00 0. -1.
         -5    1    5    5    0  501  0.21598987426E+02 -0.83267478713E+02  0.18913268589E+01  0.86172248353E+02  0.47000000000E+01 0.  1.
         11    1    6    6    0    0  0.37468226438E+02  0.43542762672E+02 -0.23878942514E+02  0.62209678260E+02  0.00000000000E+00 0. -1.
        -12    1    6    6    0    0  0.10795813663E+02 -0.25042209177E+02 -0.57726274100E+02  0.63843437835E+02  0.00000000000E+00 0.  1.
</event>
<event>
12    1  0.2689284E-002  0.2303293E+03  0.7818608E-02  0.1126408E+00
          3   -1    0    0  502    0  0.00000000000E+00  0.00000000000E+00  0.72547444962E+03  0.72547444962E+03  0.00000000000E+00 0.  1.
         -3   -1    0    0    0  501 -0.00000000000E+00 -0.00000000000E+00 -0.73133627522E+02  0.73133627522E+02  0.00000000000E+00 0. -1.
          6    2    1    2  502    0  0.19086583436E+01 -0.15094798408E+03  0.32124283857E+03  0.39431349093E+03  0.17174757910E+03 0.  0.
         24    2    3    3    0    0 -0.47563038437E+01 -0.17071259569E+03  0.21464315154E+03  0.28559070184E+03  0.79529577662E+02 0.  0.
         -6    2    1    2    0  501 -0.19086583436E+01  0.15094798408E+03  0.33109798353E+03  0.40429458621E+03  0.17617974023E+03 0.  0.
        -24    2    5    5    0    0 -0.60334404355E+02  0.13933959889E+03  0.24043151882E+03  0.29570904285E+03  0.81121875069E+02 0.  0.
          5    1    3    3  502    0  0.66649621873E+01  0.19764611609E+02  0.10659968703E+03  0.10872278909E+03  0.47000000000E+01 0. -1.
        -11    1    4    4    0    0 -0.10935751690E+02 -0.14634793235E+02  0.71242734457E+02  0.73547909902E+02  0.00000000000E+00 0.  1.
         12    1    4    4    0    0  0.61794478459E+01 -0.15607780245E+03  0.14340041708E+03  0.21204279194E+03  0.00000000000E+00 0. -1.
         -5    1    5    5    0  501  0.58425746011E+02  0.11608385191E+02  0.90666464711E+02  0.10858554336E+03  0.47000000000E+01 0.  1.
         11    1    6    6    0    0  0.30329795396E+00  0.70968575846E+01 -0.61589732359E+01  0.94016130821E+01  0.00000000000E+00 0. -1.
        -12    1    6    6    0    0 -0.60637702308E+02  0.13224274130E+03  0.24659049205E+03  0.28630742977E+03  0.00000000000E+00 0.  1.
</event>
<event>
12    1  0.2689284E-002  0.1880919E+03  0.7818608E-02  0.1160194E+00
         -2   -1    0    0    0  501 -0.00000000000E+00  0.00000000000E+00  0.40968288311E+02  0.40968288311E+02  0.00000000000E+00 0.  1.
          2   -1    0    0  502    0  0.00000000000E+00 -0.00000000000E+00 -0.10061496510E+04  0.10061496510E+04  0.00000000000E+00 0. -1.
          6    2    1    2  502    0 -0.12894912465E+02  0.48784407599E+02 -0.65576280929E+03  0.67959103500E+03  0.17109329505E+03 0.  0.
         24    2    3    3    0    0 -0.88885138525E+01 -0.56093082560E+01 -0.58233601302E+03  0.58800330676E+03  0.80760056201E+02 0.  0.
         -6    2    1    2    0  501  0.12894912465E+02 -0.48784407599E+02 -0.30941855340E+03  0.36752690432E+03  0.19180716101E+03 0.  0.
        -24    2    5    5    0    0  0.78850747443E+02 -0.65069763763E+02 -0.19537941071E+03  0.23470220383E+03  0.80377209609E+02 0.  0.
          5    1    3    3  502    0 -0.40063986120E+01  0.54393715855E+02 -0.73426796268E+02  0.91587728242E+02  0.47000000000E+01 0. -1.
        -13    1    4    4    0    0  0.19856089621E+02  0.29798538797E+02 -0.26357818721E+03  0.26599939471E+03  0.00000000000E+00 0.  1.
         14    1    4    4    0    0 -0.28744603474E+02 -0.35407847053E+02 -0.31875782581E+03  0.32200391205E+03  0.00000000000E+00 0. -1.
         -5    1    5    5    0  501 -0.65955834978E+02  0.16285356164E+02 -0.11403914269E+03  0.13282470048E+03  0.47000000000E+01 0.  1.
         13    1    6    6    0    0  0.70315558446E+01  0.18464911736E+02 -0.33526587464E+02  0.38915649936E+02  0.00000000000E+00 0. -1.
        -14    1    6    6    0    0  0.71819191598E+02 -0.83534675499E+02 -0.16185282325E+03  0.19578655390E+03  0.00000000000E+00 0.  1.
</event>
<event>
12    1  0.2689284E-002  0.1855099E+03  0.7818608E-02  0.1162575E+00
          1   -1    0    0  502    0  0.00000000000E+00  0.00000000000E+00  0.11409439088E+04  0.11409439088E+04  0.00000000000E+00 0. -1.
         -1   -1    0    0    0  501 -0.00000000000E+00 -0.00000000000E+00 -0.30162933128E+02  0.30162933128E+02  0.00000000000E+00 0.  1.
          6    2    1    2  502    0  0.70138006147E+02  0.43744865557E+01  0.55317273941E+03  0.58338157636E+03  0.17145118245E+03 0.  0.
         24    2    3    3    0    0  0.98844928538E+02  0.44578976804E+02  0.42856092993E+03  0.44925223023E+03  0.80034309103E+02 0.  0.
         -6    2    1    2    0  501 -0.70138006147E+02 -0.43744865557E+01  0.55760823625E+03  0.58772526557E+03  0.17191732493E+03 0.  0.
        -24    2    5    5    0    0 -0.73823648534E+02  0.57720722737E+02  0.37760100823E+03  0.39721518416E+03  0.80098490596E+02 0.  0.
          5    1    3    3  502    0 -0.28706922391E+02 -0.40204490249E+02  0.12461180949E+03  0.13412934613E+03  0.47000000000E+01 0. -1.
        -11    1    4    4    0    0 -0.11712868280E+01  0.30728681475E+02  0.64608542663E+02  0.71553389598E+02  0.00000000000E+00 0.  1.
         12    1    4    4    0    0  0.10001621537E+03  0.13850295329E+02  0.36395238726E+03  0.37769884063E+03  0.00000000000E+00 0. -1.
         -5    1    5    5    0  501  0.36856423865E+01 -0.62095209292E+02  0.18000722802E+03  0.19051008141E+03  0.47000000000E+01 0.  1.
         11    1    6    6    0    0 -0.31788448788E+01 -0.27668934207E+01  0.16629002888E+03  0.16634342325E+03  0.00000000000E+00 0. -1.
        -12    1    6    6    0    0 -0.70644803655E+02  0.60487616157E+02  0.21131097935E+03  0.23087176091E+03  0.00000000000E+00 0.  1.
</event>
<event>
12    1  0.2689284E-002  0.2168286E+03  0.7818608E-02  0.1136270E+00
         -2   -1    0    0    0  501 -0.00000000000E+00  0.00000000000E+00  0.53183768363E+02  0.53183768363E+02  0.00000000000E+00 0.  1.
          2   -1    0    0  502    0  0.00000000000E+00 -0.00000000000E+00 -0.10295577901E+04  0.10295577901E+04  0.00000000000E+00 0. -1.
          6    2    1    2  502    0  0.33810496611E+02 -0.12807674471E+03 -0.69060406471E+03  0.72366790105E+03  0.17092236427E+03 0.  0.
         24    2    3    3    0    0  0.11959239612E+02 -0.61187673256E+02 -0.16780344614E+03  0.19613192874E+03  0.80142262029E+02 0.  0.
         -6    2    1    2    0  501 -0.33810496611E+02  0.12807674471E+03 -0.28576995700E+03  0.35907365738E+03  0.17240249674E+03 0.  0.
        -24    2    5    5    0    0 -0.71098983730E+02  0.12870781574E+03 -0.27025302092E+03  0.31840801061E+03  0.82013404898E+02 0.  0.
          5    1    3    3  502    0  0.21851256998E+02 -0.66889071459E+02 -0.52280061857E+03  0.52753597231E+03  0.47000000000E+01 0. -1.
        -11    1    4    4    0    0  0.34979425403E+02 -0.78295473631E+01 -0.10314881278E+03  0.10919954026E+03  0.00000000000E+00 0.  1.
         12    1    4    4    0    0 -0.23020185790E+02 -0.53358125893E+02 -0.64654633358E+02  0.86932388483E+02  0.00000000000E+00 0. -1.
         -5    1    5    5    0  501  0.37288487119E+02 -0.63107102439E+00 -0.15516936083E+02  0.40665646775E+02  0.47000000000E+01 0.  1.
         11    1    6    6    0    0 -0.42639245906E+02  0.11840631251E+02 -0.10562144500E+03  0.11451722789E+03  0.00000000000E+00 0. -1.
        -12    1    6    6    0    0 -0.28459737823E+02  0.11686718449E+03 -0.16463157592E+03  0.20389078272E+03  0.00000000000E+00 0.  1.
</event>
<event>
12    1  0.2689284E-002  0.1958222E+03  0.7818608E-02  0.1153312E+00
         -2   -1    0    0    0  501 -0.00000000000E+00  0.00000000000E+00  0.26835003596E+02  0.26835003596E+02  0.00000000000E+00 0. -1.
          2   -1    0    0  502    0  0.00000000000E+00 -0.00000000000E+00 -0.14302925523E+04  0.14302925523E+04  0.00000000000E+00 0.  1.
          6    2    1    2  502    0  0.92360119108E+02 -0.10942498809E+02 -0.72379445596E+03  0.74980845675E+03  0.17229096742E+03 0.  0.
         24    2    3    3    0    0  0.10683250665E+02 -0.59389025928E+02 -0.35454362322E+03  0.36851271286E+03  0.80369462663E+02 0.  0.
         -6    2    1    2    0  501 -0.92360119108E+02  0.10942498809E+02 -0.67966309277E+03  0.70731909917E+03  0.17236083806E+03 0.  0.
        -24    2    5    5    0    0 -0.27084209018E+02 -0.15392635711E+02 -0.13937410073E+03  0.16244409638E+03  0.77410960994E+02 0.  0.
          5    1    3    3  502    0  0.81676868443E+02  0.48446527119E+02 -0.36925083274E+03  0.38129574389E+03  0.47000000000E+01 0. -1.
        -11    1    4    4    0    0  0.42646190535E+02 -0.50004572054E+02 -0.20389354920E+03  0.21422356126E+03  0.00000000000E+00 0.  1.
         12    1    4    4    0    0 -0.31962939870E+02 -0.93844538746E+01 -0.15065007402E+03  0.15428915160E+03  0.00000000000E+00 0. -1.
         -5    1    5    5    0  501 -0.65275910089E+02  0.26335134520E+02 -0.54028899203E+03  0.54487500279E+03  0.47000000000E+01 0.  1.
         13    1    6    6    0    0 -0.54051920098E+02 -0.64341073585E+01 -0.10045149204E+03  0.11425195866E+03  0.00000000000E+00 0. -1.
        -14    1    6    6    0    0  0.26967711079E+02 -0.89585283527E+01 -0.38922608694E+02  0.48192137727E+02  0.00000000000E+00 0.  1.
</event>
<event>
12    1  0.2689284E-002  0.2396218E+03  0.7818608E-02  0.1120045E+00
         -1   -1    0    0    0  501 -0.00000000000E+00  0.00000000000E+00  0.40108922527E+03  0.40108922527E+03  0.00000000000E+00 0. -1.
          1   -1    0    0  502    0  0.00000000000E+00 -0.00000000000E+00 -0.15779424710E+03  0.15779424710E+03  0.00000000000E+00 0.  1.
          6    2    1    2  502    0 -0.14847108322E+03  0.83332973011E+02  0.37384701709E+02  0.24429020567E+03  0.17114917972E+03 0.  0.
         24    2    3    3    0    0  0.71574359063E+01  0.50091893770E+02  0.24713126612E+02  0.84578389789E+02  0.63105773763E+02 0.  0.
         -6    2    1    2    0  501  0.14847108322E+03 -0.83332973011E+02  0.20591027646E+03  0.31459326671E+03  0.16607779672E+03 0.  0.
        -24    2    5    5    0    0  0.16465121966E+03 -0.48026923371E+02  0.19947634811E+03  0.27494734144E+03  0.79928828388E+02 0.  0.
          5    1    3    3  502    0 -0.15562851913E+03  0.33241079242E+02  0.12671575097E+02  0.15971181588E+03  0.47000000000E+01 0. -1.
        -11    1    4    4    0    0  0.42444410969E+01  0.41770724922E+02 -0.14474855169E+02  0.44410924027E+02  0.00000000000E+00 0.  1.
         12    1    4    4    0    0  0.29129948094E+01  0.83211688478E+01  0.39187981781E+02  0.40167465763E+02  0.00000000000E+00 0. -1.
         -5    1    5    5    0  501 -0.16180136438E+02 -0.35306049640E+02  0.64339283507E+01  0.39645925268E+02  0.47000000000E+01 0.  1.
         13    1    6    6    0    0  0.13256799798E+03 -0.67639516429E+02  0.13845980157E+03  0.20327443253E+03  0.00000000000E+00 0. -1.
        -14    1    6    6    0    0  0.32083221680E+02  0.19612593058E+02  0.61016546543E+02  0.71672908912E+02  0.00000000000E+00 0.  1.
</event>
<event>
12    1  0.2689284E-002  0.1761784E+03  0.7818608E-02  0.1171554E+00
          2   -1    0    0  502    0  0.00000000000E+00  0.00000000000E+00  0.26459721717E+04  0.26459721717E+04  0.00000000000E+00 0.  1.
         -2   -1    0    0    0  501 -0.00000000000E+00 -0.00000000000E+00 -0.11792459185E+02  0.11792459185E+02  0.00000000000E+00 0. -1.
          6    2    1    2  502    0  0.76723745251E+01  0.47119497304E+02  0.12153649525E+04  0.12279595710E+04  0.16880055674E+03 0.  0.
         24    2    3    3    0    0 -0.24523211629E+02 -0.17926308058E+02  0.90976764954E+03  0.91382693321E+03  0.80496877506E+02 0.  0.
         -6    2    1    2    0  501 -0.76723745251E+01 -0.47119497304E+02  0.14188147600E+04  0.14298050598E+04  0.17037627066E+03 0.  0.
        -24    2    5    5    0    0  0.10445970398E+02 -0.95224939367E+02  0.90517141728E+03  0.91357450912E+03  0.78142060894E+02 0.  0.
          5    1    3    3  502    0  0.32195586154E+02  0.65045805362E+02  0.30559730297E+03  0.31413263782E+03  0.47000000000E+01 0. -1.
        -13    1    4    4    0    0  0.96076932170E+01  0.24543920096E+02  0.46292535890E+03  0.46367510144E+03  0.00000000000E+00 0.  1.
         14    1    4    4    0    0 -0.34130904846E+02 -0.42470228154E+02  0.44684229064E+03  0.45015183177E+03  0.00000000000E+00 0. -1.
         -5    1    5    5    0  501 -0.18118344923E+02  0.48105442062E+02  0.51364334271E+03  0.51623055072E+03  0.47000000000E+01 0.  1.
         11    1    6    6    0    0 -0.16848927887E+02 -0.72671655663E+02  0.38259324917E+03  0.38979821731E+03  0.00000000000E+00 0. -1.
        -12    1    6    6    0    0  0.27294898285E+02 -0.22553283703E+02  0.52257816811E+03  0.52377629181E+03  0.00000000000E+00 0.  1.
</event>
<event>
12    1  0.2689284E-002  0.1738804E+03  0.7818608E-02  0.1173861E+00
          1   -1    0    0  502    0  0.00000000000E+00  0.00000000000E+00  0.39675068476E+03  0.39675068476E+03  0.00000000000E+00 0.  1.
         -1   -1    0    0    0  501 -0.00000000000E+00 -0.00000000000E+00 -0.76217376472E+02  0.76217376472E+02  0.00000000000E+00 0. -1.
          6    2    1    2  502    0  0.51741835350E+01  0.19885097844E+02  0.15690720074E+03  0.23387613580E+03  0.17220914019E+03 0.  0.
         24    2    3    3    0    0  0.31590240479E+02  0.38700398870E+01  0.17664504267E+03  0.19691720522E+03  0.80993790560E+02 0.  0.
         -6    2    1    2    0  501 -0.51741835350E+01 -0.19885097844E+02  0.16362610755E+03  0.23909192543E+03  0.17311630900E+03 0.  0.
        -24    2    5    5    0    0  0.19023414091E+02 -0.30370261410E+02  0.16744875786E+02  0.89788045271E+02  0.80605577641E+02 0.  0.
          5    1    3    3  502    0 -0.26416056944E+02  0.16015057957E+02 -0.19737841931E+02  0.36958930584E+02  0.47000000000E+01 0. -1.
        -11    1    4    4    0    0  0.63499647940E+01 -0.37072608617E+02  0.94752693462E+02  0.10194495221E+03  0.00000000000E+00 0.  1.
         12    1    4    4    0    0  0.25240275685E+02  0.40942648503E+02  0.81892349208E+02  0.94972253011E+02  0.00000000000E+00 0. -1.
         -5    1    5    5    0  501 -0.24197597625E+02  0.10485163566E+02  0.14688123176E+03  0.14930388016E+03  0.47000000000E+01 0.  1.
         11    1    6    6    0    0 -0.15351286772E+02 -0.45838918136E+02  0.19197363262E+02  0.52013528794E+02  0.00000000000E+00 0. -1.
        -12    1    6    6    0    0  0.34374700862E+02  0.15468656726E+02 -0.24524874761E+01  0.37774516477E+02  0.00000000000E+00 0.  1.
</event>
<event>
12    1  0.2689284E-002  0.2171023E+03  0.7818608E-02  0.1136062E+00
          1   -1    0    0  502    0  0.00000000000E+00  0.00000000000E+00  0.35800140982E+03  0.35800140982E+03  0.00000000000E+00 0. -1.
         -1   -1    0    0    0  501 -0.00000000000E+00 -0.00000000000E+00 -0.13173316083E+03  0.13173316083E+03  0.00000000000E+00 0.  1.
          6    2    1    2  502    0 -0.13109375617E+03  0.18109090484E+02  0.11886674165E+03  0.24726771158E+03  0.17175129361E+03 0.  0.
         24    2    3    3    0    0 -0.64893607654E+01 -0.67210361135E+01  0.38009406085E+02  0.96593263664E+02  0.88307754499E+02 0.  0.
         -6    2    1    2    0  501  0.13109375617E+03 -0.18109090484E+02  0.10740150735E+03  0.24246685907E+03  0.17245747853E+03 0.  0.
        -24    2    5    5    0    0  0.16405072032E+02  0.31553812594E+02  0.72580975877E+02  0.11264214022E+03  0.78456894000E+02 0.  0.
          5    1    3    3  502    0 -0.12460439541E+03  0.24830126597E+02  0.80857335562E+02  0.15067444792E+03  0.47000000000E+01 0. -1.
        -11    1    4    4    0    0 -0.15722971334E+02  0.20851687442E+02 -0.19203108494E+02  0.32415491244E+02  0.00000000000E+00 0.  1.
         12    1    4    4    0    0  0.92336105686E+01 -0.27572723556E+02  0.57212514578E+02  0.64177772420E+02  0.00000000000E+00 0. -1.
         -5    1    5    5    0  501  0.11468868414E+03 -0.49662903077E+02  0.34820531471E+02  0.12982471885E+03  0.47000000000E+01 0.  1.
         11    1    6    6    0    0  0.22087218624E+02 -0.27578295630E+01  0.74555399452E+02  0.77807187572E+02  0.00000000000E+00 0. -1.
        -12    1    6    6    0    0 -0.56821465927E+01  0.34311642157E+02 -0.19744235748E+01  0.34834952646E+02  0.00000000000E+00 0.  1.
</event>
<event>
12    1  0.2689284E-002  0.1793456E+03  0.7818608E-02  0.1168438E+00
         -3   -1    0    0    0  501 -0.00000000000E+00  0.00000000000E+00  0.20002927287E+03  0.20002927287E+03  0.00000000000E+00 0.  1.
          3   -1    0    0  502    0  0.00000000000E+00 -0.00000000000E+00 -0.18099615277E+03  0.18099615277E+03  0.00000000000E+00 0. -1.
          6    2    1    2  502    0 -0.31263211965E+02  0.41823351855E+02 -0.54128998855E+02  0.18717855275E+03  0.17140385325E+03 0.  0.
         24    2    3    3    0    0  0.35972191315E+02  0.45605544600E+02  0.25668838934E+01  0.99022908817E+02  0.80156617515E+02 0.  0.
         -6    2    1    2    0  501  0.31263211965E+02 -0.41823351855E+02  0.73162118959E+02  0.19384687289E+03  0.17174787712E+03 0.  0.
        -24    2    5    5    0    0  0.20692981119E+02  0.38756192532E+02  0.24140214141E+02  0.98820403388E+02  0.85161495172E+02 0.  0.
          5    1    3    3  502    0 -0.67235403280E+02 -0.37821927443E+01 -0.56695882748E+02  0.88155643930E+02  0.47000000000E+01 0. -1.
        -13    1    4    4    0    0  0.12368229515E+02  0.61078660400E+02 -0.17101406696E+02  0.64622240511E+02  0.00000000000E+00 0.  1.
         14    1    4    4    0    0  0.23603961800E+02 -0.15473115801E+02  0.19668290589E+02  0.34400668307E+02  0.00000000000E+00 0. -1.
         -5    1    5    5    0  501  0.10570230846E+02 -0.80579544387E+02  0.49021904819E+02  0.95026469501E+02  0.47000000000E+01 0.  1.
         11    1    6    6    0    0 -0.30511292246E+02  0.27497609332E+02  0.21417304436E+02  0.46322331578E+02  0.00000000000E+00 0. -1.
        -12    1    6    6    0    0  0.51204273365E+02  0.11258583200E+02  0.27229097047E+01  0.52498071810E+02  0.00000000000E+00 0.  1.
</event>
<event>
12    1  0.2689284E-002  0.1893044E+03  0.7818608E-02  0.1159090E+00
          1   -1    0    0  502    0  0.00000000000E+00  0.00000000000E+00  0.20453661443E+03  0.20453661443E+03  0.00000000000E+00 0.  1.
         -1   -1    0    0    0  501 -0.00000000000E+00 -0.00000000000E+00 -0.19067242350E+03  0.19067242350E+03  0.00000000000E+00 0. -1.
          6    2    1    2  502    0 -0.35621057910E+02 -0.71760635768E+02 -0.49293275481E+02  0.19675896750E+03  0.17281728985E+03 0.  0.
         24    2    3    3    0    0  0.46557624324E+02 -0.40801839603E+02 -0.10574325882E+02  0.10067031087E+03  0.78678412705E+02 0.  0.
         -6    2    1    2    0  501  0.35621057910E+02  0.71760635768E+02  0.63157466411E+02  0.19845007043E+03  0.17022078685E+03 0.  0.
        -24    2    5    5    0    0  0.88291864608E+02  0.53425394249E+02  0.51796703999E+02  0.14134007233E+03  0.81513136330E+02 0.  0.
          5    1    3    3  502    0 -0.82178682234E+02 -0.30958796164E+02 -0.38718949600E+02  0.96088656624E+02  0.47000000000E+01 0. -1.
        -13    1    4    4    0    0 -0.16118647495E+00 -0.57821220452E+01  0.29365525818E+02  0.29929801587E+02  0.00000000000E+00 0.  1.
         14    1    4    4    0    0  0.46718810799E+02 -0.35019717558E+02 -0.39939851700E+02  0.70740509287E+02  0.00000000000E+00 0. -1.
         -5    1    5    5    0  501 -0.52670806699E+02  0.18335241519E+02  0.11360762412E+02  0.57109998095E+02  0.47000000000E+01 0.  1.
         11    1    6    6    0    0 -0.13493861451E+02  0.44453088384E+01 -0.48010941348E+01  0.14996518676E+02  0.00000000000E+00 0. -1.
        -12    1    6    6    0    0  0.10178572606E+03  0.48980085410E+02  0.56597798134E+02  0.12634355365E+03  0.00000000000E+00 0.  1.
</event>
<event>
12    1  0.2689284E-002  0.1814813E+03  0.7818608E-02  0.1166377E+00
          2   -1    0    0  502    0  0.00000000000E+00  0.00000000000E+00  0.88483101955E+03  0.88483101955E+03  0.00000000000E+00 0.  1.
         -2   -1    0    0    0  501 -0.00000000000E+00 -0.00000000000E+00 -0.37442143149E+02  0.37442143149E+02  0.00000000000E+00 0. -1.
          6    2    1    2  502    0 -0.51873580022E+02  0.27936290752E+02  0.46110215569E+03  0.49587209780E+03  0.17263439620E+03 0.  0.
         24    2    3    3    0    0 -0.26318687747E+02 -0.76085386307E+01  0.94396622525E+02  0.12653278840E+03  0.79682250295E+02 0.  0.
         -6    2    1    2    0  501  0.51873580022E+02 -0.27936290752E+02  0.38628672071E+03  0.42640106490E+03  0.17067258978E+03 0.  0.
        -24    2    5    5    0    0  0.79228982096E+02 -0.68582294280E+02  0.26350732948E+03  0.29412376323E+03  0.78050706040E+02 0.  0.
          5    1    3    3  502    0 -0.25554892275E+02  0.35544829383E+02  0.36670553316E+03  0.36933930940E+03  0.47000000000E+01 0. -1.
        -13    1    4    4    0    0  0.11745630770E+02  0.25191144608E+01  0.85255148123E+02  0.86097305773E+02  0.00000000000E+00 0.  1.
         14    1    4    4    0    0 -0.38064318517E+02 -0.10127653092E+02  0.91414744022E+01  0.40435482630E+02  0.00000000000E+00 0. -1.
         -5    1    5    5    0  501 -0.27355402074E+02  0.40646003528E+02  0.12277939123E+03  0.13227730167E+03  0.47000000000E+01 0.  1.
         11    1    6    6    0    0  0.84294720193E+02 -0.28972171497E+02  0.15953847964E+03  0.18274986474E+03  0.00000000000E+00 0. -1.
        -12    1    6    6    0    0 -0.50657380974E+01 -0.39610122782E+02  0.10396884984E+03  0.11137389849E+03  0.00000000000E+00 0.  1.
</event>
<event>
12    1  0.2689284E-002  0.1760357E+03  0.7818608E-02  0.1171696E+00
          2   -1    0    0  502    0  0.00000000000E+00  0.00000000000E+00  0.28364607246E+04  0.28364607246E+04  0.00000000000E+00 0. -1.
         -2   -1    0    0    0  501 -0.00000000000E+00 -0.00000000000E+00 -0.12539320409E+02  0.12539320409E+02  0.00000000000E+00 0.  1.
          6    2    1    2  502    0 -0.15876966193E+02 -0.35907002378E+02  0.90277973101E+03  0.91983509724E+03  0.17188360162E+03 0.  0.
         24    2    3    3    0    0 -0.45980107212E+02  0.34013573814E+02  0.57217229391E+03  0.58054399281E+03  0.79869269484E+02 0.  0.
         -6    2    1    2    0  501  0.15876966193E+02  0.35907002378E+02  0.19211416732E+04  0.19291649478E+04  0.17132039113E+03 0.  0.
        -24    2    5    5    0    0  0.28888892197E+02 -0.34092275971E+02  0.67899754626E+03  0.68497310918E+03  0.78445147054E+02 0.  0.
          5    1    3    3  502    0  0.30103141019E+02 -0.69920576192E+02  0.33060743711E+03  0.33929110443E+03  0.47000000000E+01 0. -1.
        -13    1    4    4    0    0  0.99625479810E+01  0.66816467475E+01  0.12159683726E+02  0.17080827669E+02  0.00000000000E+00 0.  1.
         14    1    4    4    0    0 -0.55942655193E+02  0.27331927067E+02  0.56001261018E+03  0.56346316514E+03  0.00000000000E+00 0. -1.
         -5    1    5    5    0  501 -0.13011926004E+02  0.69999278349E+02  0.12421441269E+04  0.12441918386E+04  0.47000000000E+01 0.  1.
         11    1    6    6    0    0  0.37246899934E+02 -0.66816841046E+01  0.59538110742E+03  0.59658246667E+03  0.00000000000E+00 0. -1.
        -12    1    6    6    0    0 -0.83580077375E+01 -0.27410591867E+02  0.83616438835E+02  0.88390642509E+02  0.00000000000E+00 0.  1.
</event>
<event>
12    1  0.2689284E-002  0.2153080E+03  0.7818608E-02  0.1137430E+00
          2   -1    0    0  502    0  0.00000000000E+00  0.00000000000E+00  0.18442955640E+03  0.18442955640E+03  0.00000000000E+00 0.  1.
         -2   -1    0    0    0  501 -0.00000000000E+00 -0.00000000000E+00 -0.32844200806E+03  0.32844200806E+03  0.00000000000E+00 0. -1.
          6    2    1    2  502    0  0.12864070708E+03 -0.20199347289E+02  0.52230272364E+02  0.22153851462E+03  0.17144931309E+03 0.  0.
         24    2    3    3    0    0  0.16166264429E+01  0.95299934096E+01  0.35409561552E+02  0.89917934647E+02  0.82085100148E+02 0.  0.
         -6    2    1    2    0  501 -0.12864070708E+03  0.20199347289E+02 -0.19624272402E+03  0.29133304984E+03  0.17148555055E+03 0.  0.
        -24    2    5    5    0    0 -0.13311503308E+02 -0.30120243602E+02 -0.10375800577E+03  0.13510117223E+03  0.80013609981E+02 0.  0.
          5    1    3    3  502    0  0.12702408064E+03 -0.29729340698E+02  0.16820710812E+02  0.13162057997E+03  0.47000000000E+01 0. -1.
        -13    1    4    4    0    0  0.19792112711E+02 -0.31561545038E+02  0.20818954531E+02  0.42676547640E+02  0.00000000000E+00 0.  1.
         14    1    4    4    0    0 -0.18175486268E+02  0.41091538447E+02  0.14590607021E+02  0.47241387006E+02  0.00000000000E+00 0. -1.
         -5    1    5    5    0  501 -0.11532920377E+03  0.50319590891E+02 -0.92484718246E+02  0.15623187760E+03  0.47000000000E+01 0.  1.
         13    1    6    6    0    0 -0.45072335297E+02 -0.46655408890E+01 -0.61936771991E+02  0.76742728682E+02  0.00000000000E+00 0. -1.
        -14    1    6    6    0    0  0.31760831989E+02 -0.25454702713E+02 -0.41821233781E+02  0.58358443552E+02  0.00000000000E+00 0.  1.
</event>
<event>
12    1  0.2689284E-002  0.2083335E+03  0.7818608E-02  0.1142893E+00
         -2   -1    0    0    0  501 -0.00000000000E+00  0.00000000000E+00  0.17959344822E+02  0.17959344822E+02  0.00000000000E+00 0.  1.
          2   -1    0    0  502    0  0.00000000000E+00 -0.00000000000E+00 -0.24213480195E+04  0.24213480195E+04  0.00000000000E+00 0. -1.
          6    2    1    2  502    0 -0.75191020030E+02 -0.83055096484E+02 -0.11306310691E+04  0.11489432792E+04  0.17085726763E+03 0.  0.
         24    2    3    3    0    0 -0.30259898650E+02  0.11834117699E+02 -0.31865379828E+03  0.33019304443E+03  0.80196606065E+02 0.  0.
         -6    2    1    2    0  501  0.75191020030E+02  0.83055096484E+02 -0.12727576056E+04  0.12903640851E+04  0.18048742621E+03 0.  0.
        -24    2    5    5    0    0  0.82983173744E+02  0.29415178401E+02 -0.11535800114E+04  0.11593551258E+04  0.74873260197E+02 0.  0.
          5    1    3    3  502    0 -0.44931121380E+02 -0.94889214184E+02 -0.81197727080E+03  0.81875023477E+03  0.47000000000E+01 0. -1.
        -11    1    4    4    0    0  0.10068437296E+02  0.34076664216E+02 -0.19563620298E+03  0.19883690903E+03  0.00000000000E+00 0.  1.
         12    1    4    4    0    0 -0.40328335946E+02 -0.22242546516E+02 -0.12301759530E+03  0.13135613541E+03  0.00000000000E+00 0. -1.
         -5    1    5    5    0  501 -0.77921537144E+01  0.53639918084E+02 -0.11917759413E+03  0.13100895929E+03  0.47000000000E+01 0.  1.
         13    1    6    6    0    0  0.36128765832E+02  0.45545983421E+02 -0.40682609607E+03  0.41095887479E+03  0.00000000000E+00 0. -1.
        -14    1    6    6    0    0  0.46854407913E+02 -0.16130805020E+02 -0.74675391536E+03  0.74839625100E+03  0.00000000000E+00 0.  1.
</event>
<event>
12    1  0.2689284E-002  0.2246852E+03  0.7818608E-02  0.1130437E+00
         -2   -1    0    0    0  501 -0.00000000000E+00  0.00000000000E+00  0.26859036555E+02  0.26859036555E+02  0.00000000000E+00 0. -1.
          2   -1    0    0  502    0  0.00000000000E+00 -0.00000000000E+00 -0.18796974461E+04  0.18796974461E+04  0.00000000000E+00 0.  1.
          6    2    1    2  502    0 -0.11149735687E+03 -0.90881063773E+02 -0.93293346074E+03  0.95953972037E+03  0.17222254340E+03 0.  0.
         24    2    3    3    0    0  0.12842173149E+02 -0.48094915898E+02 -0.37035577532E+03  0.38177963581E+03  0.78193654867E+02 0.  0.
         -6    2    1    2    0  501  0.11149735687E+03  0.90881063773E+02 -0.91990494883E+03  0.94701676231E+03  0.17298729686E+03 0.  0.
        -24    2    5    5    0    0  0.10726133130E+02  0.95304883716E+02 -0.54107489933E+03  0.55495974335E+03  0.77589943014E+02 0.  0.
          5    1    3    3  502    0 -0.12433953002E+03 -0.42786147875E+02 -0.56257768542E+03  0.57776008456E+03  0.47000000000E+01 0. -1.
        -11    1    4    4    0    0  0.41414865131E+01 -0.63125006751E+02 -0.34675178467E+03  0.35247513183E+03  0.00000000000E+00 0.  1.
         12    1    4    4    0    0  0.87006866356E+01  0.15030090853E+02 -0.23603990653E+02  0.29304503984E+02  0.00000000000E+00 0. -1.
         -5    1    5    5    0  501  0.10077122374E+03 -0.44238199430E+01 -0.37883004950E+03  0.39205701897E+03  0.47000000000E+01 0.  1.
         11    1    6    6    0    0  0.18866462986E+02 -0.68980457479E+01 -0.68148785426E+02  0.71047754474E+02  0.00000000000E+00 0. -1.
        -12    1    6    6    0    0 -0.81403298562E+01  0.10220292946E+03 -0.47292611391E+03  0.48391198887E+03  0.00000000000E+00 0.  1.
</event>
<event>
12    1  0.2689284E-002  0.1963192E+03  0.7818608E-02  0.1152882E+00
         -2   -1    0    0    0  501 -0.00000000000E+00  0.00000000000E+00  0.18885160283E+03  0.18885160283E+03  0.00000000000E+00 0.  1.
          2   -1    0    0  502    0  0.00000000000E+00 -0.00000000000E+00 -0.20672530069E+03  0.20672530069E+03  0.00000000000E+00 0. -1.
          6    2    1    2  502    0 -0.17348560205E+02 -0.92473798495E+02 -0.31297776933E+02  0.19871295949E+03  0.17220602045E+03 0.  0.
         24    2    3    3    0    0 -0.49891073408E+02 -0.45183105526E+02  0.32624570848E+02  0.11266889314E+03  0.84257252677E+02 0.  0.
         -6    2    1    2    0  501  0.17348560205E+02  0.92473798495E+02  0.13424079069E+02  0.19686394403E+03  0.17240310500E+03 0.  0.
        -24    2    5    5    0    0 -0.30840158342E+02  0.58661806601E+02 -0.45299262171E+02  0.11358174787E+03  0.80352146061E+02 0.  0.
          5    1    3    3  502    0  0.32542513203E+02 -0.47290692969E+02 -0.63922347780E+02  0.86044066342E+02  0.47000000000E+01 0. -1.
        -11    1    4    4    0    0  0.11790975976E+02  0.10554239554E+02  0.24462570368E+02  0.29134797683E+02  0.00000000000E+00 0.  1.
         12    1    4    4    0    0 -0.61682049383E+02 -0.55737345080E+02  0.81620004793E+01  0.83534095461E+02  0.00000000000E+00 0. -1.
         -5    1    5    5    0  501  0.48188718547E+02  0.33811991894E+02  0.58723341240E+02  0.83282196161E+02  0.47000000000E+01 0.  1.
         13    1    6    6    0    0 -0.37291674752E+02 -0.65290585526E+01 -0.23410262083E+02  0.44512222840E+02  0.00000000000E+00 0. -1.
        -14    1    6    6    0    0  0.64515164107E+01  0.65190865153E+02 -0.21889000088E+02  0.69069525033E+02  0.00000000000E+00 0.  1.
</event>
<event>
12    1  0.2689284E-002  0.2224225E+03  0.7818608E-02  0.1132090E+00
          1   -1    0    0  502    0  0.00000000000E+00  0.00000000000E+00  0.50525457178E+03  0.50525457178E+03  0.00000000000E+00 0.  1.
         -1   -1    0    0    0  501 -0.00000000000E+00 -0.00000000000E+00 -0.12920786145E+03  0.12920786145E+03  0.00000000000E+00 0. -1.
          6    2    1    2  502    0 -0.11133658327E+03 -0.74336098395E+02  0.34693237157E+03  0.41460883576E+03  0.18334864589E+03 0.  0.
         24    2    3    3    0    0 -0.10847304710E+02 -0.80194470866E+02  0.11207217818E+03  0.15904315717E+03  0.78649447199E+02 0.  0.
         -6    2    1    2    0  501  0.11133658327E+03  0.74336098395E+02  0.29114338761E+02  0.21985359747E+03  0.17194844954E+03 0.  0.
        -24    2    5    5    0    0  0.10735537197E+03  0.28041122503E+01 -0.16724949919E+02  0.13467140759E+03  0.79521224435E+02 0.  0.
          5    1    3    3  502    0 -0.10048927856E+03  0.58583724705E+01  0.23486019339E+03  0.25556567859E+03  0.47000000000E+01 0. -1.
        -13    1    4    4    0    0 -0.12053411357E+02 -0.92855346580E+02  0.75370426300E+02  0.12020025489E+03  0.00000000000E+00 0.  1.
         14    1    4    4    0    0  0.12061066472E+01  0.12660875714E+02  0.36701751878E+02  0.38842902287E+02  0.00000000000E+00 0. -1.
         -5    1    5    5    0  501  0.39812112956E+01  0.71531986145E+02  0.45839288680E+02  0.85182189875E+02  0.47000000000E+01 0.  1.
         11    1    6    6    0    0  0.34634415015E+01  0.15930724004E+02 -0.24760470346E+02  0.29645645314E+02  0.00000000000E+00 0. -1.
        -12    1    6    6    0    0  0.10389193047E+03 -0.13126611754E+02  0.80355204268E+01  0.10502576228E+03  0.00000000000E+00 0.  1.
</event>
<event>
12    1  0.2689284E-002  0.2248279E+03  0.7818608E-02  0.1130334E+00
         -1   -1    0    0    0  501 -0.00000000000E+00  0.00000000000E+00  0.24531649477E+03  0.24531649477E+03  0.00000000000E+00 0. -1.
          1   -1    0    0  502    0  0.00000000000E+00 -0.00000000000E+00 -0.23770807150E+03  0.23770807150E+03  0.00000000000E+00 0.  1.
          6    2    1    2  502    0  0.10566242578E+03 -0.98959280060E+02 -0.84316825871E+02  0.24085559459E+03  0.17304508947E+03 0.  0.
         24    2    3    3    0    0  0.51505027155E+02 -0.11093526550E+03 -0.10689140666E+03  0.18078771839E+03  0.79366399385E+02 0.  0.
         -6    2    1    2    0  501 -0.10566242578E+03  0.98959280060E+02  0.91925249144E+02  0.24216897168E+03  0.17099143862E+03 0.  0.
        -24    2    5    5    0    0 -0.62408565671E+02  0.87694298270E+02  0.12753284845E+03  0.18482974115E+03  0.79449900952E+02 0.  0.
          5    1    3    3  502    0  0.54157398623E+02  0.11975985435E+02  0.22574580791E+02  0.60067876196E+02  0.47000000000E+01 0. -1.
        -13    1    4    4    0    0  0.21291313624E+02  0.82602266780E+01 -0.16705203627E+02  0.28295144616E+02  0.00000000000E+00 0.  1.
         14    1    4    4    0    0  0.30213713531E+02 -0.11919549217E+03 -0.90186203036E+02  0.15249257378E+03  0.00000000000E+00 0. -1.
         -5    1    5    5    0  501 -0.43253860107E+02  0.11264981790E+02 -0.35607599309E+02  0.57339230527E+02  0.47000000000E+01 0.  1.
         13    1    6    6    0    0 -0.57403136413E+02  0.17376074266E+02  0.79241526754E+02  0.99379412301E+02  0.00000000000E+00 0. -1.
        -14    1    6    6    0    0 -0.50054292584E+01  0.70318224005E+02  0.48291321699E+02  0.85450328851E+02  0.00000000000E+00 0.  1.
</event>
<event>
12    1  0.2689284E-002  0.1766923E+03  0.7818608E-02  0.1171043E+00
         -2   -1    0    0    0  501 -0.00000000000E+00  0.00000000000E+00  0.39730413927E+02  0.39730413927E+02  0.00000000000E+00 0.  1.
          2   -1    0    0  502    0  0.00000000000E+00 -0.00000000000E+00 -0.78922793113E+03  0.78922793113E+03  0.00000000000E+00 0. -1.
          6    2    1    2  502    0  0.58349621043E+02 -0.42941393417E+02 -0.36646350277E+03  0.40263551664E+03  0.15023720861E+03 0.  0.
         24    2    3    3    0    0  0.78830588931E+02 -0.39170205599E+02 -0.18559613855E+03  0.22051252154E+03  0.80195253937E+02 0.  0.
         -6    2    1    2    0  501 -0.58349621043E+02  0.42941393417E+02 -0.38303401443E+03  0.42632282842E+03  0.17259042927E+03 0.  0.
        -24    2    5    5    0    0 -0.29326448008E+02  0.93045874808E+02 -0.21724495121E+03  0.25065010114E+03  0.78182664317E+02 0.  0.
          5    1    3    3  502    0 -0.20480967888E+02 -0.37711878184E+01 -0.18086736422E+03  0.18212299510E+03  0.47000000000E+01 0. -1.
        -13    1    4    4    0    0  0.35393025676E+02 -0.41168613343E+02 -0.37038979767E+02  0.65722195743E+02  0.00000000000E+00 0.  1.
         14    1    4    4    0    0  0.43437563254E+02  0.19984077439E+01 -0.14855715879E+03  0.15479032580E+03  0.00000000000E+00 0. -1.
         -5    1    5    5    0  501 -0.29023173035E+02 -0.50104481391E+02 -0.16578906322E+03  0.17567272728E+03  0.47000000000E+01 0.  1.
         11    1    6    6    0    0  0.26935961576E+02  0.28644595367E+02 -0.62220794300E+02  0.73603574051E+02  0.00000000000E+00 0. -1.
        -12    1    6    6    0    0 -0.56262409584E+02  0.64401279441E+02 -0.15502415691E+03  0.17704652708E+03  0.00000000000E+00 0.  1.
</event>
<event>
12    1  0.2689284E-002  0.2179968E+03  0.7818608E-02  0.1135385E+00
          4   -1    0    0  502    0  0.00000000000E+00  0.00000000000E+00  0.23778940866E+03  0.23778940866E+03  0.00000000000E+00 0. -1.
         -4   -1    0    0    0  501 -0.00000000000E+00 -0.00000000000E+00 -0.20830098872E+03  0.20830098872E+03  0.00000000000E+00 0.  1.
          6    2    1    2  502    0  0.13375410217E+03 -0.11154887667E+02 -0.30173532482E+02  0.22013627804E+03  0.17185734631E+03 0.  0.
         24    2    3    3    0    0  0.17171675921E+02 -0.24070682494E+02  0.26944053076E+02  0.89588246859E+02  0.80161136279E+02 0.  0.
         -6    2    1    2    0  501 -0.13375410217E+03  0.11154887667E+02  0.59661952416E+02  0.22595411934E+03  0.17170068175E+03 0.  0.
        -24    2    5    5    0    0 -0.77962119139E+02 -0.40313058191E+02  0.85304983947E+02  0.14569609863E+03  0.79039092785E+02 0.  0.
          5    1    3    3  502    0  0.11658242625E+03  0.12915794827E+02 -0.57117585557E+02  0.13054803118E+03  0.47000000000E+01 0. -1.
        -13    1    4    4    0    0  0.93178086601E+01 -0.50333221852E+02  0.52789080945E-01  0.51188451499E+02  0.00000000000E+00 0.  1.
         14    1    4    4    0    0  0.78538672604E+01  0.26262539358E+02  0.26891263995E+02  0.38399795360E+02  0.00000000000E+00 0. -1.
         -5    1    5    5    0  501 -0.55791983032E+02  0.51467945859E+02 -0.25643031531E+02  0.80258020706E+02  0.47000000000E+01 0.  1.
         13    1    6    6    0    0 -0.66080069443E+02  0.44280210199E+01  0.27679884436E+02  0.71779934175E+02  0.00000000000E+00 0. -1.
        -14    1    6    6    0    0 -0.11882049696E+02 -0.44741079211E+02  0.57625099512E+02  0.73916164455E+02  0.00000000000E+00 0.  1.
</event>
<event>
12    1  0.2689284E-002  0.1854787E+03  0.7818608E-02  0.1162604E+00
          2   -1    0    0  502    0  0.00000000000E+00  0.00000000000E+00  0.15955004363E+03  0.15955004363E+03  0.00000000000E+00 0. -1.
         -2   -1    0    0    0  501 -0.00000000000E+00 -0.00000000000E+00 -0.26089013255E+03  0.26089013255E+03  0.00000000000E+00 0.  1.
          6    2    1    2  502    0 -0.67763873816E+02 -0.24109464590E+02  0.36690539595E+02  0.18995206497E+03  0.17193714670E+03 0.  0.
         24    2    3    3    0    0 -0.82349526861E+02  0.25999859387E+02 -0.12753254575E+02  0.11790718725E+03  0.79259207922E+02 0.  0.
         -6    2    1    2    0  501  0.67763873816E+02  0.24109464590E+02 -0.13803062852E+03  0.23048811121E+03  0.16999737093E+03 0.  0.
        -24    2    5    5    0    0  0.92469130515E+02 -0.25516431093E+02 -0.10985219868E+03  0.16812471538E+03  0.83646793206E+02 0.  0.
          5    1    3    3  502    0  0.14585653045E+02 -0.50109323977E+02  0.49443794171E+02  0.72044877723E+02  0.47000000000E+01 0. -1.
        -11    1    4    4    0    0  0.11646828918E+02 -0.56920019168E+01 -0.13490302111E+02  0.18709242655E+02  0.00000000000E+00 0.  1.
         12    1    4    4    0    0 -0.93996355779E+02  0.31691861304E+02  0.73704753612E+00  0.99197944594E+02  0.00000000000E+00 0. -1.
         -5    1    5    5    0  501 -0.24705256699E+02  0.49625895683E+02 -0.28178429840E+02  0.62363395827E+02  0.47000000000E+01 0.  1.
         13    1    6    6    0    0  0.57079708793E+02  0.41181800388E+01 -0.99665835842E+01  0.58089459897E+02  0.00000000000E+00 0. -1.
        -14    1    6    6    0    0  0.35389421722E+02 -0.29634611132E+02 -0.99885615097E+02  0.11003525549E+03  0.00000000000E+00 0.  1.
</event>
<event>
12    1  0.2689284E-002  0.1917722E+03  0.7818608E-02  0.1156873E+00
          2   -1    0    0  502    0  0.00000000000E+00  0.00000000000E+00  0.88059684084E+02  0.88059684084E+02  0.00000000000E+00 0.  1.
         -2   -1    0    0    0  501 -0.00000000000E+00 -0.00000000000E+00 -0.42300372731E+03  0.42300372731E+03  0.00000000000E+00 0. -1.
          6    2    1    2  502    0 -0.78336489828E+02  0.34502124381E+02 -0.19689969569E+03  0.27538454443E+03  0.17245334129E+03 0.  0.
         24    2    3    3    0    0 -0.11310474052E+03  0.21699561972E+02 -0.19322140284E+03  0.23785646562E+03  0.77315162832E+02 0.  0.
         -6    2    1    2    0  501  0.78336489828E+02 -0.34502124381E+02 -0.13804434753E+03  0.23567886696E+03  0.17076675386E+03 0.  0.
        -24    2    5    5    0    0  0.96203033299E+02 -0.67827494560E+02 -0.13645447958E+03  0.19754212152E+03  0.80916451604E+02 0.  0.
          5    1    3    3  502    0  0.34768250697E+02  0.12802562409E+02 -0.36782928533E+01  0.37528078808E+02  0.47000000000E+01 0. -1.
        -13    1    4    4    0    0 -0.10469695059E+03 -0.10149121325E+02 -0.13740282941E+03  0.17304332885E+03  0.00000000000E+00 0.  1.
         14    1    4    4    0    0 -0.84077899301E+01  0.31848683297E+02 -0.55818573427E+02  0.64813136776E+02  0.00000000000E+00 0. -1.
         -5    1    5    5    0  501 -0.17866543472E+02  0.33325370179E+02 -0.15898679464E+01  0.38136745447E+02  0.47000000000E+01 0.  1.
         13    1    6    6    0    0  0.91514073484E+02 -0.18606865410E+02 -0.90288454135E+02  0.12989628954E+03  0.00000000000E+00 0. -1.
        -14    1    6    6    0    0  0.46889598157E+01 -0.49220629150E+02 -0.46166025449E+02  0.67645831977E+02  0.00000000000E+00 0.  1.
</event>
<event>
12    1  0.2689284E-002  0.2247478E+03  0.7818608E-02  0.1130392E+00
          2   -1    0    0  502    0  0.00000000000E+00  0.00000000000E+00  0.20538396225E+04  0.20538396225E+04  0.00000000000E+00 0. -1.
         -2   -1    0    0    0  501 -0.00000000000E+00 -0.00000000000E+00 -0.42822699432E+02  0.42822699432E+02  0.00000000000E+00 0.  1.
          6    2    1    2  502    0 -0.37512389108E+02  0.13740760633E+03  0.31754793553E+03  0.38813786582E+03  0.17183213294E+03 0.  0.
         24    2    3    3    0    0  0.82311243537E+01  0.14991435844E+03  0.27839086935E+03  0.32645923335E+03  0.80821337680E+02 0.  0.
         -6    2    1    2    0  501  0.37512389108E+02 -0.13740760633E+03  0.16934689876E+04  0.17085244561E+04  0.17587090653E+03 0.  0.
        -24    2    5    5    0    0 -0.68361055801E+01 -0.95828247545E+02  0.57458349405E+03  0.58797884365E+03  0.79643854649E+02 0.  0.
          5    1    3    3  502    0 -0.45743513462E+02 -0.12506752107E+02  0.39157066175E+02  0.61678632471E+02  0.47000000000E+01 0. -1.
        -11    1    4    4    0    0 -0.84033109385E+01  0.63959582070E+02  0.49243371574E+02  0.81156351675E+02  0.00000000000E+00 0.  1.
         12    1    4    4    0    0  0.16634435292E+02  0.85954776368E+02  0.22914749778E+03  0.24530288167E+03  0.00000000000E+00 0. -1.
         -5    1    5    5    0  501  0.44348494688E+02 -0.41579358786E+02  0.11188854935E+04  0.11205456125E+04  0.47000000000E+01 0.  1.
         11    1    6    6    0    0 -0.25180881269E+02 -0.17850859700E+02  0.31004505676E+03  0.31157770651E+03  0.00000000000E+00 0. -1.
        -12    1    6    6    0    0  0.18344775689E+02 -0.77977387845E+02  0.26453843729E+03  0.27640113714E+03  0.00000000000E+00 0.  1.
</event>
<event>
12    1  0.2689284E-002  0.1766316E+03  0.7818608E-02  0.1171103E+00
          2   -1    0    0  502    0  0.00000000000E+00  0.00000000000E+00  0.11674510662E+04  0.11674510662E+04  0.00000000000E+00 0. -1.
         -2   -1    0    0    0  501 -0.00000000000E+00 -0.00000000000E+00 -0.31184797558E+02  0.31184797558E+02  0.00000000000E+00 0.  1.
          6    2    1    2  502    0 -0.19831896628E+02 -0.26800103096E+02  0.79590942933E+03  0.81536044443E+03  0.17386570967E+03 0.  0.
         24    2    3    3    0    0 -0.35303733421E+01 -0.66178457448E+02  0.29046965723E+03  0.30810523483E+03  0.78512178610E+02 0.  0.
         -6    2    1    2    0  501  0.19831896628E+02  0.26800103096E+02  0.34035683931E+03  0.38327541932E+03  0.17304831505E+03 0.  0.
        -24    2    5    5    0    0 -0.48518302546E+00 -0.10089976356E+02  0.62327089333E+02  0.10203478648E+03  0.80152283576E+02 0.  0.
          5    1    3    3  502    0 -0.16301523286E+02  0.39378354351E+02  0.50543977209E+03  0.50725520960E+03  0.47000000000E+01 0. -1.
        -13    1    4    4    0    0 -0.17013874307E+02 -0.79709812727E+02  0.25643505753E+03  0.26907631797E+03  0.00000000000E+00 0.  1.
         14    1    4    4    0    0  0.13483500965E+02  0.13531355280E+02  0.34034599703E+02  0.39028916856E+02  0.00000000000E+00 0. -1.
         -5    1    5    5    0  501  0.20317079654E+02  0.36890079453E+02  0.27802974998E+03  0.28124063284E+03  0.47000000000E+01 0.  1.
         13    1    6    6    0    0  0.63069015964E+01 -0.37763568226E+02  0.62783057368E+02  0.73536224987E+02  0.00000000000E+00 0. -1.
        -14    1    6    6    0    0 -0.67920846219E+01  0.27673591870E+02 -0.45596803528E+00  0.28498561496E+02  0.00000000000E+00 0.  1.
</event>
<event>
12    1  0.2689284E-002  0.2060541E+03  0.7818608E-02  0.1144729E+00
          2   -1    0    0  502    0  0.00000000000E+00  0.00000000000E+00  0.63604671323E+03  0.63604671323E+03  0.00000000000E+00 0. -1.
         -2   -1    0    0    0  501 -0.00000000000E+00 -0.00000000000E+00 -0.81938727262E+02  0.81938727262E+02  0.00000000000E+00 0.  1.
          6    2    1    2  502    0 -0.33799595315E+02  0.10788041179E+03  0.12242392276E+03  0.23961135947E+03  0.17217836923E+03 0.  0.
         24    2    3    3    0    0  0.22851599271E+02  0.87616549727E+01  0.86823717421E+02  0.11993115885E+03  0.79032668993E+02 0.  0.
         -6    2    1    2    0  501  0.33799595315E+02 -0.10788041179E+03  0.43168406321E+03  0.47837408102E+03  0.17236599164E+03 0.  0.
        -24    2    5    5    0    0 -0.29996353745E+02 -0.36164907038E+01  0.17322704509E+03  0.19243176416E+03  0.78163383142E+02 0.  0.
          5    1    3    3  502    0 -0.56651194586E+02  0.99118756820E+02  0.35600205339E+02  0.11968020063E+03  0.47000000000E+01 0. -1.
        -13    1    4    4    0    0  0.31548361660E+01  0.45993536707E+01 -0.15069338763E+02  0.16068354495E+02  0.00000000000E+00 0.  1.
         14    1    4    4    0    0  0.19696763105E+02  0.41623013020E+01  0.10189305618E+03  0.10386280435E+03  0.00000000000E+00 0. -1.
         -5    1    5    5    0  501  0.63795949060E+02 -0.10426392109E+03  0.25845701812E+03  0.28594231687E+03  0.47000000000E+01 0.  1.
         11    1    6    6    0    0 -0.13405530039E+02 -0.25279656945E+02  0.15919995903E+03  0.16175103167E+03  0.00000000000E+00 0. -1.
        -12    1    6    6    0    0 -0.16590823706E+02  0.21663166241E+02  0.14027086058E+02  0.30680732490E+02  0.00000000000E+00 0.  1.
</event>
<event>
12    1  0.2689284E-002  0.1793845E+03  0.7818608E-02  0.1168400E+00
         -1   -1    0    0    0  501 -0.00000000000E+00  0.00000000000E+00  0.22938408704E+02  0.22938408704E+02  0.00000000000E+00 0.  1.
          1   -1    0    0  502    0  0.00000000000E+00 -0.00000000000E+00 -0.14462685104E+04  0.14462685104E+04  0.00000000000E+00 0. -1.
          6    2    1    2  502    0  0.11821578917E+02 -0.55212689635E+02 -0.58152726843E+03  0.60834712100E+03  0.16948175381E+03 0.  0.
         24    2    3    3    0    0  0.11332587326E+01 -0.53898290734E+02 -0.16024961476E+03  0.18690564308E+03  0.79671013321E+02 0.  0.
         -6    2    1    2    0  501 -0.11821578917E+02  0.55212689635E+02 -0.84180283323E+03  0.86085979807E+03  0.17105376661E+03 0.  0.
        -24    2    5    5    0    0  0.10808491414E+02 -0.62566832169E+01 -0.20599368425E+03  0.22166814621E+03  0.80916002871E+02 0.  0.
          5    1    3    3  502    0  0.10688320184E+02 -0.13143989016E+01 -0.42127765366E+03  0.42144147792E+03  0.47000000000E+01 0. -1.
        -13    1    4    4    0    0  0.34175237120E+02 -0.33557019193E+02 -0.12726351808E+03  0.13597802544E+03  0.00000000000E+00 0.  1.
         14    1    4    4    0    0 -0.33041978388E+02 -0.20341271541E+02 -0.32986096685E+02  0.50927617637E+02  0.00000000000E+00 0. -1.
         -5    1    5    5    0  501 -0.22630070330E+02  0.61469372852E+02 -0.63580914898E+03  0.63919165186E+03  0.47000000000E+01 0.  1.
         13    1    6    6    0    0  0.34472297347E+02  0.21665854178E+02 -0.14430115073E+03  0.14993522142E+03  0.00000000000E+00 0. -1.
        -14    1    6    6    0    0 -0.23663805934E+02 -0.27922537395E+02 -0.61692533525E+02  0.71732924788E+02  0.00000000000E+00 0.  1.
</event>
<event>
12    1  0.2689284E-002  0.2080361E+03  0.7818608E-02  0.1143131E+00
          2   -1    0    0  502    0  0.00000000000E+00  0.00000000000E+00  0.20896008206E+03  0.20896008206E+03  0.00000000000E+00 0. -1.
         -2   -1    0    0    0  501 -0.00000000000E+00 -0.00000000000E+00 -0.21041269878E+03  0.21041269878E+03  0.00000000000E+00 0.  1.
          6    2    1    2  502    0  0.82768980934E+02  0.85098133234E+02 -0.26923347916E+02  0.20828134680E+03  0.16900845031E+03 0.  0.
         24    2    3    3    0    0  0.46984796315E+02  0.12078177450E+03 -0.42827887740E+02  0.15509418190E+03  0.73648958961E+02 0.  0.
         -6    2    1    2    0  501 -0.82768980934E+02 -0.85098133234E+02  0.25470731193E+02  0.21109143405E+03  0.17268016359E+03 0.  0.
        -24    2    5    5    0    0 -0.63223006155E+02 -0.86830551224E+02  0.78319731411E+02  0.15452153723E+03  0.78779642079E+02 0.  0.
          5    1    3    3  502    0  0.35784184619E+02 -0.35683641262E+02  0.15904539824E+02  0.53187164895E+02  0.47000000000E+01 0. -1.
        -13    1    4    4    0    0 -0.84124581670E+01  0.70537839117E+02 -0.48176757937E+01  0.71200886228E+02  0.00000000000E+00 0.  1.
         14    1    4    4    0    0  0.55397254482E+02  0.50243935379E+02 -0.38010211946E+02  0.83893295672E+02  0.00000000000E+00 0. -1.
         -5    1    5    5    0  501 -0.19545974779E+02  0.17324179900E+01 -0.52849000218E+02  0.56569896819E+02  0.47000000000E+01 0.  1.
         11    1    6    6    0    0  0.14797248900E+02 -0.38227310899E+02  0.28931980531E+02  0.50173153888E+02  0.00000000000E+00 0. -1.
        -12    1    6    6    0    0 -0.78020255055E+02 -0.48603240324E+02  0.49387750879E+02  0.10434838334E+03  0.00000000000E+00 0.  1.
</event>
<event>
12    1  0.2689284E-002  0.2019538E+03  0.7818608E-02  0.1148101E+00
         -2   -1    0    0    0  501 -0.00000000000E+00  0.00000000000E+00  0.15633237583E+03  0.15633237583E+03  0.00000000000E+00 0.  1.
          2   -1    0    0  502    0  0.00000000000E+00 -0.00000000000E+00 -0.34621312534E+03  0.34621312534E+03  0.00000000000E+00 0. -1.
          6    2    1    2  502    0  0.10283831498E+03 -0.21076346048E+02 -0.21958113476E+03  0.29813934161E+03  0.17219541482E+03 0.  0.
         24    2    3    3    0    0  0.39836877236E+02  0.33755124554E+02 -0.18337091525E+03  0.20698594715E+03  0.80572355898E+02 0.  0.
         -6    2    1    2    0  501 -0.10283831498E+03  0.21076346048E+02  0.29700385243E+02  0.20440615956E+03  0.17285784273E+03 0.  0.
        -24    2    5    5    0    0 -0.87863583536E+02 -0.49915822481E+02  0.26508268969E+02  0.13162971983E+03  0.80075565389E+02 0.  0.
          5    1    3    3  502    0  0.63001437744E+02 -0.54831470602E+02 -0.36210219507E+02  0.91153394467E+02  0.47000000000E+01 0. -1.
        -11    1    4    4    0    0  0.46275698074E+02  0.38698307100E+02 -0.66309630625E+02  0.89643551460E+02  0.00000000000E+00 0.  1.
         12    1    4    4    0    0 -0.64388208387E+01 -0.49431825464E+01 -0.11706128462E+03  0.11734239569E+03  0.00000000000E+00 0. -1.
         -5    1    5    5    0  501 -0.14974731444E+02  0.70992168529E+02  0.31921162738E+01  0.72776439735E+02  0.47000000000E+01 0.  1.
         13    1    6    6    0    0 -0.64625107597E+02 -0.50556060052E+02  0.51991194450E+02  0.97136007949E+02  0.00000000000E+00 0. -1.
        -14    1    6    6    0    0 -0.23238475938E+02  0.64023757118E+00 -0.25482925480E+02  0.34493711878E+02  0.00000000000E+00 0.  1.
</event>
<event>
12    1  0.2689284E-002  0.2391557E+03  0.7818608E-02  0.1120357E+00
          2   -1    0    0  502    0  0.00000000000E+00  0.00000000000E+00  0.63337386709E+03  0.63337386709E+03  0.00000000000E+00 0.  1.
         -2   -1    0    0    0  501 -0.00000000000E+00 -0.00000000000E+00 -0.91126184746E+02  0.91126184746E+02  0.00000000000E+00 0. -1.
          6    2    1    2  502    0  0.85069732572E+02 -0.14174605968E+03  0.23509560872E+03  0.33430451426E+03  0.17076521362E+03 0.  0.
         24    2    3    3    0    0  0.48573086754E+02 -0.10437097002E+03  0.24414616712E+03  0.28107947231E+03  0.78394353719E+02 0.  0.
         -6    2    1    2    0  501 -0.85069732572E+02  0.14174605968E+03  0.30715207362E+03  0.39019553757E+03  0.17487525947E+03 0.  0.
        -24    2    5    5    0    0 -0.73080163485E+02  0.80161441935E+02  0.29736838926E+03  0.32652273812E+03  0.80140953996E+02 0.  0.
          5    1    3    3  502    0  0.36496645818E+02 -0.37375089667E+02 -0.90505584017E+01  0.53225041954E+02  0.47000000000E+01 0. -1.
        -13    1    4    4    0    0  0.34023032850E+02 -0.23525024190E+01  0.41326072138E+02  0.53581202583E+02  0.00000000000E+00 0.  1.
         14    1    4    4    0    0  0.14550053904E+02 -0.10201846760E+03  0.20282009498E+03  0.22749826973E+03  0.00000000000E+00 0. -1.
         -5    1    5    5    0  501 -0.11989569087E+02  0.61584617750E+02  0.97836843582E+01  0.63672799451E+02  0.47000000000E+01 0.  1.
         11    1    6    6    0    0 -0.14520094985E+02 -0.57424959202E+01  0.11936598317E+03  0.12038291971E+03  0.00000000000E+00 0. -1.
        -12    1    6    6    0    0 -0.58560068500E+02  0.85903937855E+02  0.17800240609E+03  0.20613981841E+03  0.00000000000E+00 0.  1.
</event>
<event>
12    1  0.2689284E-002  0.2483768E+03  0.7818608E-02  0.1114335E+00
          1   -1    0    0  502    0  0.00000000000E+00  0.00000000000E+00  0.42116075712E+03  0.42116075712E+03  0.00000000000E+00 0.  1.
         -1   -1    0    0    0  501 -0.00000000000E+00 -0.00000000000E+00 -0.15914168176E+03  0.15914168176E+03  0.00000000000E+00 0. -1.
          6    2    1    2  502    0  0.11111089565E+03  0.14223070831E+03  0.21257922935E+03  0.32649730592E+03  0.16980976564E+03 0.  0.
         24    2    3    3    0    0  0.36801750120E+02  0.93427609735E+02  0.19440974296E+03  0.23563580816E+03  0.87441402421E+02 0.  0.
         -6    2    1    2    0  501 -0.11111089565E+03 -0.14223070831E+03  0.49439846016E+02  0.25380513296E+03  0.17145711307E+03 0.  0.
        -24    2    5    5    0    0 -0.10973010244E+03 -0.12299414802E+03  0.93950554803E+02  0.20506864725E+03  0.77834359444E+02 0.  0.
          5    1    3    3  502    0  0.74309145529E+02  0.48803098578E+02  0.18169486388E+02  0.90861497762E+02  0.47000000000E+01 0. -1.
        -11    1    4    4    0    0  0.45874524017E+02  0.10625049128E+02  0.94299048481E+02  0.10540243910E+03  0.00000000000E+00 0.  1.
         12    1    4    4    0    0 -0.90727738972E+01  0.82802560607E+02  0.10011069448E+03  0.13023336907E+03  0.00000000000E+00 0. -1.
         -5    1    5    5    0  501 -0.13807932068E+01 -0.19236560295E+02 -0.44510708787E+02  0.48736485702E+02  0.47000000000E+01 0.  1.
         11    1    6    6    0    0 -0.36501424842E+02 -0.29917671741E+02 -0.91192057334E+01  0.48068503317E+02  0.00000000000E+00 0. -1.
        -12    1    6    6    0    0 -0.73228677600E+02 -0.93076476276E+02  0.10306976054E+03  0.15700014394E+03  0.00000000000E+00 0.  1.
</event>
<event>
12    1  0.2689284E-002  0.1851866E+03  0.7818608E-02  0.1162876E+00
          1   -1    0    0  502    0  0.00000000000E+00  0.00000000000E+00  0.38009001317E+03  0.38009001317E+03  0.00000000000E+00 0. -1.
         -1   -1    0    0    0  501 -0.00000000000E+00 -0.00000000000E+00 -0.17793749095E+03  0.17793749095E+03  0.00000000000E+00 0.  1.
          6    2    1    2  502    0 -0.66375734419E+02  0.21947772891E+02 -0.94656948102E+02  0.20848734081E+03  0.17210342994E+03 0.  0.
         24    2    3    3    0    0  0.93023796160E+01  0.32609623822E+02  0.54158940839E+00  0.86316544159E+02  0.79374622166E+02 0.  0.
         -6    2    1    2    0  501  0.66375734419E+02 -0.21947772891E+02  0.29680947032E+03  0.34954016332E+03  0.17086550632E+03 0.  0.
        -24    2    5    5    0    0  0.78334315018E+02 -0.31530516112E+02  0.10040259015E+03  0.15248030136E+03  0.77711799865E+02 0.  0.
          5    1    3    3  502    0 -0.75678114035E+02 -0.10661850932E+02 -0.95198537510E+02  0.12217079665E+03  0.47000000000E+01 0. -1.
        -11    1    4    4    0    0  0.16017960640E+02  0.11857514269E+02 -0.37499296297E+02  0.42466138634E+02  0.00000000000E+00 0.  1.
         12    1    4    4    0    0 -0.67155810235E+01  0.20752109554E+02  0.38040885706E+02  0.43850405525E+02  0.00000000000E+00 0. -1.
         -5    1    5    5    0  501 -0.11958580599E+02  0.95827432219E+01  0.19640688017E+03  0.19705986196E+03  0.47000000000E+01 0.  1.
         13    1    6    6    0    0  0.14996304543E+01  0.96534380023E+01  0.51714861997E+02  0.52629504160E+02  0.00000000000E+00 0. -1.
        -14    1    6    6    0    0  0.76834684563E+02 -0.41183954115E+02  0.48687728148E+02  0.99850797196E+02  0.00000000000E+00 0.  1.
</event>
<event>
12    1  0.2689284E-002  0.3497319E+03  0.7818608E-02  0.1062725E+00
          2   -1    0    0  502    0  0.00000000000E+00  0.00000000000E+00  0.64735299059E+03  0.64735299059E+03  0.00000000000E+00 0.  1.
         -2   -1    0    0    0  501 -0.00000000000E+00 -0.00000000000E+00 -0.22355589448E+03  0.22355589448E+03  0.00000000000E+00 0. -1.
          6    2    1    2  502    0 -0.32637484901E+02  0.30233510026E+03  0.38316295649E+03  0.51866719904E+03  0.17242416845E+03 0.  0.
         24    2    3    3    0    0 -0.14932033558E+02  0.11452969235E+03  0.25183091297E+03  0.28876602483E+03  0.81406340740E+02 0.  0.
         -6    2    1    2    0  501  0.32637484901E+02 -0.30233510026E+03  0.40634139620E+02  0.35224168602E+03  0.17306459428E+03 0.  0.
        -24    2    5    5    0    0 -0.47607787021E+02 -0.12022007203E+03  0.22448780413E+02  0.15234675246E+03  0.77370654242E+02 0.  0.
          5    1    3    3  502    0 -0.17705451343E+02  0.18780540791E+03  0.13133204352E+03  0.22990117421E+03  0.47000000000E+01 0. -1.
        -13    1    4    4    0    0  0.75131850315E+01  0.11547174724E+03  0.22985710487E+03  0.25734113744E+03  0.00000000000E+00 0.  1.
         14    1    4    4    0    0 -0.22445218589E+02 -0.94205489301E+00  0.21973808102E+02  0.31424887390E+02  0.00000000000E+00 0. -1.
         -5    1    5    5    0  501  0.80245271922E+02 -0.18211502824E+03  0.18185359207E+02  0.19989493356E+03  0.47000000000E+01 0.  1.
         13    1    6    6    0    0 -0.42690634116E+02 -0.79202040163E+02 -0.21000061725E+02  0.92392943452E+02  0.00000000000E+00 0. -1.
        -14    1    6    6    0    0 -0.49171529050E+01 -0.41018031866E+02  0.43448842138E+02  0.59953809004E+02  0.00000000000E+00 0.  1.
</event>
<event>
12    1  0.2689284E-002  0.1831074E+03  0.7818608E-02  0.1164829E+00
         -2   -1    0    0    0  501 -0.00000000000E+00  0.00000000000E+00  0.65737796036E+02  0.65737796036E+02  0.00000000000E+00 0. -1.
          2   -1    0    0  502    0  0.00000000000E+00 -0.00000000000E+00 -0.69232839226E+03  0.69232839226E+03  0.00000000000E+00 0.  1.
          6    2    1    2  502    0 -0.52930250306E+02  0.29968690701E+02 -0.11821874377E+03  0.21756650892E+03  0.17222015156E+03 0.  0.
         24    2    3    3    0    0  0.37551296177E+02  0.17473164781E+02 -0.74752996866E+02  0.11630245026E+03  0.78884967282E+02 0.  0.
         -6    2    1    2    0  501  0.52930250306E+02 -0.29968690701E+02 -0.50837185245E+03  0.54049967938E+03  0.17319996890E+03 0.  0.
        -24    2    5    5    0    0  0.24792455834E+02 -0.89145919553E+02 -0.25185246666E+03  0.27570170888E+03  0.63404309635E+02 0.  0.
          5    1    3    3  502    0 -0.90481546483E+02  0.12495525920E+02 -0.43465746908E+02  0.10126405866E+03  0.47000000000E+01 0. -1.
        -13    1    4    4    0    0 -0.22932377756E+02  0.13675647899E+02 -0.34176651121E+02  0.43370044695E+02  0.00000000000E+00 0.  1.
         14    1    4    4    0    0  0.60483673933E+02  0.37975168821E+01 -0.40576345745E+02  0.72932405561E+02  0.00000000000E+00 0. -1.
         -5    1    5    5    0  501  0.28137794472E+02  0.59177228852E+02 -0.25651938579E+03  0.26479797050E+03  0.47000000000E+01 0.  1.
         11    1    6    6    0    0 -0.57411257338E+00 -0.45052084281E+02 -0.19169818049E+03  0.19692184314E+03  0.00000000000E+00 0. -1.
        -12    1    6    6    0    0  0.25366568408E+02 -0.44093835273E+02 -0.60154286167E+02  0.78779865740E+02  0.00000000000E+00 0.  1.
</event>
<event>
12    1  0.2689284E-002  0.2731512E+03  0.7818608E-02  0.1099490E+00
         -3   -1    0    0    0  501 -0.00000000000E+00  0.00000000000E+00  0.60430605415E+02  0.60430605415E+02  0.00000000000E+00 0.  1.
          3   -1    0    0  502    0  0.00000000000E+00 -0.00000000000E+00 -0.13083814150E+04  0.13083814150E+04  0.00000000000E+00 0. -1.
          6    2    1    2  502    0 -0.76064314103E+01  0.21251832934E+03 -0.78577006261E+03  0.83179329023E+03  0.17094908094E+03 0.  0.
         24    2    3    3    0    0  0.53028301183E+02  0.10545914725E+03 -0.32714122845E+03  0.35692411162E+03  0.80248399628E+02 0.  0.
         -6    2    1    2    0  501  0.76064314103E+01 -0.21251832934E+03 -0.46218074701E+03  0.53701873022E+03  0.17191909607E+03 0.  0.
        -24    2    5    5    0    0  0.26880344266E+02 -0.73056744992E+02 -0.30784631946E+03  0.32806365669E+03  0.82441285397E+02 0.  0.
          5    1    3    3  502    0 -0.60634732593E+02  0.10705918209E+03 -0.45862883416E+03  0.47486917861E+03  0.47000000000E+01 0. -1.
        -11    1    4    4    0    0  0.30666023886E+02 -0.34705694618E+01 -0.86238061387E+02  0.91593957799E+02  0.00000000000E+00 0.  1.
         12    1    4    4    0    0  0.22362277297E+02  0.10892971671E+03 -0.24090316706E+03  0.26533015383E+03  0.00000000000E+00 0. -1.
         -5    1    5    5    0  501 -0.19273912856E+02 -0.13946158435E+03 -0.15433442755E+03  0.20895507353E+03  0.47000000000E+01 0.  1.
         11    1    6    6    0    0 -0.16572827949E+01 -0.60923869674E+02 -0.27944267814E+03  0.28601166908E+03  0.00000000000E+00 0. -1.
        -12    1    6    6    0    0  0.28537627061E+02 -0.12132875318E+02 -0.28403641318E+02  0.42051987609E+02  0.00000000000E+00 0.  1.
</event>
<event>
12    1  0.2689284E-002  0.1935772E+03  0.7818608E-02  0.1155274E+00
         -2   -1    0    0    0  501 -0.00000000000E+00  0.00000000000E+00  0.21594415312E+03  0.21594415312E+03  0.00000000000E+00 0. -1.
          2   -1    0    0  502    0  0.00000000000E+00 -0.00000000000E+00 -0.30228634793E+03  0.30228634793E+03  0.00000000000E+00 0.  1.
          6    2    1    2  502    0 -0.81189618876E+02 -0.29455984118E+02  0.12609380580E+03  0.22997950247E+03  0.17184735809E+03 0.  0.
         24    2    3    3    0    0  0.13455041288E+02  0.57121832051E+01  0.91185595038E+02  0.12304454622E+03  0.81311010559E+02 0.  0.
         -6    2    1    2    0  501  0.81189618876E+02  0.29455984118E+02 -0.21243600062E+03  0.28825099858E+03  0.17464299188E+03 0.  0.
        -24    2    5    5    0    0  0.18275904152E+02 -0.39601007754E+02 -0.44470596521E+02  0.95997336463E+02  0.73045233693E+02 0.  0.
          5    1    3    3  502    0 -0.94644660164E+02 -0.35168167323E+02  0.34908210765E+02  0.10693495626E+03  0.47000000000E+01 0. -1.
        -11    1    4    4    0    0 -0.33599096628E+01 -0.50842799829E+01 -0.14372792040E+02  0.15611407589E+02  0.00000000000E+00 0.  1.
         12    1    4    4    0    0  0.16814950951E+02  0.10796463188E+02  0.10555838708E+03  0.10743313863E+03  0.00000000000E+00 0. -1.
         -5    1    5    5    0  501  0.62913714724E+02  0.69056991872E+02 -0.16796540409E+03  0.19225366212E+03  0.47000000000E+01 0.  1.
         13    1    6    6    0    0  0.45404854158E+02 -0.25977228616E+02 -0.38763696666E+02  0.65107920923E+02  0.00000000000E+00 0. -1.
        -14    1    6    6    0    0 -0.27128950006E+02 -0.13623779138E+02 -0.57068998555E+01  0.30889415540E+02  0.00000000000E+00 0.  1.
</event>
<event>
12    1  0.2689284E-002  0.2123713E+03  0.7818608E-02  0.1139702E+00
         -2   -1    0    0    0  501 -0.00000000000E+00  0.00000000000E+00  0.56576729942E+03  0.56576729942E+03  0.00000000000E+00 0.  1.
          2   -1    0    0  502    0  0.00000000000E+00 -0.00000000000E+00 -0.20097604612E+03  0.20097604612E+03  0.00000000000E+00 0. -1.
          6    2    1    2  502    0 -0.81228576983E+02  0.92551980935E+02  0.48134511135E+03  0.52756528517E+03  0.17739239837E+03 0.  0.
         24    2    3    3    0    0 -0.91406932868E+02  0.11939586036E+03  0.46259667375E+03  0.49295622994E+03  0.79997270088E+02 0.  0.
         -6    2    1    2    0  501  0.81228576983E+02 -0.92551980935E+02 -0.11655385806E+03  0.23917806038E+03  0.16869318849E+03 0.  0.
        -24    2    5    5    0    0  0.89339065134E+02 -0.12592519698E+03 -0.88843520310E+02  0.19479896186E+03  0.78834260600E+02 0.  0.
          5    1    3    3  502    0  0.10178355885E+02 -0.26843879429E+02  0.18748437599E+02  0.34609055227E+02  0.47000000000E+01 0. -1.
        -11    1    4    4    0    0 -0.27613973852E+02  0.73111707594E+02  0.13479263647E+03  0.15581048805E+03  0.00000000000E+00 0.  1.
         12    1    4    4    0    0 -0.63792959016E+02  0.46284152770E+02  0.32780403728E+03  0.33714574189E+03  0.00000000000E+00 0. -1.
         -5    1    5    5    0  501 -0.81104881518E+01  0.33373216048E+02 -0.27710337746E+02  0.44379098520E+02  0.47000000000E+01 0.  1.
         11    1    6    6    0    0  0.39123844968E+02 -0.96474465700E+02 -0.88413326628E+02  0.13658299346E+03  0.00000000000E+00 0. -1.
        -12    1    6    6    0    0  0.50215220167E+02 -0.29450731284E+02 -0.43019368187E+00  0.58215968395E+02  0.00000000000E+00 0.  1.
</event>
<event>
12    1  0.2689284E-002  0.1810336E+03  0.7818608E-02  0.1166806E+00
          2   -1    0    0  502    0  0.00000000000E+00  0.00000000000E+00  0.44762096207E+03  0.44762096207E+03  0.00000000000E+00 0. -1.
         -2   -1    0    0    0  501 -0.00000000000E+00 -0.00000000000E+00 -0.13554855452E+03  0.13554855452E+03  0.00000000000E+00 0.  1.
          6    2    1    2  502    0  0.38707574907E+02 -0.47289300040E+02  0.35324155235E+03  0.39642374279E+03  0.16922657972E+03 0.  0.
         24    2    3    3    0    0  0.27922209057E+02 -0.81322577794E+02  0.15137887881E+03  0.19137443876E+03  0.79470745843E+02 0.  0.
         -6    2    1    2    0  501 -0.38707574907E+02  0.47289300040E+02 -0.41169144798E+02  0.18674577380E+03  0.17159408876E+03 0.  0.
        -24    2    5    5    0    0 -0.14667284361E+02  0.83922255874E+02  0.12499586953E+02  0.11730276270E+03  0.79659426324E+02 0.  0.
          5    1    3    3  502    0  0.10785365850E+02  0.34033277754E+02  0.20186267354E+03  0.20504930403E+03  0.47000000000E+01 0. -1.
        -13    1    4    4    0    0 -0.12374064051E+02  0.74610851936E+01  0.46012317413E+01  0.15164319535E+02  0.00000000000E+00 0.  1.
         14    1    4    4    0    0  0.40296273108E+02 -0.88783662987E+02  0.14677764706E+03  0.17621011923E+03  0.00000000000E+00 0. -1.
         -5    1    5    5    0  501 -0.24040290546E+02 -0.36632955834E+02 -0.53668731751E+02  0.69443011099E+02  0.47000000000E+01 0.  1.
         13    1    6    6    0    0  0.21536906762E+02  0.24023606343E+02 -0.22219155089E+02  0.39174773356E+02  0.00000000000E+00 0. -1.
        -14    1    6    6    0    0 -0.36204191123E+02  0.59898649531E+02  0.34718742042E+02  0.78127989347E+02  0.00000000000E+00 0.  1.
</event>
<event>
12    1  0.2689284E-002  0.1864194E+03  0.7818608E-02  0.1161731E+00
          1   -1    0    0  502    0  0.00000000000E+00  0.00000000000E+00  0.13502155262E+03  0.13502155262E+03  0.00000000000E+00 0.  1.
         -1   -1    0    0    0  501 -0.00000000000E+00 -0.00000000000E+00 -0.41430817265E+03  0.41430817265E+03  0.00000000000E+00 0. -1.
          6    2    1    2  502    0 -0.54059400538E+02  0.48629988714E+02 -0.30848777388E+03  0.36022449655E+03  0.17120072047E+03 0.  0.
         24    2    3    3    0    0 -0.24863649172E+02  0.20015656839E+01 -0.55311753476E+02  0.10109752180E+03  0.80864773092E+02 0.  0.
         -6    2    1    2    0  501  0.54059400538E+02 -0.48629988714E+02  0.29201153847E+02  0.18910522872E+03  0.17210690153E+03 0.  0.
        -24    2    5    5    0    0  0.36342895348E+01 -0.19641479814E+02 -0.48089904247E+02  0.92259871941E+02  0.76159367713E+02 0.  0.
          5    1    3    3  502    0 -0.29195751366E+02  0.46628423030E+02 -0.25317602040E+03  0.25912697474E+03  0.47000000000E+01 0. -1.
        -11    1    4    4    0    0 -0.32013254105E+02  0.33238850432E+01  0.11283956683E+02  0.34106074658E+02  0.00000000000E+00 0.  1.
         12    1    4    4    0    0  0.71496049338E+01 -0.13223193593E+01 -0.66595710159E+02  0.66991447147E+02  0.00000000000E+00 0. -1.
         -5    1    5    5    0  501  0.50425111003E+02 -0.28988508900E+02  0.77291058095E+02  0.96845356777E+02  0.47000000000E+01 0.  1.
         11    1    6    6    0    0 -0.39545510565E+00 -0.32228499230E+02  0.91575653311E+01  0.33506619497E+02  0.00000000000E+00 0. -1.
        -12    1    6    6    0    0  0.40297446405E+01  0.12587019416E+02 -0.57247469578E+02  0.58753252444E+02  0.00000000000E+00 0.  1.
</event>
<event>
12    1  0.2689284E-002  0.3731831E+03  0.7818608E-02  0.1053482E+00
          2   -1    0    0  502    0  0.00000000000E+00  0.00000000000E+00  0.12014940822E+04  0.12014940822E+04  0.00000000000E+00 0. -1.
         -2   -1    0    0    0  501 -0.00000000000E+00 -0.00000000000E+00 -0.16065232892E+03  0.16065232892E+03  0.00000000000E+00 0.  1.
          6    2    1    2  502    0 -0.89449849901E+02 -0.31920095344E+03  0.88000827564E+03  0.95592938509E+03  0.17174370367E+03 0.  0.
         24    2    3    3    0    0 -0.70172503098E+02 -0.17539549389E+03  0.34337781102E+03  0.40001035154E+03  0.80076218519E+02 0.  0.
         -6    2    1    2    0  501  0.89449849901E+02  0.31920095344E+03  0.16083347761E+03  0.40621702600E+03  0.17103900248E+03 0.  0.
        -24    2    5    5    0    0  0.52640047247E+02  0.28870669599E+03  0.18131055348E+03  0.35400340762E+03  0.79513300250E+02 0.  0.
          5    1    3    3  502    0 -0.19277346802E+02 -0.14380545954E+03  0.53663046462E+03  0.55591903354E+03  0.47000000000E+01 0. -1.
        -13    1    4    4    0    0 -0.85637294877E+01  0.69305879155E+01  0.90958818685E+01  0.14286552368E+02  0.00000000000E+00 0.  1.
         14    1    4    4    0    0 -0.61608773610E+02 -0.18232608181E+03  0.33428192915E+03  0.38572379918E+03  0.00000000000E+00 0. -1.
         -5    1    5    5    0  501  0.36809802654E+02  0.30494257442E+02 -0.20477075869E+02  0.52213618382E+02  0.47000000000E+01 0.  1.
         11    1    6    6    0    0  0.34735030038E+02  0.35197183467E+02  0.22551491107E+02  0.54350103835E+02  0.00000000000E+00 0. -1.
        -12    1    6    6    0    0  0.17905017209E+02  0.25350951253E+03  0.15875906237E+03  0.29965330378E+03  0.00000000000E+00 0.  1.
</event>
<event>
12    1  0.2689284E-002  0.2808680E+03  0.7818608E-02  0.1095216E+00
         -2   -1    0    0    0  501 -0.00000000000E+00  0.00000000000E+00  0.13617243429E+03  0.13617243429E+03  0.00000000000E+00 0.  1.
          2   -1    0    0  502    0  0.00000000000E+00 -0.00000000000E+00 -0.16361984287E+04  0.16361984287E+04  0.00000000000E+00 0. -1.
          6    2    1    2  502    0  0.15350837150E+02  0.22313738553E+03 -0.14617148858E+04  0.14883497648E+04  0.16896352816E+03 0.  0.
         24    2    3    3    0    0  0.10760113937E+02  0.48642332710E+02 -0.32414260979E+03  0.33745343087E+03  0.79526913313E+02 0.  0.
         -6    2    1    2    0  501 -0.15350837150E+02 -0.22313738553E+03 -0.38311108517E+02  0.28402109814E+03  0.17080486566E+03 0.  0.
        -24    2    5    5    0    0 -0.43941429328E+02 -0.49937662944E+02 -0.29984828630E+02  0.10821727907E+03  0.79920398835E+02 0.  0.
          5    1    3    3  502    0  0.45907232134E+01  0.17449505282E+03 -0.11375722761E+04  0.11508963339E+04  0.47000000000E+01 0. -1.
        -11    1    4    4    0    0 -0.29862536505E+02  0.16619531099E+02 -0.20104908214E+03  0.20393310994E+03  0.00000000000E+00 0.  1.
         12    1    4    4    0    0  0.40622650442E+02  0.32022801611E+02 -0.12309352765E+03  0.13352032093E+03  0.00000000000E+00 0. -1.
         -5    1    5    5    0  501  0.28590592178E+02 -0.17319972258E+03 -0.83262798868E+01  0.17580381907E+03  0.47000000000E+01 0.  1.
         13    1    6    6    0    0 -0.23684810553E+02 -0.59349799409E+02 -0.47673240408E+02  0.79725195465E+02  0.00000000000E+00 0. -1.
        -14    1    6    6    0    0 -0.20256618775E+02  0.94121364653E+01  0.17688411778E+02  0.28492083607E+02  0.00000000000E+00 0.  1.
</event>
<event>
12    1  0.2689284E-002  0.2979744E+03  0.7818608E-02  0.1086258E+00
          2   -1    0    0  502    0  0.00000000000E+00  0.00000000000E+00  0.15871606551E+04  0.15871606551E+04  0.00000000000E+00 0.  1.
         -2   -1    0    0    0  501 -0.00000000000E+00 -0.00000000000E+00 -0.71191490418E+02  0.71191490418E+02  0.00000000000E+00 0. -1.
          6    2    1    2  502    0  0.97824153555E+02  0.22293050011E+03  0.37419254776E+03  0.47833033508E+03  0.17179136695E+03 0.  0.
         24    2    3    3    0    0  0.74108531261E+02  0.10283427988E+03  0.29973012943E+03  0.33496968986E+03  0.79369887948E+02 0.  0.
         -6    2    1    2    0  501 -0.97824153555E+02 -0.22293050011E+03  0.11417766169E+04  0.11800218104E+04  0.17184311816E+03 0.  0.
        -24    2    5    5    0    0 -0.33620078112E+02 -0.20500508599E+03  0.98099282146E+03  0.10059040266E+04  0.79615325032E+02 0.  0.
          5    1    3    3  502    0  0.23715622294E+02  0.12009622023E+03  0.74462418334E+02  0.14336064522E+03  0.47000000000E+01 0. -1.
        -13    1    4    4    0    0  0.59432823508E+02  0.16611090947E+02  0.11235962660E+03  0.12819077402E+03  0.00000000000E+00 0.  1.
         14    1    4    4    0    0  0.14675707753E+02  0.86223188935E+02  0.18737050283E+03  0.20677891584E+03  0.00000000000E+00 0. -1.
         -5    1    5    5    0  501 -0.64204075443E+02 -0.17925414119E+02  0.16078379543E+03  0.17411778383E+03  0.47000000000E+01 0.  1.
         13    1    6    6    0    0 -0.39211512086E+02 -0.71597927295E+02  0.25542519902E+03  0.26815263968E+03  0.00000000000E+00 0. -1.
        -14    1    6    6    0    0  0.55914339744E+01 -0.13340715870E+03  0.72556762244E+03  0.73775138689E+03  0.00000000000E+00 0.  1.
</event>
<event>
12    1  0.2689284E-002  0.2160857E+03  0.7818608E-02  0.1136835E+00
          2   -1    0    0  502    0  0.00000000000E+00  0.00000000000E+00  0.25641881201E+04  0.25641881201E+04  0.00000000000E+00 0.  1.
         -2   -1    0    0    0  501 -0.00000000000E+00 -0.00000000000E+00 -0.19091449129E+02  0.19091449129E+02  0.00000000000E+00 0. -1.
          6    2    1    2  502    0 -0.63762168852E+02  0.12017982261E+03  0.15363870801E+04  0.15511801850E+04  0.16482081934E+03 0.  0.
         24    2    3    3    0    0 -0.93643087644E+02  0.13271788435E+03  0.12905511705E+04  0.13031732158E+04  0.79718518057E+02 0.  0.
         -6    2    1    2    0  501  0.63762168852E+02 -0.12017982261E+03  0.10087095909E+04  0.10320993843E+04  0.17095407652E+03 0.  0.
        -24    2    5    5    0    0  0.10610043285E+03 -0.88064195949E+02  0.63712151402E+03  0.65670128763E+03  0.79499390508E+02 0.  0.
          5    1    3    3  502    0  0.29880918792E+02 -0.12538061739E+02  0.24583590959E+03  0.24800696915E+03  0.47000000000E+01 0. -1.
        -11    1    4    4    0    0 -0.43343938178E+02  0.55241229012E+01  0.35415543924E+03  0.35684070403E+03  0.00000000000E+00 0.  1.
         12    1    4    4    0    0 -0.50299149466E+02  0.12719376145E+03  0.93639573127E+03  0.94633251182E+03  0.00000000000E+00 0. -1.
         -5    1    5    5    0  501 -0.42338263995E+02 -0.32115626664E+02  0.37158807688E+03  0.37539809663E+03  0.47000000000E+01 0.  1.
         13    1    6    6    0    0  0.58514366286E+02 -0.94322085948E+02  0.43064327245E+03  0.44471812990E+03  0.00000000000E+00 0. -1.
        -14    1    6    6    0    0  0.47586066561E+02  0.62578899988E+01  0.20647824158E+03  0.21198315773E+03  0.00000000000E+00 0.  1.
</event>
<event>
12    1  0.2689284E-002  0.1951603E+03  0.7818608E-02  0.1153888E+00
          2   -1    0    0  502    0  0.00000000000E+00  0.00000000000E+00  0.17496428736E+04  0.17496428736E+04  0.00000000000E+00 0.  1.
         -2   -1    0    0    0  501 -0.00000000000E+00 -0.00000000000E+00 -0.28443475793E+02  0.28443475793E+02  0.00000000000E+00 0. -1.
          6    2    1    2  502    0  0.15960068568E+02 -0.91027614888E+02  0.12920581886E+04  0.13067489968E+04  0.17215640379E+03 0.  0.
         24    2    3    3    0    0 -0.46828688663E+02 -0.14407592662E+02  0.75112165367E+03  0.75679674369E+03  0.78466985692E+02 0.  0.
         -6    2    1    2    0  501 -0.15960068568E+02  0.91027614888E+02  0.42914120918E+03  0.47133735260E+03  0.17162742228E+03 0.  0.
        -24    2    5    5    0    0  0.23248058328E+02  0.55823923267E+02  0.11312533724E+03  0.15092402823E+03  0.79523189983E+02 0.  0.
          5    1    3    3  502    0  0.62788757232E+02 -0.76620022226E+02  0.54093653492E+03  0.54995225307E+03  0.47000000000E+01 0. -1.
        -11    1    4    4    0    0 -0.39414498318E+02 -0.11380255722E+02  0.14686936217E+03  0.15249138481E+03  0.00000000000E+00 0.  1.
         12    1    4    4    0    0 -0.74141903449E+01 -0.30273369397E+01  0.60425229151E+03  0.60430535888E+03  0.00000000000E+00 0. -1.
         -5    1    5    5    0  501 -0.39208126896E+02  0.35203691621E+02  0.31601587194E+03  0.32041332437E+03  0.47000000000E+01 0.  1.
         13    1    6    6    0    0 -0.95599581285E+01  0.14905199700E+02 -0.76219181699E+01  0.19278262736E+02  0.00000000000E+00 0. -1.
        -14    1    6    6    0    0  0.32808016456E+02  0.40918723567E+02  0.12074725541E+03  0.13164576549E+03  0.00000000000E+00 0.  1.
</event>
<event>
12    1  0.2689284E-002  0.4347824E+03  0.7818608E-02  0.1032360E+00
          1   -1    0    0  502    0  0.00000000000E+00  0.00000000000E+00  0.15623366192E+03  0.15623366192E+03  0.00000000000E+00 0. -1.
         -1   -1    0    0    0  501 -0.00000000000E+00 -0.00000000000E+00 -0.17559098145E+04  0.17559098145E+04  0.00000000000E+00 0.  1.
          6    2    1    2  502    0  0.17573514754E+03 -0.35850057796E+03 -0.26703928808E+03  0.51045064446E+03  0.17275523892E+03 0.  0.
         24    2    3    3    0    0  0.11285376026E+03 -0.32195649589E+03 -0.26221650365E+03  0.43741032648E+03  0.78602433042E+02 0.  0.
         -6    2    1    2    0  501 -0.17573514754E+03  0.35850057796E+03 -0.13326368645E+04  0.14016928319E+04  0.17151173729E+03 0.  0.
        -24    2    5    5    0    0 -0.16700289461E+03  0.19084304288E+03 -0.85484743170E+03  0.89524428233E+03  0.79919708084E+02 0.  0.
          5    1    3    3  502    0  0.62881387280E+02 -0.36544082073E+02 -0.48227844326E+01  0.73040317979E+02  0.47000000000E+01 0. -1.
        -11    1    4    4    0    0  0.80209552925E+02 -0.30032452151E+03 -0.22972930893E+03  0.38652806622E+03  0.00000000000E+00 0.  1.
         12    1    4    4    0    0  0.32644207338E+02 -0.21631974380E+02 -0.32487194720E+02  0.50882260259E+02  0.00000000000E+00 0. -1.
         -5    1    5    5    0  501 -0.87322529289E+01  0.16765753509E+03 -0.47778943280E+03  0.50644854961E+03  0.47000000000E+01 0.  1.
         13    1    6    6    0    0 -0.93995154529E+02  0.14290802604E+03 -0.45796683892E+03  0.48886748566E+03  0.00000000000E+00 0. -1.
        -14    1    6    6    0    0 -0.73007740085E+02  0.47935016839E+02 -0.39688059278E+03  0.40637679668E+03  0.00000000000E+00 0.  1.
</event>
<event>
12    1  0.2689284E-002  0.2093669E+03  0.7818608E-02  0.1142068E+00
         -2   -1    0    0    0  501 -0.00000000000E+00  0.00000000000E+00  0.17860336380E+03  0.17860336380E+03  0.00000000000E+00 0. -1.
          2   -1    0    0  502    0  0.00000000000E+00 -0.00000000000E+00 -0.38094551464E+03  0.38094551464E+03  0.00000000000E+00 0.  1.
          6    2    1    2  502    0  0.11882867641E+03 -0.18240823019E+02 -0.26782175822E+03  0.33952192655E+03  0.17056864447E+03 0.  0.
         24    2    3    3    0    0  0.62660186547E+02 -0.30500993726E+02 -0.61385008532E+02  0.12517773452E+03  0.83932927689E+02 0.  0.
         -6    2    1    2    0  501 -0.11882867641E+03  0.18240823019E+02  0.65479607378E+02  0.22002695189E+03  0.17225358810E+03 0.  0.
        -24    2    5    5    0    0 -0.11018421916E+03  0.70623442323E+02  0.66673072139E+02  0.16671485378E+03  0.78868949314E+02 0.  0.
          5    1    3    3  502    0  0.56168489860E+02  0.12260170707E+02 -0.20643674968E+03  0.21434419203E+03  0.47000000000E+01 0. -1.
        -13    1    4    4    0    0  0.55244499686E+02 -0.40167323927E+02 -0.78572289819E+02  0.10411039038E+03  0.00000000000E+00 0.  1.
         14    1    4    4    0    0  0.74156868610E+01  0.96663302011E+01  0.17187281287E+02  0.21067344142E+02  0.00000000000E+00 0. -1.
         -5    1    5    5    0  501 -0.86444572503E+01 -0.52382619305E+02 -0.11934647611E+01  0.53312098107E+02  0.47000000000E+01 0.  1.
         11    1    6    6    0    0 -0.37121832186E+02  0.69880997956E+02  0.27235773948E+02  0.83684954936E+02  0.00000000000E+00 0. -1.
        -12    1    6    6    0    0 -0.73062386970E+02  0.74244436781E+00  0.39437298192E+02  0.83029898844E+02  0.00000000000E+00 0.  1.
</event>
<event>
12    1  0.2689284E-002  0.2667626E+03  0.7818608E-02  0.1103147E+00
          1   -1    0    0  502    0  0.00000000000E+00  0.00000000000E+00  0.48206330122E+03  0.48206330122E+03  0.00000000000E+00 0.  1.
         -1   -1    0    0    0  501 -0.00000000000E+00 -0.00000000000E+00 -0.15037433214E+03  0.15037433214E+03  0.00000000000E+00 0. -1.
          6    2    1    2  502    0  0.19491251034E+03 -0.47489385171E+02  0.12274274846E+03  0.29318400107E+03  0.17505698442E+03 0.  0.
         24    2    3    3    0    0  0.12308779183E+03 -0.65263949062E+02  0.14459260542E+03  0.21589084769E+03  0.79321176428E+02 0.  0.
         -6    2    1    2    0  501 -0.19491251034E+03  0.47489385171E+02  0.20894622062E+03  0.33925363228E+03  0.17660230892E+03 0.  0.
        -24    2    5    5    0    0 -0.12190002158E+03  0.37137895458E+02  0.40859001920E+02  0.15564159579E+03  0.79473327371E+02 0.  0.
          5    1    3    3  502    0  0.71824718511E+02  0.17774563892E+02 -0.21849856957E+02  0.77293153382E+02  0.47000000000E+01 0. -1.
        -13    1    4    4    0    0  0.99623520000E+02 -0.34657453710E+02  0.14246905827E+03  0.17726651517E+03  0.00000000000E+00 0.  1.
         14    1    4    4    0    0  0.23464271830E+02 -0.30606495352E+02  0.21235471451E+01  0.38624332521E+02  0.00000000000E+00 0. -1.
         -5    1    5    5    0  501 -0.73012488761E+02  0.10351489713E+02  0.16808721870E+03  0.18361203649E+03  0.47000000000E+01 0.  1.
         13    1    6    6    0    0 -0.26983123988E+02 -0.15763394979E+02 -0.13616328723E+02  0.34087798540E+02  0.00000000000E+00 0. -1.
        -14    1    6    6    0    0 -0.94916897590E+02  0.52901290437E+02  0.54475330643E+02  0.12155379725E+03  0.00000000000E+00 0.  1.
</event>
<event>
12    1  0.2689284E-002  0.5254717E+03  0.7818608E-02  0.1007336E+00
         -1   -1    0    0    0  501 -0.00000000000E+00  0.00000000000E+00  0.62662765988E+03  0.62662765988E+03  0.00000000000E+00 0.  1.
          1   -1    0    0  502    0  0.00000000000E+00 -0.00000000000E+00 -0.52878526595E+03  0.52878526595E+03  0.00000000000E+00 0. -1.
          6    2    1    2  502    0 -0.30476931358E+03  0.39261890366E+03  0.28467284624E+03  0.59645314330E+03  0.16638444865E+03 0.  0.
         24    2    3    3    0    0 -0.98765364608E+02  0.11108814238E+03  0.48659970931E+02  0.17523898892E+03  0.79029980656E+02 0.  0.
         -6    2    1    2    0  501  0.30476931358E+03 -0.39261890366E+03 -0.18683045231E+03  0.55895978253E+03  0.17463242132E+03 0.  0.
        -24    2    5    5    0    0  0.33234210280E+02 -0.85947379822E+02 -0.39329139314E+02  0.12357780864E+03  0.72341058597E+02 0.  0.
          5    1    3    3  502    0 -0.20600394897E+03  0.28153076128E+03  0.23601287531E+03  0.42121415438E+03  0.47000000000E+01 0. -1.
        -13    1    4    4    0    0  0.77731443762E+01 -0.59005879820E+00  0.15531956409E+02  0.17378481314E+02  0.00000000000E+00 0.  1.
         14    1    4    4    0    0 -0.10653850898E+03  0.11167820118E+03  0.33128014522E+02  0.15786050760E+03  0.00000000000E+00 0. -1.
         -5    1    5    5    0  501  0.27153510330E+03 -0.30667152383E+03 -0.14750131300E+03  0.43538197389E+03  0.47000000000E+01 0.  1.
         11    1    6    6    0    0  0.36903800101E+02 -0.22433627439E+02  0.84603457588E+01  0.44008357756E+02  0.00000000000E+00 0. -1.
        -12    1    6    6    0    0 -0.36695898212E+01 -0.63513752383E+02 -0.47789485072E+02  0.79569450889E+02  0.00000000000E+00 0.  1.
</event>
<event>
12    1  0.2689284E-002  0.2339056E+03  0.7818608E-02  0.1123921E+00
         -1   -1    0    0    0  501 -0.00000000000E+00  0.00000000000E+00  0.26537692891E+02  0.26537692891E+02  0.00000000000E+00 0. -1.
          1   -1    0    0  502    0  0.00000000000E+00 -0.00000000000E+00 -0.24920933067E+04  0.24920933067E+04  0.00000000000E+00 0.  1.
          6    2    1    2  502    0 -0.14520787591E+03  0.34095749329E+02 -0.17829517583E+04  0.17990846109E+04  0.18852219395E+03 0.  0.
         24    2    3    3    0    0 -0.35992183955E+02  0.15590445043E+02 -0.13195168225E+04  0.13225717115E+04  0.80825663270E+02 0.  0.
         -6    2    1    2    0  501  0.14520787591E+03 -0.34095749329E+02 -0.68260385553E+03  0.71954638865E+03  0.17190443418E+03 0.  0.
        -24    2    5    5    0    0  0.70028747951E+02  0.48103740270E+02 -0.33257063147E+03  0.35218552340E+03  0.78825266326E+02 0.  0.
          5    1    3    3  502    0 -0.10921569196E+03  0.18505304286E+02 -0.46343493577E+03  0.47651289946E+03  0.47000000000E+01 0. -1.
        -13    1    4    4    0    0 -0.26862727636E+02  0.32364491596E+02 -0.30623291701E+03  0.30910785482E+03  0.00000000000E+00 0.  1.
         14    1    4    4    0    0 -0.91294563189E+01 -0.16774046554E+02 -0.10132839055E+04  0.10134638566E+04  0.00000000000E+00 0. -1.
         -5    1    5    5    0  501  0.75179127960E+02 -0.82199489598E+02 -0.35003322406E+03  0.36736086525E+03  0.47000000000E+01 0.  1.
         13    1    6    6    0    0 -0.17295376759E+02  0.73611480928E+01 -0.70426491098E+02  0.72891749923E+02  0.00000000000E+00 0. -1.
        -14    1    6    6    0    0  0.87324124710E+02  0.40742592177E+02 -0.26214414037E+03  0.27929377348E+03  0.00000000000E+00 0.  1.
</event>
<event>
12    1  0.2689284E-002  0.2806874E+03  0.7818608E-02  0.1095314E+00
         -1   -1    0    0    0  501 -0.00000000000E+00  0.00000000000E+00  0.22461961006E+03  0.22461961006E+03  0.00000000000E+00 0. -1.
          1   -1    0    0  502    0  0.00000000000E+00 -0.00000000000E+00 -0.41428466017E+03  0.41428466017E+03  0.00000000000E+00 0.  1.
          6    2    1    2  502    0  0.19793164351E+03 -0.99798855493E+02  0.30245236495E+02  0.28239272018E+03  0.17231983931E+03 0.  0.
         24    2    3    3    0    0  0.16172932965E+02 -0.32052718950E+02  0.29700318039E+02  0.88361395875E+02  0.75077871817E+02 0.  0.
         -6    2    1    2    0  501 -0.19793164351E+03  0.99798855493E+02 -0.21991028661E+03  0.35651155005E+03  0.17205581681E+03 0.  0.
        -24    2    5    5    0    0 -0.94974975380E+02  0.25789695291E+02 -0.18743975949E+03  0.22553881839E+03  0.77773651269E+02 0.  0.
          5    1    3    3  502    0  0.18175871055E+03 -0.67746136542E+02  0.54491845582E+00  0.19403132431E+03  0.47000000000E+01 0. -1.
        -13    1    4    4    0    0  0.36127235588E+02 -0.26188493322E+02 -0.79738089664E+01  0.45327651198E+02  0.00000000000E+00 0.  1.
         14    1    4    4    0    0 -0.19954302622E+02 -0.58642256284E+01  0.37674127005E+02  0.43033744678E+02  0.00000000000E+00 0. -1.
         -5    1    5    5    0  501 -0.10295666813E+03  0.74009160201E+02 -0.32470527123E+02  0.13097273166E+03  0.47000000000E+01 0.  1.
         11    1    6    6    0    0  0.41931944293E+01 -0.16835315808E+02 -0.22361220941E+02  0.28302560659E+02  0.00000000000E+00 0. -1.
        -12    1    6    6    0    0 -0.99168169809E+02  0.42625011099E+02 -0.16507853855E+03  0.19723625773E+03  0.00000000000E+00 0.  1.
</event>
<event>
12    1  0.2689284E-002  0.1915233E+03  0.7818608E-02  0.1157095E+00
         -2   -1    0    0    0  501 -0.00000000000E+00  0.00000000000E+00  0.39942756735E+02  0.39942756735E+02  0.00000000000E+00 0. -1.
          2   -1    0    0  502    0  0.00000000000E+00 -0.00000000000E+00 -0.13128226453E+04  0.13128226453E+04  0.00000000000E+00 0.  1.
          6    2    1    2  502    0  0.77558462962E+02 -0.34896232830E+02 -0.10086224765E+04  0.10267596308E+04  0.17228748341E+03 0.  0.
         24    2    3    3    0    0  0.10741645021E+03 -0.27984530355E+02 -0.96831845399E+03  0.97590911191E+03  0.49361307243E+02 0.  0.
         -6    2    1    2    0  501 -0.77558462962E+02  0.34896232830E+02 -0.26425741208E+03  0.32600577133E+03  0.17092314313E+03 0.  0.
        -24    2    5    5    0    0 -0.10814961777E+03 -0.70257411956E+01 -0.19990799440E+03  0.24320354784E+03  0.86249977349E+02 0.  0.
          5    1    3    3  502    0 -0.29857987251E+02 -0.69117024748E+01 -0.40304022538E+02  0.50850518842E+02  0.47000000000E+01 0. -1.
        -11    1    4    4    0    0  0.43712700153E+02  0.33505083113E+01 -0.53704688804E+03  0.53883335644E+03  0.00000000000E+00 0.  1.
         12    1    4    4    0    0  0.63703750061E+02 -0.31335038666E+02 -0.43127156595E+03  0.43707575547E+03  0.00000000000E+00 0. -1.
         -5    1    5    5    0  501  0.30591154811E+02  0.41921974026E+02 -0.64349417678E+02  0.82802223486E+02  0.47000000000E+01 0.  1.
         13    1    6    6    0    0 -0.84331628866E+02 -0.29944110699E+02 -0.18774617167E+03  0.20798340888E+03  0.00000000000E+00 0. -1.
        -14    1    6    6    0    0 -0.23817988907E+02  0.22918369504E+02 -0.12161822733E+02  0.35220138961E+02  0.00000000000E+00 0.  1.
</event>
<event>
12    1  0.2689284E-002  0.3279887E+03  0.7818608E-02  0.1072030E+00
         -2   -1    0    0    0  501 -0.00000000000E+00  0.00000000000E+00  0.27339707998E+03  0.27339707998E+03  0.00000000000E+00 0.  1.
          2   -1    0    0  502    0  0.00000000000E+00 -0.00000000000E+00 -0.73650246622E+03  0.73650246622E+03  0.00000000000E+00 0. -1.
          6    2    1    2  502    0 -0.84984433064E+02  0.26583879289E+03 -0.57623570606E+03  0.66314406638E+03  0.17268423835E+03 0.  0.
         24    2    3    3    0    0  0.19568990414E+02  0.94545644693E+02 -0.20163500113E+03  0.23814931452E+03  0.82076781175E+02 0.  0.
         -6    2    1    2    0  501  0.84984433064E+02 -0.26583879289E+03  0.11313031982E+03  0.34675547981E+03  0.17189611935E+03 0.  0.
        -24    2    5    5    0    0  0.74179642787E+02 -0.25009692595E+03  0.14484529769E+03  0.30943953565E+03  0.81985207107E+02 0.  0.
          5    1    3    3  502    0 -0.10455342348E+03  0.17129314820E+03 -0.37460070493E+03  0.42499475187E+03  0.47000000000E+01 0. -1.
        -13    1    4    4    0    0  0.24759168198E+02  0.51364476549E+02 -0.18145597522E+03  0.19020409250E+03  0.00000000000E+00 0.  1.
         14    1    4    4    0    0 -0.51901777844E+01  0.43181168144E+02 -0.20179025915E+02  0.47945222020E+02  0.00000000000E+00 0. -1.
         -5    1    5    5    0  501  0.10804790278E+02 -0.15741866939E+02 -0.31714977870E+02  0.37315944165E+02  0.47000000000E+01 0.  1.
         13    1    6    6    0    0  0.14793051441E+02 -0.12609236891E+02 -0.78032599493E+01  0.20945598386E+02  0.00000000000E+00 0. -1.
        -14    1    6    6    0    0  0.59386591346E+02 -0.23748768906E+03  0.15264855764E+03  0.28849393726E+03  0.00000000000E+00 0.  1.
</event>
<event>
12    1  0.2689284E-002  0.2069542E+03  0.7818608E-02  0.1144001E+00
          2   -1    0    0  502    0  0.00000000000E+00  0.00000000000E+00  0.25391728526E+03  0.25391728526E+03  0.00000000000E+00 0. -1.
         -2   -1    0    0    0  501 -0.00000000000E+00 -0.00000000000E+00 -0.19029141949E+03  0.19029141949E+03  0.00000000000E+00 0.  1.
          6    2    1    2  502    0  0.11372418052E+03  0.10380319675E+02  0.10671186765E+03  0.23314249982E+03  0.17299439948E+03 0.  0.
         24    2    3    3    0    0  0.22547221329E+02  0.47432049744E+02  0.14514304419E+02  0.98203442263E+02  0.81701129166E+02 0.  0.
         -6    2    1    2    0  501 -0.11372418052E+03 -0.10380319675E+02 -0.43086001880E+02  0.21106620493E+03  0.17219639670E+03 0.  0.
        -24    2    5    5    0    0 -0.13920685133E+03  0.23604096469E+02 -0.40431424761E+02  0.16824747267E+03  0.82078079444E+02 0.  0.
          5    1    3    3  502    0  0.91176959188E+02 -0.37051730069E+02  0.92197563232E+02  0.13493905755E+03  0.47000000000E+01 0. -1.
        -11    1    4    4    0    0  0.14309964541E+02 -0.24020212118E+01 -0.28420947839E+02  0.31910735923E+02  0.00000000000E+00 0.  1.
         12    1    4    4    0    0  0.82372567880E+01  0.49834070956E+02  0.42935252258E+02  0.66292706340E+02  0.00000000000E+00 0. -1.
         -5    1    5    5    0  501  0.25482670815E+02 -0.33984416143E+02 -0.26545771190E+01  0.42818732257E+02  0.47000000000E+01 0.  1.
         11    1    6    6    0    0 -0.97639853112E+00 -0.11008339126E+01  0.16615969389E+02  0.16680996018E+02  0.00000000000E+00 0. -1.
        -12    1    6    6    0    0 -0.13823045280E+03  0.24704930381E+02 -0.57047394150E+02  0.15156647666E+03  0.00000000000E+00 0.  1.
</event>
<event>
12    1  0.2689284E-002  0.1840597E+03  0.7818608E-02  0.1163931E+00
         -2   -1    0    0    0  501 -0.00000000000E+00  0.00000000000E+00  0.14805155005E+02  0.14805155005E+02  0.00000000000E+00 0. -1.
          2   -1    0    0  502    0  0.00000000000E+00 -0.00000000000E+00 -0.22961957564E+04  0.22961957564E+04  0.00000000000E+00 0.  1.
          6    2    1    2  502    0 -0.60688572910E+02 -0.24033403215E+02 -0.10747518805E+04  0.10904530474E+04  0.17243995035E+03 0.  0.
         24    2    3    3    0    0 -0.76761856040E+02 -0.57242739641E+02 -0.99135831181E+03  0.99914155982E+03  0.79520062716E+02 0.  0.
         -6    2    1    2    0  501  0.60688572910E+02  0.24033403215E+02 -0.12066387209E+04  0.12205478641E+04  0.17175383066E+03 0.  0.
        -24    2    5    5    0    0  0.84421749423E+02  0.66619789319E+02 -0.91094713149E+03  0.92082721080E+03  0.80826033339E+02 0.  0.
          5    1    3    3  502    0  0.16073283131E+02  0.33209336426E+02 -0.83393568731E+02  0.91311487570E+02  0.47000000000E+01 0. -1.
        -13    1    4    4    0    0  0.32269777566E+01  0.94707976465E+01 -0.28195950577E+03  0.28213697433E+03  0.00000000000E+00 0.  1.
         14    1    4    4    0    0 -0.79988833797E+02 -0.66713537288E+02 -0.70939880605E+03  0.71700458549E+03  0.00000000000E+00 0. -1.
         -5    1    5    5    0  501 -0.23733176514E+02 -0.42586386104E+02 -0.29569158940E+03  0.29972065326E+03  0.47000000000E+01 0.  1.
         11    1    6    6    0    0  0.41270496398E+02  0.20608651091E+02 -0.14217310296E+03  0.14946960085E+03  0.00000000000E+00 0. -1.
        -12    1    6    6    0    0  0.43151253025E+02  0.46011138227E+02 -0.76877402853E+03  0.77135760995E+03  0.00000000000E+00 0.  1.
</event>
<event>
12    1  0.2689284E-002  0.1887873E+03  0.7818608E-02  0.1159560E+00
          1   -1    0    0  502    0  0.00000000000E+00  0.00000000000E+00  0.22554351493E+04  0.22554351493E+04  0.00000000000E+00 0. -1.
         -1   -1    0    0    0  501 -0.00000000000E+00 -0.00000000000E+00 -0.19425243689E+02  0.19425243689E+02  0.00000000000E+00 0.  1.
          6    2    1    2  502    0 -0.71477778408E+02 -0.25531217018E+02  0.16209535231E+04  0.16322006538E+04  0.17557828505E+03 0.  0.
         24    2    3    3    0    0 -0.27676734510E+02  0.27363515191E+02  0.13370587539E+04  0.13400795930E+04  0.81070590493E+02 0.  0.
         -6    2    1    2    0  501  0.71477778408E+02  0.25531217018E+02  0.61505638248E+03  0.64265973921E+03  0.17016542225E+03 0.  0.
        -24    2    5    5    0    0  0.71622388082E+02 -0.22770912145E+02  0.55327793854E+03  0.56409904465E+03  0.80268138091E+02 0.  0.
          5    1    3    3  502    0 -0.43801043897E+02 -0.52894732208E+02  0.28389476926E+03  0.29212106078E+03  0.47000000000E+01 0. -1.
        -13    1    4    4    0    0 -0.25464364972E+02  0.10137239758E+01  0.11739771650E+03  0.12013194979E+03  0.00000000000E+00 0.  1.
         14    1    4    4    0    0 -0.22123695388E+01  0.26349791215E+02  0.12196610374E+04  0.12199476432E+04  0.00000000000E+00 0. -1.
         -5    1    5    5    0  501 -0.14460967395E+00  0.48302129163E+02  0.61778443938E+02  0.78560694555E+02  0.47000000000E+01 0.  1.
         13    1    6    6    0    0  0.26962359507E+02  0.29179629499E+02  0.25336760655E+03  0.25646357180E+03  0.00000000000E+00 0. -1.
        -14    1    6    6    0    0  0.44660028574E+02 -0.51950541645E+02  0.29991033198E+03  0.30763547286E+03  0.00000000000E+00 0.  1.
</event>
<event>
12    1  0.2689284E-002  0.2836726E+03  0.7818608E-02  0.1093700E+00
         -2   -1    0    0    0  501 -0.00000000000E+00  0.00000000000E+00  0.68385856263E+03  0.68385856263E+03  0.00000000000E+00 0. -1.
          2   -1    0    0  502    0  0.00000000000E+00 -0.00000000000E+00 -0.12619939473E+03  0.12619939473E+03  0.00000000000E+00 0.  1.
          6    2    1    2  502    0  0.22547293147E+03 -0.13086868908E+02  0.38421821494E+03  0.47765418491E+03  0.17181552522E+03 0.  0.
         24    2    3    3    0    0  0.18455436035E+03 -0.30560533733E+02  0.17020128447E+03  0.25901065093E+03  0.55890803484E+02 0.  0.
         -6    2    1    2    0  501 -0.22547293147E+03  0.13086868908E+02  0.17344095296E+03  0.33240377244E+03  0.17146776608E+03 0.  0.
        -24    2    5    5    0    0 -0.16146623827E+03  0.24631664931E+02  0.42718429387E+02  0.18631952531E+03  0.78816472165E+02 0.  0.
          5    1    3    3  502    0  0.40918571125E+02  0.17473664825E+02  0.21401693046E+03  0.21864353398E+03  0.47000000000E+01 0. -1.
        -11    1    4    4    0    0 -0.87184499576E-01  0.13717267922E+01 -0.33398107768E+01  0.36115885084E+01  0.00000000000E+00 0.  1.
         12    1    4    4    0    0  0.18464154485E+03 -0.31932260525E+02  0.17354109525E+03  0.25539906242E+03  0.00000000000E+00 0. -1.
         -5    1    5    5    0  501 -0.64006693204E+02 -0.11544796023E+02  0.13072252358E+03  0.14608424713E+03  0.47000000000E+01 0.  1.
         13    1    6    6    0    0 -0.68417413815E+02 -0.30451895269E+01  0.55832528216E+02  0.88359984718E+02  0.00000000000E+00 0. -1.
        -14    1    6    6    0    0 -0.93048824455E+02  0.27676854457E+02 -0.13114098829E+02  0.97959540593E+02  0.00000000000E+00 0.  1.
</event>
<event>
12    1  0.2689284E-002  0.2709534E+03  0.7818608E-02  0.1100735E+00
          2   -1    0    0  502    0  0.00000000000E+00  0.00000000000E+00  0.17740839696E+04  0.17740839696E+04  0.00000000000E+00 0.  1.
         -2   -1    0    0    0  501 -0.00000000000E+00 -0.00000000000E+00 -0.11958893994E+03  0.11958893994E+03  0.00000000000E+00 0. -1.
          6    2    1    2  502    0 -0.12951375939E+03 -0.16130914018E+03  0.63116362790E+02  0.27963663294E+03  0.17725269717E+03 0.  0.
         24    2    3    3    0    0 -0.10367752490E+03 -0.17930904406E+03  0.15609949694E+02  0.22244872480E+03  0.79617850907E+02 0.  0.
         -6    2    1    2    0  501  0.12951375939E+03  0.16130914018E+03  0.15913786669E+04  0.16140362766E+04  0.17272112854E+03 0.  0.
        -24    2    5    5    0    0  0.85826327149E+02  0.15363704740E+03  0.87803898192E+03  0.89930342520E+03  0.82605665937E+02 0.  0.
          5    1    3    3  502    0 -0.25836234492E+02  0.17999903883E+02  0.47506413096E+02  0.57187908143E+02  0.47000000000E+01 0. -1.
        -13    1    4    4    0    0 -0.75187024977E+02 -0.16599251579E+03  0.34922944696E+02  0.18554303029E+03  0.00000000000E+00 0.  1.
         14    1    4    4    0    0 -0.28490499924E+02 -0.13316528271E+02 -0.19312995002E+02  0.36905694508E+02  0.00000000000E+00 0. -1.
         -5    1    5    5    0  501  0.43687432244E+02  0.76720927727E+01  0.71333968499E+03  0.71473285144E+03  0.47000000000E+01 0.  1.
         13    1    6    6    0    0  0.81072346681E+02  0.61256191747E+02  0.48416631958E+03  0.49471413103E+03  0.00000000000E+00 0. -1.
        -14    1    6    6    0    0  0.47539804683E+01  0.92380855657E+02  0.39387266234E+03  0.40458929417E+03  0.00000000000E+00 0.  1.
</event>
<event>
12    1  0.2689284E-002  0.1746503E+03  0.7818608E-02  0.1173083E+00
          2   -1    0    0  502    0  0.00000000000E+00  0.00000000000E+00  0.16380175478E+03  0.16380175478E+03  0.00000000000E+00 0. -1.
         -2   -1    0    0    0  501 -0.00000000000E+00 -0.00000000000E+00 -0.31001701883E+03  0.31001701883E+03  0.00000000000E+00 0.  1.
          6    2    1    2  502    0  0.31739245592E+02 -0.79117803250E+01 -0.22289620532E+03  0.28336580660E+03  0.17188218648E+03 0.  0.
         24    2    3    3    0    0 -0.19839079747E+02 -0.52146696855E+02 -0.73844231649E+02  0.11948892495E+03  0.75576223513E+02 0.  0.
         -6    2    1    2    0  501 -0.31739245592E+02  0.79117803250E+01  0.76680941264E+02  0.19045296701E+03  0.17123781683E+03 0.  0.
        -24    2    5    5    0    0  0.41645866098E+02 -0.25848034798E+02  0.43831948839E+02  0.10312458653E+03  0.79441434662E+02 0.  0.
          5    1    3    3  502    0  0.51578325339E+02  0.44234916530E+02 -0.14905197367E+03  0.16387688165E+03  0.47000000000E+01 0. -1.
        -11    1    4    4    0    0 -0.21031731271E+02 -0.15026901861E+02 -0.77949773083E+02  0.82123739707E+02  0.00000000000E+00 0.  1.
         12    1    4    4    0    0  0.11926515244E+01 -0.37119794993E+02  0.41055414335E+01  0.37365185246E+02  0.00000000000E+00 0. -1.
         -5    1    5    5    0  501 -0.73385111690E+02  0.33759815123E+02  0.32848992426E+02  0.87328380486E+02  0.47000000000E+01 0.  1.
         13    1    6    6    0    0  0.83189513018E+01 -0.45723370928E+02  0.26621546217E+01  0.46550173652E+02  0.00000000000E+00 0. -1.
        -14    1    6    6    0    0  0.33326914796E+02  0.19875336130E+02  0.41169794217E+02  0.56574412873E+02  0.00000000000E+00 0.  1.
</event>
<event>
12    1  0.2689284E-002  0.1812531E+03  0.7818608E-02  0.1166596E+00
          1   -1    0    0  502    0  0.00000000000E+00  0.00000000000E+00  0.28383557473E+04  0.28383557473E+04  0.00000000000E+00 0.  1.
         -1   -1    0    0    0  501 -0.00000000000E+00 -0.00000000000E+00 -0.12812671806E+02  0.12812671806E+02  0.00000000000E+00 0. -1.
          6    2    1    2  502    0 -0.41573846328E+02 -0.48790631699E+02  0.95557526418E+03  0.97223833452E+03  0.16737497770E+03 0.  0.
         24    2    3    3    0    0 -0.44560122855E+02 -0.94626172505E+02  0.76682329565E+03  0.77792104174E+03  0.78762068050E+02 0.  0.
         -6    2    1    2    0  501  0.41573846328E+02  0.48790631699E+02  0.18699678114E+04  0.18789300846E+04  0.17172576093E+03 0.  0.
        -24    2    5    5    0    0 -0.92030022927E+01  0.60327698674E+02  0.16484582786E+04  0.16513340491E+04  0.75929698175E+02 0.  0.
          5    1    3    3  502    0  0.29862765270E+01  0.45835540806E+02  0.18875196853E+03  0.19431729278E+03  0.47000000000E+01 0. -1.
        -13    1    4    4    0    0  0.86260784878E+01  0.54048261210E+01  0.17843431357E+03  0.17872444051E+03  0.00000000000E+00 0.  1.
         14    1    4    4    0    0 -0.53186201342E+02 -0.10003099863E+03  0.58838898208E+03  0.59919660123E+03  0.00000000000E+00 0. -1.
         -5    1    5    5    0  501  0.50776848620E+02 -0.11537066975E+02  0.22150953275E+03  0.22759603549E+03  0.47000000000E+01 0.  1.
         13    1    6    6    0    0 -0.18307241442E+01 -0.12640185966E+02  0.68879968279E+02  0.70054092545E+02  0.00000000000E+00 0. -1.
        -14    1    6    6    0    0 -0.73722781485E+01  0.72967884639E+02  0.15795783103E+04  0.15812799566E+04  0.00000000000E+00 0.  1.
</event>
<event>
12    1  0.2689284E-002  0.1944594E+03  0.7818608E-02  0.1154500E+00
          3   -1    0    0  502    0  0.00000000000E+00  0.00000000000E+00  0.10177538423E+03  0.10177538423E+03  0.00000000000E+00 0.  1.
         -3   -1    0    0    0  501 -0.00000000000E+00 -0.00000000000E+00 -0.38144557229E+03  0.38144557229E+03  0.00000000000E+00 0. -1.
          6    2    1    2  502    0 -0.82881688767E+02  0.34859825523E+02 -0.10076795802E+03  0.21882837444E+03  0.17218331606E+03 0.  0.
         24    2    3    3    0    0 -0.10620622782E+03 -0.11590648675E+02 -0.39958567691E+02  0.13869378374E+03  0.78899762683E+02 0.  0.
         -6    2    1    2    0  501  0.82881688767E+02 -0.34859825523E+02 -0.17890223004E+03  0.26439258208E+03  0.17266397359E+03 0.  0.
        -24    2    5    5    0    0  0.33888386736E+02  0.44969827047E+02 -0.89811718111E+02  0.13503908816E+03  0.83658248371E+02 0.  0.
          5    1    3    3  502    0  0.23324539052E+02  0.46450474198E+02 -0.60809390329E+02  0.80134590704E+02  0.47000000000E+01 0. -1.
        -13    1    4    4    0    0 -0.42943663658E+02  0.29836812767E+02 -0.34974839191E+02  0.62909721196E+02  0.00000000000E+00 0.  1.
         14    1    4    4    0    0 -0.63262564160E+02 -0.41427461442E+02 -0.49837284999E+01  0.75784062542E+02  0.00000000000E+00 0. -1.
         -5    1    5    5    0  501  0.48993302031E+02 -0.79829652570E+02 -0.89090511934E+02  0.12935349392E+03  0.47000000000E+01 0.  1.
         13    1    6    6    0    0 -0.24989684075E+02 -0.26330712649E+01 -0.22655623176E+02  0.33833336163E+02  0.00000000000E+00 0. -1.
        -14    1    6    6    0    0  0.58878070811E+02  0.47602898312E+02 -0.67156094935E+02  0.10120575200E+03  0.00000000000E+00 0.  1.
</event>
<event>
12    1  0.2689284E-002  0.5651941E+03  0.7818608E-02  0.9980370E-01
         -2   -1    0    0    0  501 -0.00000000000E+00  0.00000000000E+00  0.25036285334E+03  0.25036285334E+03  0.00000000000E+00 0. -1.
          2   -1    0    0  502    0  0.00000000000E+00 -0.00000000000E+00 -0.18741090228E+04  0.18741090228E+04  0.00000000000E+00 0.  1.
          6    2    1    2  502    0  0.16754671609E+03  0.51214664081E+03 -0.14115850024E+04  0.15203755239E+04  0.16912548851E+03 0.  0.
         24    2    3    3    0    0  0.82053847672E+02  0.43480859215E+03 -0.11225287160E+04  0.12091427637E+04  0.78512158142E+02 0.  0.
         -6    2    1    2    0  501 -0.16754671609E+03 -0.51214664081E+03 -0.21216116713E+03  0.60409635231E+03  0.17191264722E+03 0.  0.
        -24    2    5    5    0    0 -0.78880778232E+02 -0.28996203176E+03 -0.49801280370E+02  0.31494159814E+03  0.80049270280E+02 0.  0.
          5    1    3    3  502    0  0.85492868421E+02  0.77338048661E+02 -0.28905628639E+03  0.31123276020E+03  0.47000000000E+01 0. -1.
        -13    1    4    4    0    0  0.71409392311E+02  0.23848550989E+03 -0.70435895371E+03  0.74705834806E+03  0.00000000000E+00 0.  1.
         14    1    4    4    0    0  0.10644455361E+02  0.19632308226E+03 -0.41816976227E+03  0.46208441560E+03  0.00000000000E+00 0. -1.
         -5    1    5    5    0  501 -0.88665937861E+02 -0.22218460905E+03 -0.16235988676E+03  0.28915475418E+03  0.47000000000E+01 0.  1.
         13    1    6    6    0    0 -0.11635612468E+02 -0.93889206013E+02 -0.51365519099E+02  0.10765215760E+03  0.00000000000E+00 0. -1.
        -14    1    6    6    0    0 -0.67245165764E+02 -0.19607282575E+03  0.15642387290E+01  0.20728944054E+03  0.00000000000E+00 0.  1.
</event>
<event>
12    1  0.2689284E-002  0.2095887E+03  0.7818608E-02  0.1141892E+00
         -2   -1    0    0    0  501 -0.00000000000E+00  0.00000000000E+00  0.82878270329E+02  0.82878270329E+02  0.00000000000E+00 0. -1.
          2   -1    0    0  502    0  0.00000000000E+00 -0.00000000000E+00 -0.57475940548E+03  0.57475940548E+03  0.00000000000E+00 0.  1.
          6    2    1    2  502    0 -0.90941665139E+02  0.79058134160E+02 -0.15398141578E+03  0.25990640027E+03  0.17123225590E+03 0.  0.
         24    2    3    3    0    0 -0.12871796015E+03  0.46083001346E+02 -0.10963453492E+03  0.19280093335E+03  0.80377312576E+02 0.  0.
         -6    2    1    2    0  501  0.90941665139E+02 -0.79058134160E+02 -0.33789971937E+03  0.39773127554E+03  0.17173634488E+03 0.  0.
        -24    2    5    5    0    0 -0.19364828107E+02 -0.25455784956E+02 -0.11555354164E+03  0.14376149969E+03  0.79320578995E+02 0.  0.
          5    1    3    3  502    0  0.37776295007E+02  0.32975132814E+02 -0.44346880855E+02  0.67105466917E+02  0.47000000000E+01 0. -1.
        -13    1    4    4    0    0 -0.12721077653E+03  0.25907130058E+02 -0.11321571737E+03  0.17225434599E+03  0.00000000000E+00 0.  1.
         14    1    4    4    0    0 -0.15071836136E+01  0.20175871288E+02  0.35811824404E+01  0.20546587365E+02  0.00000000000E+00 0. -1.
         -5    1    5    5    0  501  0.11030649325E+03 -0.53602349204E+02 -0.22234617773E+03  0.25396977585E+03  0.47000000000E+01 0.  1.
         11    1    6    6    0    0  0.14956354771E+02 -0.29880078195E+02 -0.13566274054E+02  0.36063214121E+02  0.00000000000E+00 0. -1.
        -12    1    6    6    0    0 -0.34321182878E+02  0.44242932396E+01 -0.10198726759E+03  0.10769828557E+03  0.00000000000E+00 0.  1.
</event>
<event>
12    1  0.2689284E-002  0.1722991E+03  0.7818608E-02  0.1175471E+00
         -2   -1    0    0    0  501 -0.00000000000E+00  0.00000000000E+00  0.12116671261E+03  0.12116671261E+03  0.00000000000E+00 0. -1.
          2   -1    0    0  502    0  0.00000000000E+00 -0.00000000000E+00 -0.27139020472E+03  0.27139020472E+03  0.00000000000E+00 0.  1.
          6    2    1    2  502    0 -0.20312260665E+02  0.17428546447E+00 -0.13662016927E+03  0.22052983733E+03  0.17191777161E+03 0.  0.
         24    2    3    3    0    0  0.17315160155E+02 -0.57334781095E+02 -0.79052483050E+02  0.13075654492E+03  0.85210838914E+02 0.  0.
         -6    2    1    2    0  501  0.20312260665E+02 -0.17428546447E+00 -0.13603322847E+02  0.17202708000E+03  0.17028108396E+03 0.  0.
        -24    2    5    5    0    0 -0.26422816417E+02  0.38515845336E+02 -0.47048856463E+02  0.10258798892E+03  0.78288345285E+02 0.  0.
          5    1    3    3  502    0 -0.37627420821E+02  0.57509066559E+02 -0.57567686218E+02  0.89773292413E+02  0.47000000000E+01 0. -1.
        -13    1    4    4    0    0  0.40774950903E+02 -0.28749409107E+01 -0.50419691633E+02  0.64907682217E+02  0.00000000000E+00 0.  1.
         14    1    4    4    0    0 -0.23459790748E+02 -0.54459840184E+02 -0.28632791416E+02  0.65848862702E+02  0.00000000000E+00 0. -1.
         -5    1    5    5    0  501  0.46735077082E+02 -0.38690130801E+02  0.33445533616E+02  0.69439091081E+02  0.47000000000E+01 0.  1.
         11    1    6    6    0    0 -0.12556268842E+02  0.17894641725E+02  0.20896260095E+02  0.30241226424E+02  0.00000000000E+00 0. -1.
        -12    1    6    6    0    0 -0.13866547574E+02  0.20621203611E+02 -0.67945116558E+02  0.72346762499E+02  0.00000000000E+00 0.  1.
</event>
<event>
12    1  0.2689284E-002  0.2402446E+03  0.7818608E-02  0.1119630E+00
          2   -1    0    0  502    0  0.00000000000E+00  0.00000000000E+00  0.10903734667E+03  0.10903734667E+03  0.00000000000E+00 0.  1.
         -2   -1    0    0    0  501 -0.00000000000E+00 -0.00000000000E+00 -0.53044537932E+03  0.53044537932E+03  0.00000000000E+00 0. -1.
          6    2    1    2  502    0 -0.11593673581E+03  0.12128728046E+03 -0.19679474487E+03  0.31115336662E+03  0.17302113985E+03 0.  0.
         24    2    3    3    0    0 -0.89071188245E+02  0.13256409703E+03 -0.20731268657E+03  0.27982221062E+03  0.99070697726E+02 0.  0.
         -6    2    1    2    0  501  0.11593673581E+03 -0.12128728046E+03 -0.22461328778E+03  0.32832935937E+03  0.17087161282E+03 0.  0.
        -24    2    5    5    0    0  0.53899604120E+01 -0.97229140303E+02 -0.13080442241E+03  0.18128658709E+03  0.79198941529E+02 0.  0.
          5    1    3    3  502    0 -0.26865547570E+02 -0.11276816567E+02  0.10517941705E+02  0.31331155993E+02  0.47000000000E+01 0. -1.
        -13    1    4    4    0    0 -0.65555856231E+02  0.33061180115E+02 -0.39648546154E+02  0.83442310184E+02  0.00000000000E+00 0.  1.
         14    1    4    4    0    0 -0.23515332014E+02  0.99502916910E+02 -0.16766414042E+03  0.19637990044E+03  0.00000000000E+00 0. -1.
         -5    1    5    5    0  501  0.11054677540E+03 -0.24058140155E+02 -0.93808865368E+02  0.14704277229E+03  0.47000000000E+01 0.  1.
         13    1    6    6    0    0  0.13528152206E+02 -0.24793825548E+02 -0.96832650190E+02  0.10086776904E+03  0.00000000000E+00 0. -1.
        -14    1    6    6    0    0 -0.81381917940E+01 -0.72435314756E+02 -0.33971772218E+02  0.80418818053E+02  0.00000000000E+00 0.  1.
</event>
<event>
12    1  0.2689284E-002  0.1823270E+03  0.7818608E-02  0.1165570E+00
          2   -1    0    0  502    0  0.00000000000E+00  0.00000000000E+00  0.33881445697E+04  0.33881445697E+04  0.00000000000E+00 0. -1.
         -2   -1    0    0    0  501 -0.00000000000E+00 -0.00000000000E+00 -0.17578127892E+02  0.17578127892E+02  0.00000000000E+00 0.  1.
          6    2    1    2  502    0 -0.10159312815E+02 -0.61421964978E+02  0.28200211288E+04  0.28259448769E+04  0.17195758445E+03 0.  0.
         24    2    3    3    0    0 -0.24445151026E+02  0.15597928687E+02  0.21037081721E+04  0.21053461736E+04  0.77804734087E+02 0.  0.
         -6    2    1    2    0  501  0.10159312815E+02  0.61421964978E+02  0.55054531292E+03  0.57977782063E+03  0.17078146941E+03 0.  0.
        -24    2    5    5    0    0  0.39556199025E+02 -0.21666406413E+02  0.25794358215E+03  0.27415433130E+03  0.81188544448E+02 0.  0.
          5    1    3    3  502    0  0.14285838211E+02 -0.77019893665E+02  0.71631295679E+03  0.72059870334E+03  0.47000000000E+01 0. -1.
        -11    1    4    4    0    0 -0.26893389195E+02  0.22814220584E+02  0.38279313712E+03  0.38441426725E+03  0.00000000000E+00 0.  1.
         12    1    4    4    0    0  0.24482381690E+01 -0.72162918972E+01  0.17209150349E+04  0.17209319063E+04  0.00000000000E+00 0. -1.
         -5    1    5    5    0  501 -0.29396886210E+02  0.83088371391E+02  0.29260173077E+03  0.30562348933E+03  0.47000000000E+01 0.  1.
         13    1    6    6    0    0  0.35740575554E+01 -0.25375726508E+02  0.22089062226E+03  0.22237213941E+03  0.00000000000E+00 0. -1.
        -14    1    6    6    0    0  0.35982141470E+02  0.37093200957E+01  0.37052959893E+02  0.51782191892E+02  0.00000000000E+00 0.  1.
</event>
<event>
12    1  0.2689284E-002  0.1912304E+03  0.7818608E-02  0.1157356E+00
         -3   -1    0    0    0  501 -0.00000000000E+00  0.00000000000E+00  0.29875373487E+03  0.29875373487E+03  0.00000000000E+00 0.  1.
          3   -1    0    0  502    0  0.00000000000E+00 -0.00000000000E+00 -0.12743579635E+03  0.12743579635E+03  0.00000000000E+00 0. -1.
          6    2    1    2  502    0  0.82516964933E+02  0.25526191694E+02  0.12954385663E+03  0.23450101407E+03  0.17535244180E+03 0.  0.
         24    2    3    3    0    0  0.14934107570E+02  0.63641658364E+02  0.22065713883E+02  0.10185911806E+03  0.74933943938E+02 0.  0.
         -6    2    1    2    0  501 -0.82516964933E+02 -0.25526191694E+02  0.41774081893E+02  0.19168851716E+03  0.16594811758E+03 0.  0.
        -24    2    5    5    0    0 -0.11414519423E+03  0.12333154899E+02  0.41075229394E+02  0.14212791378E+03  0.73020115927E+02 0.  0.
          5    1    3    3  502    0  0.67582857363E+02 -0.38115466670E+02  0.10747814274E+03  0.13264189601E+03  0.47000000000E+01 0. -1.
        -11    1    4    4    0    0 -0.39940749349E+00  0.66505333764E+02  0.40377665139E+02  0.77804079504E+02  0.00000000000E+00 0.  1.
         12    1    4    4    0    0  0.15333515064E+02 -0.28636754005E+01 -0.18311951256E+02  0.24055038553E+02  0.00000000000E+00 0. -1.
         -5    1    5    5    0  501  0.31628229292E+02 -0.37859346593E+02  0.69885249902E+00  0.49560603380E+02  0.47000000000E+01 0.  1.
         13    1    6    6    0    0 -0.11537523666E+03 -0.17872413959E+01  0.20581515161E+02  0.11721023092E+03  0.00000000000E+00 0. -1.
        -14    1    6    6    0    0  0.12300424320E+01  0.14120396295E+02  0.20493714233E+02  0.24917682858E+02  0.00000000000E+00 0.  1.
</event>
<event>
12    1  0.2689284E-002  0.1876232E+03  0.7818608E-02  0.1160623E+00
         -2   -1    0    0    0  501 -0.00000000000E+00  0.00000000000E+00  0.35443928040E+02  0.35443928040E+02  0.00000000000E+00 0.  1.
          2   -1    0    0  502    0  0.00000000000E+00 -0.00000000000E+00 -0.12052436033E+04  0.12052436033E+04  0.00000000000E+00 0. -1.
          6    2    1    2  502    0  0.76684787662E+02  0.13452318163E+02 -0.84118753585E+03  0.86153215810E+03  0.16905522012E+03 0.  0.
         24    2    3    3    0    0  0.44633687130E+02  0.38029481646E+02 -0.79025156719E+03  0.79635645010E+03  0.79042068973E+02 0.  0.
         -6    2    1    2    0  501 -0.76684787662E+02 -0.13452318163E+02 -0.32861213941E+03  0.37915537324E+03  0.17236976929E+03 0.  0.
        -24    2    5    5    0    0 -0.79973594564E+02  0.36866870152E+02 -0.30236849087E+03  0.32211454530E+03  0.67647129134E+02 0.  0.
          5    1    3    3  502    0  0.32051100533E+02 -0.24577163483E+02 -0.50935968663E+02  0.65175708005E+02  0.47000000000E+01 0. -1.
        -11    1    4    4    0    0 -0.13809208001E+01 -0.81804158605E+01 -0.84571678822E+01  0.11846933548E+02  0.00000000000E+00 0.  1.
         12    1    4    4    0    0  0.46014607930E+02  0.46209897507E+02 -0.78179439931E+03  0.78450951655E+03  0.00000000000E+00 0. -1.
         -5    1    5    5    0  501  0.32888069018E+01 -0.50319188315E+02 -0.26243648543E+02  0.57040827943E+02  0.47000000000E+01 0.  1.
         11    1    6    6    0    0 -0.29272797707E+02 -0.26950398994E+00 -0.19899116906E+03  0.20113292789E+03  0.00000000000E+00 0. -1.
        -12    1    6    6    0    0 -0.50700796857E+02  0.37136374142E+02 -0.10337732182E+03  0.12098161741E+03  0.00000000000E+00 0.  1.
</event>
<event>
12    1  0.2689284E-002  0.2142425E+03  0.7818608E-02  0.1138250E+00
         -2   -1    0    0    0  501 -0.00000000000E+00  0.00000000000E+00  0.35483850716E+02  0.35483850716E+02  0.00000000000E+00 0.  1.
          2   -1    0    0  502    0  0.00000000000E+00 -0.00000000000E+00 -0.14404436538E+04  0.14404436538E+04  0.00000000000E+00 0. -1.
          6    2    1    2  502    0 -0.36476510014E+02  0.12281226766E+03 -0.93704502537E+03  0.96114183453E+03  0.17125086171E+03 0.  0.
         24    2    3    3    0    0  0.44282778355E+02  0.74164275888E+02 -0.60506593135E+03  0.61600287899E+03  0.76768882814E+02 0.  0.
         -6    2    1    2    0  501  0.36476510014E+02 -0.12281226766E+03 -0.46791477772E+03  0.51478566999E+03  0.17218204887E+03 0.  0.
        -24    2    5    5    0    0  0.71898314072E+02 -0.47208475432E+02 -0.35842782871E+03  0.37701731512E+03  0.79205680262E+02 0.  0.
          5    1    3    3  502    0 -0.80759288369E+02  0.48647991772E+02 -0.33197909402E+03  0.34513895554E+03  0.47000000000E+01 0. -1.
        -11    1    4    4    0    0  0.15145997569E+01 -0.89224407155E+01 -0.20374242138E+03  0.20394332112E+03  0.00000000000E+00 0.  1.
         12    1    4    4    0    0  0.42768178598E+02  0.83086716603E+02 -0.40132350997E+03  0.41205955787E+03  0.00000000000E+00 0. -1.
         -5    1    5    5    0  501 -0.35421804057E+02 -0.75603792227E+02 -0.10948694900E+03  0.13776835487E+03  0.47000000000E+01 0.  1.
         11    1    6    6    0    0  0.62865381096E+02 -0.44369469699E+02 -0.35935761828E+03  0.36750320243E+03  0.00000000000E+00 0. -1.
        -12    1    6    6    0    0  0.90329329762E+01 -0.28390057328E+01  0.92978956265E+00  0.95141126930E+01  0.00000000000E+00 0.  1.
</event>
<event>
12    1  0.2689284E-002  0.1748891E+03  0.7818608E-02  0.1172843E+00
          2   -1    0    0  502    0  0.00000000000E+00  0.00000000000E+00  0.29398352845E+03  0.29398352845E+03  0.00000000000E+00 0. -1.
         -2   -1    0    0    0  501 -0.00000000000E+00 -0.00000000000E+00 -0.14898690086E+03  0.14898690086E+03  0.00000000000E+00 0.  1.
          6    2    1    2  502    0 -0.34874945354E+02 -0.72350525772E+01  0.19435458929E+03  0.26193868706E+03  0.17195802279E+03 0.  0.
         24    2    3    3    0    0 -0.53982493254E+01 -0.41391251645E+02  0.19773054885E+03  0.21645233035E+03  0.77536214485E+02 0.  0.
         -6    2    1    2    0  501  0.34874945354E+02  0.72350525772E+01 -0.49357961705E+02  0.18103174224E+03  0.17049245003E+03 0.  0.
        -24    2    5    5    0    0  0.63171567537E+02 -0.42538743966E+02 -0.82380887775E+01  0.11038428228E+03  0.79477241929E+02 0.  0.
          5    1    3    3  502    0 -0.29476696029E+02  0.34156199068E+02 -0.33759595612E+01  0.45486356707E+02  0.47000000000E+01 0. -1.
        -13    1    4    4    0    0  0.15511136567E+02 -0.19560259926E+02  0.10981572049E+02  0.27272587898E+02  0.00000000000E+00 0.  1.
         14    1    4    4    0    0 -0.20909385892E+02 -0.21830991720E+02  0.18674897681E+03  0.18917974246E+03  0.00000000000E+00 0. -1.
         -5    1    5    5    0  501 -0.28296622183E+02  0.49773796544E+02 -0.41119872927E+02  0.70647459961E+02  0.47000000000E+01 0.  1.
         13    1    6    6    0    0  0.77983145847E+02 -0.15947792694E+02 -0.46022624693E+01  0.79730069283E+02  0.00000000000E+00 0. -1.
        -14    1    6    6    0    0 -0.14811578310E+02 -0.26590951273E+02 -0.36358263082E+01  0.30654212999E+02  0.00000000000E+00 0.  1.
</event>
<event>
12    1  0.2689284E-002  0.1984009E+03  0.7818608E-02  0.1151095E+00
          1   -1    0    0  502    0  0.00000000000E+00  0.00000000000E+00  0.13433619354E+04  0.13433619354E+04  0.00000000000E+00 0. -1.
         -1   -1    0    0    0  501 -0.00000000000E+00 -0.00000000000E+00 -0.33496392669E+02  0.33496392669E+02  0.00000000000E+00 0.  1.
          6    2    1    2  502    0 -0.82043774972E+02 -0.55374844218E+02  0.90039540910E+03  0.92213382538E+03  0.17268857751E+03 0.  0.
         24    2    3    3    0    0 -0.11869197042E+03 -0.45211456113E+02  0.81243093546E+03  0.82618475915E+03  0.80033566450E+02 0.  0.
         -6    2    1    2    0  501  0.82043774972E+02  0.55374844218E+02  0.40947013368E+03  0.45472450273E+03  0.17120463962E+03 0.  0.
        -24    2    5    5    0    0  0.15866931858E+02 -0.28592488453E+02  0.23602443082E+03  0.25092217360E+03  0.78645504244E+02 0.  0.
          5    1    3    3  502    0  0.36648195450E+02 -0.10163388105E+02  0.87964473641E+02  0.95949066230E+02  0.47000000000E+01 0. -1.
        -11    1    4    4    0    0 -0.71841074948E+02 -0.43966549249E+01  0.24476056641E+03  0.25512390224E+03  0.00000000000E+00 0.  1.
         12    1    4    4    0    0 -0.46850895474E+02 -0.40814801188E+02  0.56767036905E+03  0.57106085692E+03  0.00000000000E+00 0. -1.
         -5    1    5    5    0  501  0.66176843114E+02  0.83967332670E+02  0.17344570286E+03  0.20380232914E+03  0.47000000000E+01 0.  1.
         13    1    6    6    0    0  0.47835665096E+01  0.67802827217E+01  0.19672105378E+03  0.19689598203E+03  0.00000000000E+00 0. -1.
        -14    1    6    6    0    0  0.11083365348E+02 -0.35372771174E+02  0.39303377040E+02  0.54026191563E+02  0.00000000000E+00 0.  1.
</event>
<event>
12    1  0.2689284E-002  0.1757316E+03  0.7818608E-02  0.1171999E+00
         -1   -1    0    0    0  501 -0.00000000000E+00  0.00000000000E+00  0.28259097486E+03  0.28259097486E+03  0.00000000000E+00 0. -1.
          1   -1    0    0  502    0  0.00000000000E+00 -0.00000000000E+00 -0.11627586929E+03  0.11627586929E+03  0.00000000000E+00 0.  1.
          6    2    1    2  502    0 -0.27767891856E+02  0.13454810067E+02  0.34666966983E+02  0.18003872410E+03  0.17395417743E+03 0.  0.
         24    2    3    3    0    0  0.44198194835E+02  0.35221547199E+02  0.55015456809E+00  0.97340747293E+02  0.79252006913E+02 0.  0.
         -6    2    1    2    0  501  0.27767891856E+02 -0.13454810067E+02  0.13164813859E+03  0.21882812006E+03  0.17205355562E+03 0.  0.
        -24    2    5    5    0    0 -0.23126842864E+02  0.44120814456E+02  0.84035251599E+02  0.12830572742E+03  0.83180160184E+02 0.  0.
          5    1    3    3  502    0 -0.71966086691E+02 -0.21766737132E+02  0.34116812415E+02  0.82697976809E+02  0.47000000000E+01 0. -1.
        -13    1    4    4    0    0  0.26673024959E+02  0.32158924302E+02 -0.36987392579E+02  0.55800662026E+02  0.00000000000E+00 0.  1.
         14    1    4    4    0    0  0.17525169876E+02  0.30626228968E+01  0.37537547147E+02  0.41540085267E+02  0.00000000000E+00 0. -1.
         -5    1    5    5    0  501  0.50894734720E+02 -0.57575624523E+02  0.47612886987E+02  0.90522392637E+02  0.47000000000E+01 0.  1.
         13    1    6    6    0    0 -0.17099312114E+02  0.10458449127E+02  0.91190531496E+02  0.93367439010E+02  0.00000000000E+00 0. -1.
        -14    1    6    6    0    0 -0.60275307504E+01  0.33662365330E+02 -0.71552798971E+01  0.34938288409E+02  0.00000000000E+00 0.  1.
</event>
<event>
12    1  0.2689284E-002  0.2614141E+03  0.7818608E-02  0.1106297E+00
          2   -1    0    0  502    0  0.00000000000E+00  0.00000000000E+00  0.70667328646E+03  0.70667328646E+03  0.00000000000E+00 0. -1.
         -2   -1    0    0    0  501 -0.00000000000E+00 -0.00000000000E+00 -0.10787397638E+03  0.10787397638E+03  0.00000000000E+00 0.  1.
          6    2    1    2  502    0 -0.19545678313E+03  0.10212740827E+02  0.43047433468E+03  0.50363893123E+03  0.17331002881E+03 0.  0.
         24    2    3    3    0    0 -0.21090540383E+03 -0.17524019386E+02  0.34918139714E+03  0.41623973534E+03  0.80868340828E+02 0.  0.
         -6    2    1    2    0  501  0.19545678313E+03 -0.10212740827E+02  0.16832497539E+03  0.31090833161E+03  0.17327157637E+03 0.  0.
        -24    2    5    5    0    0  0.11992469266E+03  0.21639260548E+02  0.17616018126E+03  0.22842726025E+03  0.79349948053E+02 0.  0.
          5    1    3    3  502    0  0.15448620694E+02  0.27736760213E+02  0.81292937546E+02  0.87399195896E+02  0.47000000000E+01 0. -1.
        -11    1    4    4    0    0 -0.13234654167E+03 -0.49293896796E+02  0.20349430039E+03  0.24770027381E+03  0.00000000000E+00 0.  1.
         12    1    4    4    0    0 -0.78558862160E+02  0.31769877410E+02  0.14568709675E+03  0.16853946153E+03  0.00000000000E+00 0. -1.
         -5    1    5    5    0  501  0.75532090473E+02 -0.31852001375E+02 -0.78352058642E+01  0.82481071366E+02  0.47000000000E+01 0.  1.
         11    1    6    6    0    0  0.46252854856E+01  0.57205490596E+01  0.71565897557E+02  0.71943002721E+02  0.00000000000E+00 0. -1.
        -12    1    6    6    0    0  0.11529940718E+03  0.15918711489E+02  0.10459428370E+03  0.15648425752E+03  0.00000000000E+00 0.  1.
</event>
<event>
12    1  0.2689284E-002  0.1790501E+03  0.7818608E-02  0.1168726E+00
         -2   -1    0    0    0  501 -0.00000000000E+00  0.00000000000E+00  0.26026965182E+02  0.26026965182E+02  0.00000000000E+00 0.  1.
          2   -1    0    0  502    0  0.00000000000E+00 -0.00000000000E+00 -0.13482552683E+04  0.13482552683E+04  0.00000000000E+00 0. -1.
          6    2    1    2  502    0 -0.54968128194E+02  0.43857383640E+02 -0.84053076597E+03  0.85812870464E+03  0.15794916893E+03 0.  0.
         24    2    3    3    0    0 -0.66683903789E+02  0.37612288668E+02 -0.83587758737E+03  0.84329621732E+03  0.81214172358E+02 0.  0.
         -6    2    1    2    0  501  0.54968128194E+02 -0.43857383640E+02 -0.48169753710E+03  0.51615352880E+03  0.17157209220E+03 0.  0.
        -24    2    5    5    0    0  0.79091961108E+02 -0.45341911337E+02 -0.20360615944E+03  0.23697425402E+03  0.79936860516E+02 0.  0.
          5    1    3    3  502    0  0.11715775595E+02  0.62450949717E+01 -0.46531785986E+01  0.14832487319E+02  0.47000000000E+01 0. -1.
        -11    1    4    4    0    0  0.16600692644E+02 -0.50619918568E+01 -0.16806205188E+03  0.16895579315E+03  0.00000000000E+00 0.  1.
         12    1    4    4    0    0 -0.83284596433E+02  0.42674280525E+02 -0.66781553549E+03  0.67434042417E+03  0.00000000000E+00 0. -1.
         -5    1    5    5    0  501 -0.24123832914E+02  0.14845276972E+01 -0.27809137766E+03  0.27917927478E+03  0.47000000000E+01 0.  1.
         13    1    6    6    0    0  0.33353811755E+02  0.21892889995E+02 -0.69700460179E+02  0.80311453356E+02  0.00000000000E+00 0. -1.
        -14    1    6    6    0    0  0.45738149353E+02 -0.67234801332E+02 -0.13390569926E+03  0.15666280066E+03  0.00000000000E+00 0.  1.
</event>
<event>
12    1  0.2689284E-002  0.1800823E+03  0.7818608E-02  0.1167723E+00
         -2   -1    0    0    0  501 -0.00000000000E+00  0.00000000000E+00  0.44888480357E+02  0.44888480357E+02  0.00000000000E+00 0.  1.
          2   -1    0    0  502    0  0.00000000000E+00 -0.00000000000E+00 -0.90884988708E+03  0.90884988708E+03  0.00000000000E+00 0. -1.
          6    2    1    2  502    0 -0.37784997879E+02 -0.31103659425E+02 -0.65008502808E+03  0.67487123746E+03  0.17448638839E+03 0.  0.
         24    2    3    3    0    0  0.28345898186E+02  0.22759969465E+02 -0.22769407660E+03  0.24392948755E+03  0.79595830436E+02 0.  0.
         -6    2    1    2    0  501  0.37784997879E+02  0.31103659425E+02 -0.21387637864E+03  0.27886712997E+03  0.17212968118E+03 0.  0.
        -24    2    5    5    0    0 -0.41314596684E+02 -0.38000008424E+01 -0.77694818783E+02  0.11749018426E+03  0.77756817235E+02 0.  0.
          5    1    3    3  502    0 -0.66130896065E+02 -0.53863628890E+02 -0.42239095147E+03  0.43094174991E+03  0.47000000000E+01 0. -1.
        -13    1    4    4    0    0 -0.98200921038E+01  0.38790283561E+02 -0.15688932232E+03  0.16191164185E+03  0.00000000000E+00 0.  1.
         14    1    4    4    0    0  0.38165990290E+02 -0.16030314096E+02 -0.70804754284E+02  0.82017845705E+02  0.00000000000E+00 0. -1.
         -5    1    5    5    0  501  0.79099594563E+02  0.34903660268E+02 -0.13618155986E+03  0.16137694571E+03  0.47000000000E+01 0.  1.
         13    1    6    6    0    0  0.33683762768E+01 -0.20581726099E+02 -0.64764029805E+02  0.68039201675E+02  0.00000000000E+00 0. -1.
        -14    1    6    6    0    0 -0.44682972960E+02  0.16781725257E+02 -0.12930788978E+02  0.49450982587E+02  0.00000000000E+00 0.  1.
</event>
<event>
12    1  0.2689284E-002  0.1920886E+03  0.7818608E-02  0.1156591E+00
          1   -1    0    0  502    0  0.00000000000E+00  0.00000000000E+00  0.61322569423E+02  0.61322569423E+02  0.00000000000E+00 0.  1.
         -1   -1    0    0    0  501 -0.00000000000E+00 -0.00000000000E+00 -0.61884883866E+03  0.61884883866E+03  0.00000000000E+00 0. -1.
          6    2    1    2  502    0  0.73776411831E+02 -0.45193099939E+02 -0.22184243526E+03  0.29330240640E+03  0.17125086947E+03 0.  0.
         24    2    3    3    0    0  0.80286740297E+01  0.23692638233E+02 -0.57334712834E+02  0.10316327133E+03  0.82034081590E+02 0.  0.
         -6    2    1    2    0  501 -0.73776411831E+02  0.45193099939E+02 -0.33568383398E+03  0.38686900169E+03  0.17175160216E+03 0.  0.
        -24    2    5    5    0    0 -0.94846980994E+02 -0.17910133913E+02 -0.22900334430E+03  0.26105642725E+03  0.79945004890E+02 0.  0.
          5    1    3    3  502    0  0.65747737802E+02 -0.68885738172E+02 -0.16450772242E+03  0.19013913507E+03  0.47000000000E+01 0. -1.
        -13    1    4    4    0    0  0.11310803644E+02 -0.28223714536E+02 -0.35513987594E+02  0.46752065795E+02  0.00000000000E+00 0.  1.
         14    1    4    4    0    0 -0.32821296139E+01  0.51916352769E+02 -0.21820725240E+02  0.56411205533E+02  0.00000000000E+00 0. -1.
         -5    1    5    5    0  501  0.21070569163E+02  0.63103233852E+02 -0.10668048968E+03  0.12581257443E+03  0.47000000000E+01 0.  1.
         13    1    6    6    0    0 -0.38784754838E+02 -0.28688474804E+02 -0.17827042504E+03  0.18468251200E+03  0.00000000000E+00 0. -1.
        -14    1    6    6    0    0 -0.56062226156E+02  0.10778340891E+02 -0.50732919262E+02  0.76373915251E+02  0.00000000000E+00 0.  1.
</event>
<event>
12    1  0.2689284E-002  0.1842244E+03  0.7818608E-02  0.1163776E+00
         -2   -1    0    0    0  501 -0.00000000000E+00  0.00000000000E+00  0.36567728147E+02  0.36567728147E+02  0.00000000000E+00 0. -1.
          2   -1    0    0  502    0  0.00000000000E+00 -0.00000000000E+00 -0.94614958920E+03  0.94614958920E+03  0.00000000000E+00 0.  1.
          6    2    1    2  502    0 -0.65251025585E+02  0.99564410018E+01 -0.52233589054E+03  0.55382806990E+03  0.17185436104E+03 0.  0.
         24    2    3    3    0    0 -0.59000727786E+02 -0.54407685655E+02 -0.23942001242E+03  0.26357767608E+03  0.75564322545E+02 0.  0.
         -6    2    1    2    0  501  0.65251025585E+02 -0.99564410018E+01 -0.38724597052E+03  0.42888924745E+03  0.17213284939E+03 0.  0.
        -24    2    5    5    0    0 -0.96572033820E+01  0.22997720967E+02 -0.10255063537E+03  0.13262797186E+03  0.80320541322E+02 0.  0.
          5    1    3    3  502    0 -0.62502977985E+01  0.64364126657E+02 -0.28291587812E+03  0.29025039382E+03  0.47000000000E+01 0. -1.
        -11    1    4    4    0    0 -0.37360465677E+02  0.90536729929E+01 -0.12690441167E+03  0.13259903126E+03  0.00000000000E+00 0.  1.
         12    1    4    4    0    0 -0.21640262109E+02 -0.63461358648E+02 -0.11251560075E+03  0.13097864481E+03  0.00000000000E+00 0. -1.
         -5    1    5    5    0  501  0.74908228967E+02 -0.32954161969E+02 -0.28469533515E+03  0.29626127559E+03  0.47000000000E+01 0.  1.
         11    1    6    6    0    0  0.92915327550E+01  0.15392116068E+02 -0.10957128462E+03  0.11103655358E+03  0.00000000000E+00 0. -1.
        -12    1    6    6    0    0 -0.18948736137E+02  0.76056048987E+01  0.70206492564E+01  0.21591418273E+02  0.00000000000E+00 0.  1.
</event>
<event>
12    1  0.2689284E-002  0.1809175E+03  0.7818608E-02  0.1166918E+00
         -2   -1    0    0    0  501 -0.00000000000E+00  0.00000000000E+00  0.14430462208E+02  0.14430462208E+02  0.00000000000E+00 0.  1.
          2   -1    0    0  502    0  0.00000000000E+00 -0.00000000000E+00 -0.24336409992E+04  0.24336409992E+04  0.00000000000E+00 0. -1.
          6    2    1    2  502    0 -0.16260526534E+02 -0.53476613113E+02 -0.89375610175E+03  0.91198795434E+03  0.17262070144E+03 0.  0.
         24    2    3    3    0    0 -0.40372806390E+02 -0.90342188136E+02 -0.50014140518E+03  0.51588810326E+03  0.78787279827E+02 0.  0.
         -6    2    1    2    0  501  0.16260526534E+02  0.53476613113E+02 -0.15254544353E+04  0.15360835071E+04  0.17151429628E+03 0.  0.
        -24    2    5    5    0    0 -0.52883320260E+02  0.19845787376E+02 -0.10367653344E+04  0.10413603205E+04  0.79739938497E+02 0.  0.
          5    1    3    3  502    0  0.24112279856E+02  0.36865575023E+02 -0.39361469658E+03  0.39609985108E+03  0.47000000000E+01 0. -1.
        -13    1    4    4    0    0 -0.35688430955E+02 -0.43275082269E+02 -0.41251116560E+03  0.41630740877E+03  0.00000000000E+00 0.  1.
         14    1    4    4    0    0 -0.46843754356E+01 -0.47067105868E+02 -0.87630239576E+02  0.99580694495E+02  0.00000000000E+00 0. -1.
         -5    1    5    5    0  501  0.69143846794E+02  0.33630825737E+02 -0.48868910091E+03  0.49472318657E+03  0.47000000000E+01 0.  1.
         11    1    6    6    0    0 -0.17883586968E+02  0.48988317564E+02 -0.54188198388E+03  0.54438567431E+03  0.00000000000E+00 0. -1.
        -12    1    6    6    0    0 -0.34999733291E+02 -0.29142530188E+02 -0.49488335049E+03  0.49697464622E+03  0.00000000000E+00 0.  1.
</event>
<event>
12    1  0.2689284E-002  0.1730693E+03  0.7818608E-02  0.1174684E+00
          2   -1    0    0  502    0  0.00000000000E+00  0.00000000000E+00  0.89792585317E+03  0.89792585317E+03  0.00000000000E+00 0.  1.
         -2   -1    0    0    0  501 -0.00000000000E+00 -0.00000000000E+00 -0.35556203009E+02  0.35556203009E+02  0.00000000000E+00 0. -1.
          6    2    1    2  502    0  0.11038529577E+02 -0.30637934398E+02  0.55269401195E+03  0.57988808557E+03  0.17244996021E+03 0.  0.
         24    2    3    3    0    0  0.47671436082E+02  0.26853931511E+02  0.42017835720E+03  0.43079156234E+03  0.77703403196E+02 0.  0.
         -6    2    1    2    0  501 -0.11038529577E+02  0.30637934398E+02  0.30967563821E+03  0.35359397061E+03  0.16753854181E+03 0.  0.
        -24    2    5    5    0    0  0.23490228778E+02  0.28156609866E+02  0.82444694989E+02  0.12369315791E+03  0.84606643084E+02 0.  0.
          5    1    3    3  502    0 -0.36632906505E+02 -0.57491865909E+02  0.13251565475E+03  0.14909652323E+03  0.47000000000E+01 0. -1.
        -11    1    4    4    0    0 -0.15936525318E+02  0.26576748172E+02  0.11892811707E+03  0.12289911884E+03  0.00000000000E+00 0.  1.
         12    1    4    4    0    0  0.63607961400E+02  0.27718333934E+00  0.30125024013E+03  0.30789244350E+03  0.00000000000E+00 0. -1.
         -5    1    5    5    0  501 -0.34528758356E+02  0.24813245323E+01  0.22723094322E+03  0.22990081270E+03  0.47000000000E+01 0.  1.
         13    1    6    6    0    0 -0.65290597335E+01 -0.24025835923E+02  0.48661261814E+02  0.54660660572E+02  0.00000000000E+00 0. -1.
        -14    1    6    6    0    0  0.30019288512E+02  0.52182445789E+02  0.33783433175E+02  0.69032497335E+02  0.00000000000E+00 0.  1.
</event>
<event>
12    1  0.2689284E-002  0.1897105E+03  0.7818608E-02  0.1158723E+00
          2   -1    0    0  502    0  0.00000000000E+00  0.00000000000E+00  0.11660794056E+04  0.11660794056E+04  0.00000000000E+00 0. -1.
         -2   -1    0    0    0  501 -0.00000000000E+00 -0.00000000000E+00 -0.30948655629E+02  0.30948655629E+02  0.00000000000E+00 0.  1.
          6    2    1    2  502    0  0.77900273068E+02 -0.21548354816E+02  0.60101763760E+03  0.63047785921E+03  0.17247418970E+03 0.  0.
         24    2    3    3    0    0  0.88027757769E+02 -0.70643414074E+02  0.47234899022E+03  0.49230911597E+03  0.80717526097E+02 0.  0.
         -6    2    1    2    0  501 -0.77900273068E+02  0.21548354816E+02  0.53411311240E+03  0.56655020205E+03  0.17079089689E+03 0.  0.
        -24    2    5    5    0    0  0.15696215625E+02  0.90241677354E+00  0.15142389367E+03  0.17201289635E+03  0.80075310771E+02 0.  0.
          5    1    3    3  502    0 -0.10127484701E+02  0.49095059258E+02  0.12866864738E+03  0.13816874324E+03  0.47000000000E+01 0. -1.
        -11    1    4    4    0    0  0.64002519890E+02 -0.78471565517E+02  0.26957232137E+03  0.28796413942E+03  0.00000000000E+00 0.  1.
         12    1    4    4    0    0  0.24025237880E+02  0.78281514425E+01  0.20277666885E+03  0.20434497655E+03  0.00000000000E+00 0. -1.
         -5    1    5    5    0  501 -0.93596488693E+02  0.20645938042E+02  0.38268921873E+03  0.39453730570E+03  0.47000000000E+01 0.  1.
         11    1    6    6    0    0  0.40610770117E+02 -0.10870034119E+01  0.13755562014E+03  0.14342930265E+03  0.00000000000E+00 0. -1.
        -12    1    6    6    0    0 -0.24914554492E+02  0.19894201855E+01  0.13868273533E+02  0.28583593704E+02  0.00000000000E+00 0.  1.
</event>
<event>
12    1  0.2689284E-002  0.1772079E+03  0.7818608E-02  0.1170533E+00
         -2   -1    0    0    0  501 -0.00000000000E+00  0.00000000000E+00  0.18193316746E+02  0.18193316746E+02  0.00000000000E+00 0. -1.
          2   -1    0    0  502    0  0.00000000000E+00 -0.00000000000E+00 -0.29072164715E+04  0.29072164715E+04  0.00000000000E+00 0.  1.
          6    2    1    2  502    0 -0.40423125880E+02  0.59138097477E+01 -0.51479880418E+03  0.54462147979E+03  0.17299059285E+03 0.  0.
         24    2    3    3    0    0 -0.80389908528E+02 -0.18309805710E+02 -0.44948013885E+03  0.46416810633E+03  0.81374746298E+02 0.  0.
         -6    2    1    2    0  501  0.40423125880E+02 -0.59138097477E+01 -0.23742243506E+04  0.23807883085E+04  0.17187990156E+03 0.  0.
        -24    2    5    5    0    0  0.25924477198E+02 -0.46263116616E+01 -0.58663690107E+03  0.59313542042E+03  0.83506239195E+02 0.  0.
          5    1    3    3  502    0  0.39966782648E+02  0.24223615457E+02 -0.65318665329E+02  0.80453373462E+02  0.47000000000E+01 0. -1.
        -11    1    4    4    0    0 -0.70392275600E+02 -0.36166868377E+02 -0.22044076293E+03  0.23421623512E+03  0.00000000000E+00 0.  1.
         12    1    4    4    0    0 -0.99976329278E+01  0.17857062667E+02 -0.22903937592E+03  0.22995187122E+03  0.00000000000E+00 0. -1.
         -5    1    5    5    0  501  0.14498648682E+02 -0.12874980862E+01 -0.17875874495E+04  0.17876528880E+04  0.47000000000E+01 0.  1.
         11    1    6    6    0    0  0.23672642521E+02 -0.42837808812E+02 -0.30304130286E+03  0.30696824446E+03  0.00000000000E+00 0. -1.
        -12    1    6    6    0    0  0.22518346773E+01  0.38211497151E+02 -0.28359559821E+03  0.28616717596E+03  0.00000000000E+00 0.  1.
</event>
<event>
12    1  0.2689284E-002  0.2392934E+03  0.7818608E-02  0.1120264E+00
          1   -1    0    0  502    0  0.00000000000E+00  0.00000000000E+00  0.82688961268E+03  0.82688961268E+03  0.00000000000E+00 0. -1.
         -1   -1    0    0    0  501 -0.00000000000E+00 -0.00000000000E+00 -0.70077494919E+02  0.70077494919E+02  0.00000000000E+00 0.  1.
          6    2    1    2  502    0  0.12473702491E+03 -0.10970595283E+03  0.32929325850E+03  0.40692469800E+03  0.17192713074E+03 0.  0.
         24    2    3    3    0    0  0.98922502875E+02 -0.10125837462E+03  0.13554932717E+03  0.21122964939E+03  0.78774517955E+02 0.  0.
         -6    2    1    2    0  501 -0.12473702491E+03  0.10970595283E+03  0.42751885926E+03  0.49004240959E+03  0.17255279397E+03 0.  0.
        -24    2    5    5    0    0 -0.14108516325E+03  0.45941544848E+02  0.33973507759E+03  0.38021871599E+03  0.84443473470E+02 0.  0.
          5    1    3    3  502    0  0.25814522035E+02 -0.84475782067E+01  0.19374393133E+03  0.19569504861E+03  0.47000000000E+01 0. -1.
        -13    1    4    4    0    0  0.46912458560E+02 -0.92448488122E+02  0.11443126868E+03  0.15440860396E+03  0.00000000000E+00 0.  1.
         14    1    4    4    0    0  0.52010044315E+02 -0.88098865014E+01  0.21118058492E+02  0.56821045435E+02  0.00000000000E+00 0. -1.
         -5    1    5    5    0  501  0.16348138337E+02  0.63764407982E+02  0.87783781670E+02  0.10982369360E+03  0.47000000000E+01 0.  1.
         11    1    6    6    0    0 -0.10498816857E+03  0.17635025921E+02  0.30390420862E+03  0.32201130058E+03  0.00000000000E+00 0. -1.
        -12    1    6    6    0    0 -0.36096994673E+02  0.28306518927E+02  0.35830868969E+02  0.58207415415E+02  0.00000000000E+00 0.  1.
</event>
<event>
12    1  0.2689284E-002  0.1856381E+03  0.7818608E-02  0.1162455E+00
         -1   -1    0    0    0  501 -0.00000000000E+00  0.00000000000E+00  0.15009295486E+02  0.15009295486E+02  0.00000000000E+00 0. -1.
          1   -1    0    0  502    0  0.00000000000E+00 -0.00000000000E+00 -0.30546947568E+04  0.30546947568E+04  0.00000000000E+00 0.  1.
          6    2    1    2  502    0  0.76014273246E+02 -0.59252728255E+01 -0.22821566170E+04  0.22896602794E+04  0.16879600777E+03 0.  0.
         24    2    3    3    0    0  0.32679691914E+02 -0.30687803402E+02 -0.20544740268E+04  0.20565240087E+04  0.80110973456E+02 0.  0.
         -6    2    1    2    0  501 -0.76014273246E+02  0.59252728255E+01 -0.75752884440E+03  0.78004377291E+03  0.16972053194E+03 0.  0.
        -24    2    5    5    0    0  0.10458750123E+01  0.16067497731E+02 -0.14316016043E+03  0.16076023444E+03  0.71342575684E+02 0.  0.
          5    1    3    3  502    0  0.43334581332E+02  0.24762530577E+02 -0.22768259017E+03  0.23313627073E+03  0.47000000000E+01 0. -1.
        -11    1    4    4    0    0 -0.26574759216E+02 -0.82175823816E+01 -0.52265861350E+03  0.52339829265E+03  0.00000000000E+00 0.  1.
         12    1    4    4    0    0  0.59254451130E+02 -0.22470221021E+02 -0.15318154133E+04  0.15331257160E+04  0.00000000000E+00 0. -1.
         -5    1    5    5    0  501 -0.77060148258E+02 -0.10142224905E+02 -0.61436868397E+03  0.61928353847E+03  0.47000000000E+01 0.  1.
         11    1    6    6    0    0 -0.26031476258E+02  0.22345917072E+02 -0.34704503902E+02  0.48799388900E+02  0.00000000000E+00 0. -1.
        -12    1    6    6    0    0  0.27077351270E+02 -0.62784193410E+01 -0.10845565653E+03  0.11196084554E+03  0.00000000000E+00 0.  1.
</event>
<event>
12    1  0.2689284E-002  0.3184259E+03  0.7818608E-02  0.1076376E+00
          1   -1    0    0  502    0  0.00000000000E+00  0.00000000000E+00  0.52429809962E+03  0.52429809962E+03  0.00000000000E+00 0. -1.
         -1   -1    0    0    0  501 -0.00000000000E+00 -0.00000000000E+00 -0.22859118913E+03  0.22859118913E+03  0.00000000000E+00 0.  1.
          6    2    1    2  502    0  0.25808873995E+03 -0.74252187211E+02  0.24194263746E+00  0.31869981511E+03  0.17159932581E+03 0.  0.
         24    2    3    3    0    0  0.23952768965E+03 -0.98208364895E+01  0.17084671616E+01  0.25146773766E+03  0.75915356055E+02 0.  0.
         -6    2    1    2    0  501 -0.25808873995E+03  0.74252187211E+02  0.29546496785E+03  0.43418947364E+03  0.17058067533E+03 0.  0.
        -24    2    5    5    0    0 -0.12366634225E+03  0.10067745803E+03  0.13720064812E+03  0.22481573880E+03  0.79301852478E+02 0.  0.
          5    1    3    3  502    0  0.18561050299E+02 -0.64431350721E+02 -0.14665245242E+01  0.67232077449E+02  0.47000000000E+01 0. -1.
        -13    1    4    4    0    0  0.19690882205E+03 -0.23639992286E+02 -0.24069218515E+02  0.19977802862E+03  0.00000000000E+00 0.  1.
         14    1    4    4    0    0  0.42618867597E+02  0.13819155797E+02  0.25777685676E+02  0.51689709044E+02  0.00000000000E+00 0. -1.
         -5    1    5    5    0  501 -0.13442239770E+03 -0.26425270816E+02  0.15826431973E+03  0.20937373484E+03  0.47000000000E+01 0.  1.
         13    1    6    6    0    0 -0.12004687909E+03  0.86841015744E+02  0.85264473802E+02  0.17094632400E+03  0.00000000000E+00 0. -1.
        -14    1    6    6    0    0 -0.36194631624E+01  0.13836442282E+02  0.51936174314E+02  0.53869414801E+02  0.00000000000E+00 0.  1.
</event>
<event>
12    1  0.2689284E-002  0.2009287E+03  0.7818608E-02  0.1148958E+00
         -1   -1    0    0    0  501 -0.00000000000E+00  0.00000000000E+00  0.28975617318E+03  0.28975617318E+03  0.00000000000E+00 0.  1.
          1   -1    0    0  502    0  0.00000000000E+00 -0.00000000000E+00 -0.15782973210E+03  0.15782973210E+03  0.00000000000E+00 0. -1.
          6    2    1    2  502    0  0.51083560609E+02  0.92855183571E+02  0.14298549495E+03  0.24781203794E+03  0.17243647846E+03 0.  0.
         24    2    3    3    0    0  0.34310827416E+02  0.86642803830E+02  0.17342202067E+03  0.21219756984E+03  0.79173247110E+02 0.  0.
         -6    2    1    2    0  501 -0.51083560609E+02 -0.92855183571E+02 -0.11059053874E+02  0.19977386733E+03  0.16898425997E+03 0.  0.
        -24    2    5    5    0    0 -0.18114576569E+02 -0.37426798870E+01  0.42145696452E+02  0.90774657802E+02  0.78240866768E+02 0.  0.
          5    1    3    3  502    0  0.16772733194E+02  0.62123797411E+01 -0.30436525717E+02  0.35614468107E+02  0.47000000000E+01 0. -1.
        -11    1    4    4    0    0  0.30742439529E+01  0.72866477141E+02  0.62197351229E+02  0.95851369144E+02  0.00000000000E+00 0.  1.
         12    1    4    4    0    0  0.31236583463E+02  0.13776326689E+02  0.11122466944E+03  0.11634620069E+03  0.00000000000E+00 0. -1.
         -5    1    5    5    0  501 -0.32968984040E+02 -0.89112503684E+02 -0.53204750326E+02  0.10899920953E+03  0.47000000000E+01 0.  1.
         13    1    6    6    0    0  0.36254588723E+01 -0.34605081273E+02  0.39924459098E+02  0.52958644585E+02  0.00000000000E+00 0. -1.
        -14    1    6    6    0    0 -0.21740035441E+02  0.30862401386E+02  0.22212373536E+01  0.37816013218E+02  0.00000000000E+00 0.  1.
</event>
<event>
12    1  0.2689284E-002  0.2048854E+03  0.7818608E-02  0.1145681E+00
         -1   -1    0    0    0  501 -0.00000000000E+00  0.00000000000E+00  0.86160656248E+02  0.86160656248E+02  0.00000000000E+00 0. -1.
          1   -1    0    0  502    0  0.00000000000E+00 -0.00000000000E+00 -0.59406383674E+03  0.59406383674E+03  0.00000000000E+00 0.  1.
          6    2    1    2  502    0 -0.99250405447E+02  0.52157536445E+02 -0.10935717674E+03  0.23194164249E+03  0.17107566113E+03 0.  0.
         24    2    3    3    0    0  0.11261585646E+02  0.44693566218E+02 -0.66551463145E+02  0.11310128679E+03  0.78983958215E+02 0.  0.
         -6    2    1    2    0  501  0.99250405447E+02 -0.52157536445E+02 -0.39854600376E+03  0.44828285049E+03  0.17189399451E+03 0.  0.
        -24    2    5    5    0    0  0.73219489291E+02 -0.79951799747E+02 -0.17761508578E+03  0.22404482922E+03  0.83039646601E+02 0.  0.
          5    1    3    3  502    0 -0.11051199109E+03  0.74639702279E+01 -0.42805713590E+02  0.11884035570E+03  0.47000000000E+01 0. -1.
        -13    1    4    4    0    0 -0.31348190272E+02  0.24851188257E+02 -0.48210858374E+02  0.62646448074E+02  0.00000000000E+00 0.  1.
         14    1    4    4    0    0  0.42609775918E+02  0.19842377961E+02 -0.18340604771E+02  0.50454838721E+02  0.00000000000E+00 0. -1.
         -5    1    5    5    0  501  0.26030916156E+02  0.27794263301E+02 -0.22093091797E+03  0.22423802127E+03  0.47000000000E+01 0.  1.
         11    1    6    6    0    0  0.85472760180E+02 -0.42032583834E+02 -0.10950293014E+03  0.14513174204E+03  0.00000000000E+00 0. -1.
        -12    1    6    6    0    0 -0.12253270889E+02 -0.37919215913E+02 -0.68112155642E+02  0.78913087185E+02  0.00000000000E+00 0.  1.
</event>
<event>
12    1  0.2689284E-002  0.1854608E+03  0.7818608E-02  0.1162620E+00
          1   -1    0    0  502    0  0.00000000000E+00  0.00000000000E+00  0.18814462261E+04  0.18814462261E+04  0.00000000000E+00 0. -1.
         -1   -1    0    0    0  501 -0.00000000000E+00 -0.00000000000E+00 -0.19821565413E+02  0.19821565413E+02  0.00000000000E+00 0.  1.
          6    2    1    2  502    0  0.49088199207E+02  0.49780592203E+02  0.66774599678E+03  0.69313293996E+03  0.17222310406E+03 0.  0.
         24    2    3    3    0    0  0.50097059718E+02 -0.18021643925E+01  0.60360592738E+03  0.61068394312E+03  0.77985893712E+02 0.  0.
         -6    2    1    2    0  501 -0.49088199207E+02 -0.49780592203E+02  0.11938786639E+04  0.12081348516E+04  0.17133533424E+03 0.  0.
        -24    2    5    5    0    0 -0.42295245202E+02  0.29329089086E+02  0.84547477681E+03  0.85076691170E+03  0.79546568653E+02 0.  0.
          5    1    3    3  502    0 -0.10088605117E+01  0.51582756595E+02  0.64140069399E+02  0.82448996840E+02  0.47000000000E+01 0. -1.
        -11    1    4    4    0    0 -0.59388119395E+01  0.15636242330E+02  0.32319673338E+02  0.36391246834E+02  0.00000000000E+00 0.  1.
         12    1    4    4    0    0  0.56035871658E+02 -0.17438406722E+02  0.57128625405E+03  0.57429269628E+03  0.00000000000E+00 0. -1.
         -5    1    5    5    0  501 -0.67929540051E+01 -0.79109681288E+02  0.34840388714E+03  0.35736793990E+03  0.47000000000E+01 0.  1.
         11    1    6    6    0    0  0.16335089128E+02 -0.44858168196E+01  0.38208546597E+03  0.38246079668E+03  0.00000000000E+00 0. -1.
        -12    1    6    6    0    0 -0.58630334329E+02  0.33814905905E+02  0.46338931084E+03  0.46830611502E+03  0.00000000000E+00 0.  1.
</event>
<event>
12    1  0.2689284E-002  0.2835972E+03  0.7818608E-02  0.1093740E+00
          1   -1    0    0  502    0  0.00000000000E+00  0.00000000000E+00  0.87068875089E+03  0.87068875089E+03  0.00000000000E+00 0.  1.
         -1   -1    0    0    0  501 -0.00000000000E+00 -0.00000000000E+00 -0.29413727174E+03  0.29413727174E+03  0.00000000000E+00 0. -1.
          6    2    1    2  502    0  0.12859247067E+03  0.18570272271E+03  0.77092341490E+03  0.82173641847E+03  0.17293439522E+03 0.  0.
         24    2    3    3    0    0  0.99168945634E+02  0.74866810169E+02  0.58561145490E+03  0.60376175054E+03  0.78408904260E+02 0.  0.
         -6    2    1    2    0  501 -0.12859247067E+03 -0.18570272271E+03 -0.19437193576E+03  0.34308960417E+03  0.17002500505E+03 0.  0.
        -24    2    5    5    0    0 -0.74342484141E+02 -0.55580079589E+02 -0.15353800665E+03  0.19624116850E+03  0.79502997007E+02 0.  0.
          5    1    3    3  502    0  0.29423525039E+02  0.11083591254E+03  0.18531196001E+03  0.21797466793E+03  0.47000000000E+01 0. -1.
        -13    1    4    4    0    0  0.10848777068E+02  0.55314125168E+02  0.23575608960E+03  0.24240107712E+03  0.00000000000E+00 0.  1.
         14    1    4    4    0    0  0.88320168566E+02  0.19552685001E+02  0.34985536530E+03  0.36136067342E+03  0.00000000000E+00 0. -1.
         -5    1    5    5    0  501 -0.54249986532E+02 -0.13012264312E+03 -0.40833929107E+02  0.14684843567E+03  0.47000000000E+01 0.  1.
         11    1    6    6    0    0 -0.74888720153E+02 -0.68371400260E+02 -0.10471593410E+03  0.14576829434E+03  0.00000000000E+00 0. -1.
        -12    1    6    6    0    0  0.54623601174E+00  0.12791320672E+02 -0.48822072544E+02  0.50472874159E+02  0.00000000000E+00 0.  1.
</event>
<event>
12    1  0.2689284E-002  0.3316832E+03  0.7818608E-02  0.1070395E+00
         -2   -1    0    0    0  501 -0.00000000000E+00  0.00000000000E+00  0.76986525345E+02  0.76986525345E+02  0.00000000000E+00 0. -1.
          2   -1    0    0  502    0  0.00000000000E+00 -0.00000000000E+00 -0.14842945926E+04  0.14842945926E+04  0.00000000000E+00 0.  1.
          6    2    1    2  502    0  0.26413193266E+03 -0.96696297978E+02 -0.84996113092E+03  0.91162768656E+03  0.17180006670E+03 0.  0.
         24    2    3    3    0    0  0.22564334940E+03 -0.46755720523E+02 -0.77453874103E+03  0.81320990760E+03  0.91099253150E+02 0.  0.
         -6    2    1    2    0  501 -0.26413193266E+03  0.96696297978E+02 -0.55734693631E+03  0.64965343137E+03  0.17971678158E+03 0.  0.
        -24    2    5    5    0    0 -0.15989015613E+03 -0.14440356201E+02 -0.29867608466E+03  0.34940286373E+03  0.84270823639E+02 0.  0.
          5    1    3    3  502    0  0.38488583262E+02 -0.49940577455E+02 -0.75422389891E+02  0.98417778958E+02  0.47000000000E+01 0. -1.
        -11    1    4    4    0    0  0.14266311328E+03 -0.71309101248E+02 -0.54673317855E+03  0.56952165923E+03  0.00000000000E+00 0.  1.
         12    1    4    4    0    0  0.82980236122E+02  0.24553380724E+02 -0.22780556248E+03  0.24368824836E+03  0.00000000000E+00 0. -1.
         -5    1    5    5    0  501 -0.10424177653E+03  0.11113665418E+03 -0.25867085165E+03  0.30025056764E+03  0.47000000000E+01 0.  1.
         11    1    6    6    0    0 -0.59425482384E+02 -0.23757399247E+02 -0.50572301557E+02  0.81568128950E+02  0.00000000000E+00 0. -1.
        -12    1    6    6    0    0 -0.10046467375E+03  0.93170430460E+01 -0.24810378311E+03  0.26783473478E+03  0.00000000000E+00 0.  1.
</event>
<event>
12    1  0.2689284E-002  0.2093469E+03  0.7818608E-02  0.1142084E+00
          2   -1    0    0  502    0  0.00000000000E+00  0.00000000000E+00  0.21300716845E+03  0.21300716845E+03  0.00000000000E+00 0. -1.
         -2   -1    0    0    0  501 -0.00000000000E+00 -0.00000000000E+00 -0.24728197485E+03  0.24728197485E+03  0.00000000000E+00 0.  1.
          6    2    1    2  502    0 -0.10449331374E+03  0.55017708533E+02  0.77161335112E+02  0.22338458820E+03  0.17320797251E+03 0.  0.
         24    2    3    3    0    0 -0.10349753334E+03  0.92328741781E+02  0.88240602446E+02  0.18416794702E+03  0.83036695650E+02 0.  0.
         -6    2    1    2    0  501  0.10449331374E+03 -0.55017708533E+02 -0.11143614151E+03  0.23690455509E+03  0.17251073509E+03 0.  0.
        -24    2    5    5    0    0  0.29520626186E+02  0.25601863543E+02 -0.93098685012E+02  0.12519613289E+03  0.74025561479E+02 0.  0.
          5    1    3    3  502    0 -0.99578039712E+00 -0.37311033248E+02 -0.11079267334E+02  0.39216641178E+02  0.47000000000E+01 0. -1.
        -11    1    4    4    0    0 -0.59173824855E+02  0.13616594563E+02  0.43293545572E+01  0.60874432288E+02  0.00000000000E+00 0.  1.
         12    1    4    4    0    0 -0.44323708483E+02  0.78712147218E+02  0.83911247889E+02  0.12329351473E+03  0.00000000000E+00 0. -1.
         -5    1    5    5    0  501  0.74972687549E+02 -0.80619572076E+02 -0.18337456501E+02  0.11170842220E+03  0.47000000000E+01 0.  1.
         13    1    6    6    0    0 -0.93755032343E+01 -0.20785153244E+02 -0.20424869591E+02  0.30612055699E+02  0.00000000000E+00 0. -1.
        -14    1    6    6    0    0  0.38896129421E+02  0.46387016787E+02 -0.72673815421E+02  0.94584077191E+02  0.00000000000E+00 0.  1.
</event>
<event>
12    1  0.2689284E-002  0.2461784E+03  0.7818608E-02  0.1115744E+00
         -1   -1    0    0    0  501 -0.00000000000E+00  0.00000000000E+00  0.57506215874E+03  0.57506215874E+03  0.00000000000E+00 0. -1.
          1   -1    0    0  502    0  0.00000000000E+00 -0.00000000000E+00 -0.10742136194E+03  0.10742136194E+03  0.00000000000E+00 0.  1.
          6    2    1    2  502    0 -0.16484326351E+03  0.62553359612E+02  0.18681772520E+03  0.30900685327E+03  0.17175025064E+03 0.  0.
         24    2    3    3    0    0 -0.14815870004E+03  0.41927357391E+02  0.21103515769E+03  0.27278005847E+03  0.78512539270E+02 0.  0.
         -6    2    1    2    0  501  0.16484326351E+03 -0.62553359612E+02  0.28082307160E+03  0.37347666741E+03  0.17186331556E+03 0.  0.
        -24    2    5    5    0    0  0.18226689523E+03 -0.21252850031E+02  0.22096743285E+03  0.29854935247E+03  0.81438349392E+02 0.  0.
          5    1    3    3  502    0 -0.16684563467E+02  0.20626002220E+02 -0.24217432480E+02  0.36226794802E+02  0.47000000000E+01 0. -1.
        -11    1    4    4    0    0 -0.15361152276E+03  0.29538375006E+02  0.20524153753E+03  0.25805639742E+03  0.00000000000E+00 0.  1.
         12    1    4    4    0    0  0.54528227164E+01  0.12388982385E+02  0.57936201539E+01  0.14723661046E+02  0.00000000000E+00 0. -1.
         -5    1    5    5    0  501 -0.17423631715E+02 -0.41300509580E+02  0.59855638751E+02  0.74927314940E+02  0.47000000000E+01 0.  1.
         11    1    6    6    0    0  0.53003475086E+02 -0.35839196206E+02  0.11141559319E+03  0.12848054624E+03  0.00000000000E+00 0. -1.
        -12    1    6    6    0    0  0.12926342014E+03  0.14586346175E+02  0.10955183966E+03  0.17006880623E+03  0.00000000000E+00 0.  1.
</event>
<event>
12    1  0.2689284E-002  0.1733668E+03  0.7818608E-02  0.1174382E+00
         -2   -1    0    0    0  501 -0.00000000000E+00  0.00000000000E+00  0.89375956917E+01  0.89375956917E+01  0.00000000000E+00 0. -1.
          2   -1    0    0  502    0  0.00000000000E+00 -0.00000000000E+00 -0.37250142513E+04  0.37250142513E+04  0.00000000000E+00 0.  1.
          6    2    1    2  502    0  0.30271762825E+02  0.77654342802E+01 -0.12736324156E+04  0.12853456592E+04  0.17028579492E+03 0.  0.
         24    2    3    3    0    0 -0.11769312359E+02 -0.37896472133E+02 -0.10443241240E+04  0.10477391687E+04  0.74631296890E+02 0.  0.
         -6    2    1    2    0  501 -0.30271762825E+02 -0.77654342802E+01 -0.24424442400E+04  0.24486061878E+04  0.17076801742E+03 0.  0.
        -24    2    5    5    0    0  0.43031004522E+02 -0.29670661165E+02 -0.16452882507E+04  0.16477735611E+04  0.73839456522E+02 0.  0.
          5    1    3    3  502    0  0.42041075183E+02  0.45661906414E+02 -0.22930829163E+03  0.23760649047E+03  0.47000000000E+01 0. -1.
        -11    1    4    4    0    0 -0.12490279934E+02 -0.30546532791E+02 -0.15921542083E+03  0.16259965556E+03  0.00000000000E+00 0.  1.
         12    1    4    4    0    0  0.72096757517E+00 -0.73499393422E+01 -0.88510870315E+03  0.88513951318E+03  0.00000000000E+00 0. -1.
         -5    1    5    5    0  501 -0.73302767346E+02  0.21905226884E+02 -0.79715598927E+03  0.80083262664E+03  0.47000000000E+01 0.  1.
         13    1    6    6    0    0  0.17837224747E+02  0.16855404494E+02 -0.19750706386E+03  0.19902590666E+03  0.00000000000E+00 0. -1.
        -14    1    6    6    0    0  0.25193779775E+02 -0.46526065659E+02 -0.14477811869E+04  0.14487476545E+04  0.00000000000E+00 0.  1.
</event>
<event>
12    1  0.2689284E-002  0.1770252E+03  0.7818608E-02  0.1170714E+00
         -1   -1    0    0    0  501 -0.00000000000E+00  0.00000000000E+00  0.16681928475E+04  0.16681928475E+04  0.00000000000E+00 0.  1.
          1   -1    0    0  502    0  0.00000000000E+00 -0.00000000000E+00 -0.28405791358E+02  0.28405791358E+02  0.00000000000E+00 0. -1.
          6    2    1    2  502    0  0.34529169156E+02  0.28699577464E+02  0.32400939196E+03  0.36886870239E+03  0.17048784196E+03 0.  0.
         24    2    3    3    0    0  0.38945552825E+02 -0.24149328364E+02  0.28834269405E+03  0.30478504900E+03  0.87478401548E+02 0.  0.
         -6    2    1    2    0  501 -0.34529169156E+02 -0.28699577464E+02  0.13157776642E+04  0.13277299365E+04  0.17198835240E+03 0.  0.
        -24    2    5    5    0    0 -0.59119514524E+02 -0.49878478832E+02  0.54986050492E+03  0.56111111606E+03  0.80722549816E+02 0.  0.
          5    1    3    3  502    0 -0.44163836696E+01  0.52848905828E+02  0.35666697911E+02  0.64083653390E+02  0.47000000000E+01 0. -1.
        -11    1    4    4    0    0  0.24302727285E+02 -0.34535867678E+02  0.48653433345E+02  0.64424415294E+02  0.00000000000E+00 0.  1.
         12    1    4    4    0    0  0.14642825540E+02  0.10386539314E+02  0.23968926071E+03  0.24036063371E+03  0.00000000000E+00 0. -1.
         -5    1    5    5    0  501  0.24590345368E+02  0.21178901368E+02  0.76591715927E+03  0.76661882041E+03  0.47000000000E+01 0.  1.
         13    1    6    6    0    0  0.10999751230E+02 -0.84993253429E+01  0.16513318936E+02  0.21585244050E+02  0.00000000000E+00 0. -1.
        -14    1    6    6    0    0 -0.70119265754E+02 -0.41379153489E+02  0.53334718598E+03  0.53952587201E+03  0.00000000000E+00 0.  1.
</event>
<event>
12    1  0.2689284E-002  0.2406406E+03  0.7818608E-02  0.1119367E+00
         -1   -1    0    0    0  501 -0.00000000000E+00  0.00000000000E+00  0.10742427993E+03  0.10742427993E+03  0.00000000000E+00 0. -1.
          1   -1    0    0  502    0  0.00000000000E+00 -0.00000000000E+00 -0.53909715487E+03  0.53909715487E+03  0.00000000000E+00 0.  1.
          6    2    1    2  502    0 -0.74041260691E+02 -0.15074058854E+03 -0.21310458166E+03  0.32146399097E+03  0.17239692991E+03 0.  0.
         24    2    3    3    0    0 -0.16202236588E+02 -0.16198692612E+03 -0.14449054238E+03  0.23090015047E+03  0.77039508993E+02 0.  0.
         -6    2    1    2    0  501  0.74041260691E+02  0.15074058854E+03 -0.21856829328E+03  0.32505744384E+03  0.17229454330E+03 0.  0.
        -24    2    5    5    0    0  0.28284102403E+02  0.16437449618E+03 -0.20362355973E+03  0.27480770720E+03  0.78979468318E+02 0.  0.
          5    1    3    3  502    0 -0.57839024103E+02  0.11246337579E+02 -0.68614039282E+02  0.90563840492E+02  0.47000000000E+01 0. -1.
        -13    1    4    4    0    0 -0.36983370519E+02 -0.10727369614E+03 -0.12590804947E+03  0.16949410757E+03  0.00000000000E+00 0.  1.
         14    1    4    4    0    0  0.20781133930E+02 -0.54713229979E+02 -0.18582492908E+02  0.61406042902E+02  0.00000000000E+00 0. -1.
         -5    1    5    5    0  501  0.45757158288E+02 -0.13633907635E+02 -0.14944733551E+02  0.50249736645E+02  0.47000000000E+01 0.  1.
         13    1    6    6    0    0 -0.24826510306E+01  0.19902055739E+02  0.35495446030E+01  0.20367980893E+02  0.00000000000E+00 0. -1.
        -14    1    6    6    0    0  0.30766753434E+02  0.14447244044E+03 -0.20717310433E+03  0.25443972630E+03  0.00000000000E+00 0.  1.
</event>
<event>
12    1  0.2689284E-002  0.1896826E+03  0.7818608E-02  0.1158748E+00
          2   -1    0    0  502    0  0.00000000000E+00  0.00000000000E+00  0.13290254427E+04  0.13290254427E+04  0.00000000000E+00 0. -1.
         -2   -1    0    0    0  501 -0.00000000000E+00 -0.00000000000E+00 -0.27087143269E+02  0.27087143269E+02  0.00000000000E+00 0.  1.
          6    2    1    2  502    0 -0.56650786091E+02  0.55629362946E+02  0.66998814935E+03  0.69659664792E+03  0.17337483104E+03 0.  0.
         24    2    3    3    0    0 -0.10263012575E+03  0.56750242401E+02  0.46619226157E+03  0.48762246310E+03  0.81773522890E+02 0.  0.
         -6    2    1    2    0  501  0.56650786091E+02 -0.55629362946E+02  0.63195015008E+03  0.65951593805E+03  0.17116174446E+03 0.  0.
        -24    2    5    5    0    0  0.46385248905E+02  0.33309755954E+02  0.36009145632E+03  0.37325593823E+03  0.79956283993E+02 0.  0.
          5    1    3    3  502    0  0.45979339658E+02 -0.11208794544E+01  0.20379588777E+03  0.20897418482E+03  0.47000000000E+01 0. -1.
        -13    1    4    4    0    0 -0.39052334363E+02 -0.75473560682E+01  0.63700545833E+02  0.75098648072E+02  0.00000000000E+00 0.  1.
         14    1    4    4    0    0 -0.63577791386E+02  0.64297598469E+02  0.40249171574E+03  0.41252381503E+03  0.00000000000E+00 0. -1.
         -5    1    5    5    0  501  0.10265537185E+02 -0.88939118901E+02  0.27185869376E+03  0.28625999982E+03  0.47000000000E+01 0.  1.
         13    1    6    6    0    0  0.31062469119E+02  0.42267802529E+02  0.34763933782E+03  0.35157439230E+03  0.00000000000E+00 0. -1.
        -14    1    6    6    0    0  0.15322779787E+02 -0.89580465750E+01  0.12452118499E+02  0.21681545931E+02  0.00000000000E+00 0.  1.
</event>
<event>
12    1  0.2689284E-002  0.2963605E+03  0.7818608E-02  0.1087074E+00
         -2   -1    0    0    0  501 -0.00000000000E+00  0.00000000000E+00  0.34237388042E+02  0.34237388042E+02  0.00000000000E+00 0. -1.
          2   -1    0    0  502    0  0.00000000000E+00 -0.00000000000E+00 -0.30351874832E+04  0.30351874832E+04  0.00000000000E+00 0.  1.
          6    2    1    2  502    0  0.22765799753E+03  0.75335181096E+02 -0.90365562445E+03  0.95152174918E+03  0.17690844586E+03 0.  0.
         24    2    3    3    0    0  0.13492167585E+03  0.96714939623E+02 -0.72815606934E+03  0.75182371895E+03  0.86429190114E+02 0.  0.
         -6    2    1    2    0  501 -0.22765799753E+03 -0.75335181096E+02 -0.20972944708E+04  0.21179031221E+04  0.17136506127E+03 0.  0.
        -24    2    5    5    0    0 -0.13945870978E+03 -0.40088715684E+02 -0.17502900386E+04  0.17581037424E+04  0.79735268580E+02 0.  0.
          5    1    3    3  502    0  0.92736321678E+02 -0.21379758527E+02 -0.17549955511E+03  0.19969803023E+03  0.47000000000E+01 0. -1.
        -13    1    4    4    0    0  0.14476666935E+03  0.74443823322E+02 -0.63710996653E+03  0.65757766145E+03  0.00000000000E+00 0.  1.
         14    1    4    4    0    0 -0.98449934977E+01  0.22271116300E+02 -0.91046102809E+02  0.94246057503E+02  0.00000000000E+00 0. -1.
         -5    1    5    5    0  501 -0.88199287748E+02 -0.35246465412E+02 -0.34700443217E+03  0.35979937969E+03  0.47000000000E+01 0.  1.
         13    1    6    6    0    0 -0.43241493028E+02  0.21396354506E+02 -0.37693155647E+03  0.38000661700E+03  0.00000000000E+00 0. -1.
        -14    1    6    6    0    0 -0.96217216752E+02 -0.61485070190E+02 -0.13733584821E+04  0.13780971254E+04  0.00000000000E+00 0.  1.
</event>
<event>
12    1  0.2689284E-002  0.1861033E+03  0.7818608E-02  0.1162024E+00
          1   -1    0    0  502    0  0.00000000000E+00  0.00000000000E+00  0.35603466871E+02  0.35603466871E+02  0.00000000000E+00 0. -1.
         -1   -1    0    0    0  501 -0.00000000000E+00 -0.00000000000E+00 -0.98733713706E+03  0.98733713706E+03  0.00000000000E+00 0.  1.
          6    2    1    2  502    0 -0.54650688299E+01  0.77302790778E+02 -0.40852658907E+03  0.44801830130E+03  0.16679579097E+03 0.  0.
         24    2    3    3    0    0  0.38039162713E+02  0.99934898288E+02 -0.26276740074E+03  0.29415907527E+03  0.77774628742E+02 0.  0.
         -6    2    1    2    0  501  0.54650688299E+01 -0.77302790778E+02 -0.54320708112E+03  0.57492230263E+03  0.17162789005E+03 0.  0.
        -24    2    5    5    0    0  0.65356740551E+02 -0.74971106073E+02 -0.35764549467E+03  0.37986425624E+03  0.80587734994E+02 0.  0.
          5    1    3    3  502    0 -0.43504231543E+02 -0.22632107510E+02 -0.14575918834E+03  0.15385922604E+03  0.47000000000E+01 0. -1.
        -11    1    4    4    0    0  0.34168234720E+02  0.82970076186E+02 -0.26177869271E+03  0.27673016778E+03  0.00000000000E+00 0.  1.
         12    1    4    4    0    0  0.38709279923E+01  0.16964822102E+02 -0.98870802988E+00  0.17428907483E+02  0.00000000000E+00 0. -1.
         -5    1    5    5    0  501 -0.59891671721E+02 -0.23316847052E+01 -0.18556158645E+03  0.19505804639E+03  0.47000000000E+01 0.  1.
         11    1    6    6    0    0  0.47713085118E+02 -0.31199667410E+01 -0.86835266699E+02  0.99129391336E+02  0.00000000000E+00 0. -1.
        -12    1    6    6    0    0  0.17643655433E+02 -0.71851139332E+02 -0.27081022797E+03  0.28073486490E+03  0.00000000000E+00 0.  1.
</event>
<event>
12    1  0.2689284E-002  0.1895775E+03  0.7818608E-02  0.1158843E+00
         -2   -1    0    0    0  501 -0.00000000000E+00  0.00000000000E+00  0.11179063095E+03  0.11179063095E+03  0.00000000000E+00 0. -1.
          2   -1    0    0  502    0  0.00000000000E+00 -0.00000000000E+00 -0.37713545624E+03  0.37713545624E+03  0.00000000000E+00 0.  1.
          6    2    1    2  502    0  0.15093861983E+02 -0.77403235474E+02 -0.38567147053E+02  0.19312628416E+03  0.17202107799E+03 0.  0.
         24    2    3    3    0    0 -0.26167375509E+02 -0.25239350582E+02 -0.76089653329E+02  0.11661753248E+03  0.80549718684E+02 0.  0.
         -6    2    1    2    0  501 -0.15093861983E+02  0.77403235474E+02 -0.22677767823E+03  0.29579980303E+03  0.17277245902E+03 0.  0.
        -24    2    5    5    0    0  0.34983166473E+02  0.10047553322E+03 -0.16029100627E+03  0.20929773802E+03  0.82420760346E+02 0.  0.
          5    1    3    3  502    0  0.41261237492E+02 -0.52163884892E+02  0.37522506276E+02  0.76508751680E+02  0.47000000000E+01 0. -1.
        -11    1    4    4    0    0  0.11582696705E+02 -0.35257120675E+02 -0.66885263799E+02  0.76490927140E+02  0.00000000000E+00 0.  1.
         12    1    4    4    0    0 -0.37750072214E+02  0.10017770093E+02 -0.92043895296E+01  0.40126605344E+02  0.00000000000E+00 0. -1.
         -5    1    5    5    0  501 -0.50077028456E+02 -0.23072297749E+02 -0.66486671966E+02  0.86502065013E+02  0.47000000000E+01 0.  1.
         13    1    6    6    0    0 -0.47820077295E+01  0.44981958319E+02 -0.13178391094E+02  0.47115965065E+02  0.00000000000E+00 0. -1.
        -14    1    6    6    0    0  0.39765174202E+02  0.55493574904E+02 -0.14711261517E+03  0.16218177295E+03  0.00000000000E+00 0.  1.
</event>
<event>
12    1  0.2689284E-002  0.2608866E+03  0.7818608E-02  0.1106612E+00
         -1   -1    0    0    0  501 -0.00000000000E+00  0.00000000000E+00  0.99102130135E+02  0.99102130135E+02  0.00000000000E+00 0. -1.
          1   -1    0    0  502    0  0.00000000000E+00 -0.00000000000E+00 -0.11585374468E+04  0.11585374468E+04  0.00000000000E+00 0.  1.
          6    2    1    2  502    0  0.19452331605E+03 -0.22640562526E+02 -0.93144554501E+03  0.96739608166E+03  0.17295218975E+03 0.  0.
         24    2    3    3    0    0  0.13148050443E+03  0.51345507622E+02 -0.50338985722E+03  0.52841761235E+03  0.76813673837E+02 0.  0.
         -6    2    1    2    0  501 -0.19452331605E+03  0.22640562526E+02 -0.12798977162E+03  0.29024349524E+03  0.17177889664E+03 0.  0.
        -24    2    5    5    0    0 -0.18450985803E+03  0.32224430823E+02 -0.47790820325E+02  0.20871999150E+03  0.78725921343E+02 0.  0.
          5    1    3    3  502    0  0.63042811620E+02 -0.73986070148E+02 -0.42805568779E+03  0.43897846932E+03  0.47000000000E+01 0. -1.
        -13    1    4    4    0    0  0.77164126647E+02 -0.83436782689E+01 -0.20162814200E+03  0.21605051968E+03  0.00000000000E+00 0.  1.
         14    1    4    4    0    0  0.54316377782E+02  0.59689185891E+02 -0.30176171522E+03  0.31236709266E+03  0.00000000000E+00 0. -1.
         -5    1    5    5    0  501 -0.10013458017E+02 -0.95838682973E+01 -0.80198951295E+02  0.81523503738E+02  0.47000000000E+01 0.  1.
         11    1    6    6    0    0 -0.10634884637E+03 -0.19687097882E+02 -0.14320556852E+02  0.10909966680E+03  0.00000000000E+00 0. -1.
        -12    1    6    6    0    0 -0.78161011666E+02  0.51911528705E+02 -0.33470263472E+02  0.99620324703E+02  0.00000000000E+00 0.  1.
</event>
<event>
12    1  0.2689284E-002  0.2006664E+03  0.7818608E-02  0.1149178E+00
          2   -1    0    0  502    0  0.00000000000E+00  0.00000000000E+00  0.37566143008E+03  0.37566143008E+03  0.00000000000E+00 0. -1.
         -2   -1    0    0    0  501 -0.00000000000E+00 -0.00000000000E+00 -0.10812311500E+03  0.10812311500E+03  0.00000000000E+00 0.  1.
          6    2    1    2  502    0  0.10049401574E+03  0.76559917451E+00  0.15661503676E+03  0.25500321055E+03  0.17435232808E+03 0.  0.
         24    2    3    3    0    0  0.78356299254E+02  0.26083547991E+02  0.23751923625E+02  0.11786906507E+03  0.80677763452E+02 0.  0.
         -6    2    1    2    0  501 -0.10049401574E+03 -0.76559917451E+00  0.11092327831E+03  0.22878133453E+03  0.17302396371E+03 0.  0.
        -24    2    5    5    0    0 -0.11454435411E+03 -0.40559234124E+02  0.46846788973E+02  0.15191240793E+03  0.78213154365E+02 0.  0.
          5    1    3    3  502    0  0.22137716487E+02 -0.25317948816E+02  0.13286311314E+03  0.13713414548E+03  0.47000000000E+01 0. -1.
        -11    1    4    4    0    0  0.82974810111E+01  0.40075417442E+02 -0.42275979738E+01  0.41143162967E+02  0.00000000000E+00 0.  1.
         12    1    4    4    0    0  0.70058818243E+02 -0.13991869452E+02  0.27979521599E+02  0.76725902101E+02  0.00000000000E+00 0. -1.
         -5    1    5    5    0  501  0.14050338370E+02  0.39793634949E+02  0.64076489338E+02  0.76868926600E+02  0.47000000000E+01 0.  1.
         13    1    6    6    0    0 -0.10530814819E+03 -0.42399226239E+01  0.44378966400E+02  0.11435591667E+03  0.00000000000E+00 0. -1.
        -14    1    6    6    0    0 -0.92362059205E+01 -0.36319311500E+02  0.24678225727E+01  0.37556491261E+02  0.00000000000E+00 0.  1.
</event>
<event>
12    1  0.2689284E-002  0.1873882E+03  0.7818608E-02  0.1160838E+00
         -1   -1    0    0    0  501 -0.00000000000E+00  0.00000000000E+00  0.27730662472E+02  0.27730662472E+02  0.00000000000E+00 0.  1.
          1   -1    0    0  502    0  0.00000000000E+00 -0.00000000000E+00 -0.13374027778E+04  0.13374027778E+04  0.00000000000E+00 0. -1.
          6    2    1    2  502    0 -0.26420402179E+02  0.69607579504E+02 -0.81234357263E+03  0.83368222246E+03  0.17199045111E+03 0.  0.
         24    2    3    3    0    0 -0.59155378923E+01  0.11296880754E+03 -0.57906081582E+03  0.59547311226E+03  0.80497539958E+02 0.  0.
         -6    2    1    2    0  501  0.26420402179E+02 -0.69607579504E+02 -0.49732854272E+03  0.53145121783E+03  0.17193447810E+03 0.  0.
        -24    2    5    5    0    0  0.81874677588E+02 -0.36272827829E+02 -0.36633700429E+03  0.38527579079E+03  0.78838146810E+02 0.  0.
          5    1    3    3  502    0 -0.20504864287E+02 -0.43361228039E+02 -0.23328275681E+03  0.23820911020E+03  0.47000000000E+01 0. -1.
        -11    1    4    4    0    0 -0.95799238844E+00  0.22986291013E+02 -0.24387883198E+02  0.33526946935E+02  0.00000000000E+00 0.  1.
         12    1    4    4    0    0 -0.49575455039E+01  0.89982516531E+02 -0.55467293262E+03  0.56194616532E+03  0.00000000000E+00 0. -1.
         -5    1    5    5    0  501 -0.55454275409E+02 -0.33334751675E+02 -0.13099153843E+03  0.14617542704E+03  0.47000000000E+01 0.  1.
         11    1    6    6    0    0  0.56648421832E+02 -0.19939562747E+02 -0.34016205428E+03  0.34542271644E+03  0.00000000000E+00 0. -1.
        -12    1    6    6    0    0  0.25226255756E+02 -0.16333265082E+02 -0.26174950005E+02  0.39853074355E+02  0.00000000000E+00 0.  1.
</event>
<event>
12    1  0.2689284E-002  0.2410496E+03  0.7818608E-02  0.1119096E+00
         -2   -1    0    0    0  501 -0.00000000000E+00  0.00000000000E+00  0.13156861777E+03  0.13156861777E+03  0.00000000000E+00 0. -1.
          2   -1    0    0  502    0  0.00000000000E+00 -0.00000000000E+00 -0.59205613054E+03  0.59205613054E+03  0.00000000000E+00 0.  1.
          6    2    1    2  502    0 -0.16032499761E+03  0.55017993221E+02 -0.41229397457E+03  0.47736144245E+03  0.17075286480E+03 0.  0.
         24    2    3    3    0    0 -0.15810448007E+03  0.66419735259E+02 -0.42136811650E+03  0.46189016353E+03  0.79892588574E+02 0.  0.
         -6    2    1    2    0  501  0.16032499761E+03 -0.55017993221E+02 -0.48193538211E+02  0.24626330586E+03  0.17202300500E+03 0.  0.
        -24    2    5    5    0    0  0.14231248102E+03 -0.62049466589E+02  0.21823863088E+02  0.17347306711E+03  0.74253925534E+02 0.  0.
          5    1    3    3  502    0 -0.22205175411E+01 -0.11401742038E+02  0.90741419359E+01  0.15471278923E+02  0.47000000000E+01 0. -1.
        -13    1    4    4    0    0 -0.52017099147E+02 -0.87590749302E+01 -0.18196205576E+03  0.18945366118E+03  0.00000000000E+00 0.  1.
         14    1    4    4    0    0 -0.10608738092E+03  0.75178810189E+02 -0.23940606074E+03  0.27243650235E+03  0.00000000000E+00 0. -1.
         -5    1    5    5    0  501  0.18012516591E+02  0.70314733683E+01 -0.70017401299E+02  0.72790238743E+02  0.47000000000E+01 0.  1.
         13    1    6    6    0    0  0.79571069745E+02  0.24002874786E+01  0.25091283300E+02  0.83467892138E+02  0.00000000000E+00 0. -1.
        -14    1    6    6    0    0  0.62741411271E+02 -0.64449754068E+02 -0.32674202129E+01  0.90005174977E+02  0.00000000000E+00 0.  1.
</event>
<event>
12    1  0.2689284E-002  0.1926268E+03  0.7818608E-02  0.1156113E+00
         -1   -1    0    0    0  501 -0.00000000000E+00  0.00000000000E+00  0.78065034415E+02  0.78065034415E+02  0.00000000000E+00 0.  1.
          1   -1    0    0  502    0  0.00000000000E+00 -0.00000000000E+00 -0.57834521058E+03  0.57834521058E+03  0.00000000000E+00 0. -1.
          6    2    1    2  502    0  0.85884430332E+02  0.41840311739E+01 -0.38918222629E+03  0.43445825220E+03  0.17290901121E+03 0.  0.
         24    2    3    3    0    0  0.35135703407E+02 -0.42198631863E+02 -0.11006241163E+03  0.14695739021E+03  0.80420755387E+02 0.  0.
         -6    2    1    2    0  501 -0.85884430332E+02 -0.41840311739E+01 -0.11109794987E+03  0.22195199279E+03  0.17183215981E+03 0.  0.
        -24    2    5    5    0    0 -0.41117434345E+02 -0.53998052185E+02 -0.11844952087E+03  0.15441195862E+03  0.72154909216E+02 0.  0.
          5    1    3    3  502    0  0.50748726925E+02  0.46382663037E+02 -0.27911981466E+03  0.28750086200E+03  0.47000000000E+01 0. -1.
        -13    1    4    4    0    0  0.32804427086E+02 -0.42366337774E+02 -0.12281381528E+03  0.13399354550E+03  0.00000000000E+00 0.  1.
         14    1    4    4    0    0  0.23312763210E+01  0.16770591075E+00  0.12751403647E+02  0.12963844705E+02  0.00000000000E+00 0. -1.
         -5    1    5    5    0  501 -0.44766995987E+02  0.49814021011E+02  0.73515709977E+01  0.67540034166E+02  0.47000000000E+01 0.  1.
         13    1    6    6    0    0 -0.22988855819E+02  0.12853813611E+02 -0.16239003364E+02  0.30942095056E+02  0.00000000000E+00 0. -1.
        -14    1    6    6    0    0 -0.18128578526E+02 -0.66851865797E+02 -0.10221051751E+03  0.12346986357E+03  0.00000000000E+00 0.  1.
</event>
<event>
12    1  0.2689284E-002  0.1962774E+03  0.7818608E-02  0.1152918E+00
         -1   -1    0    0    0  501 -0.00000000000E+00  0.00000000000E+00  0.23621000561E+03  0.23621000561E+03  0.00000000000E+00 0.  1.
          1   -1    0    0  502    0  0.00000000000E+00 -0.00000000000E+00 -0.16901724650E+03  0.16901724650E+03  0.00000000000E+00 0. -1.
          6    2    1    2  502    0 -0.89078037191E+02  0.35655347649E+02  0.71353160451E+02  0.20796227737E+03  0.17014944836E+03 0.  0.
         24    2    3    3    0    0 -0.69037727570E+02 -0.20903579474E+02  0.94967930292E+02  0.14330724198E+03  0.79466284398E+02 0.  0.
         -6    2    1    2    0  501  0.89078037191E+02 -0.35655347649E+02 -0.41604013353E+01  0.19726497474E+03  0.17230775025E+03 0.  0.
        -24    2    5    5    0    0  0.65605535084E+01 -0.58294753199E+02 -0.42166843704E+02  0.10351926840E+03  0.74140927351E+02 0.  0.
          5    1    3    3  502    0 -0.20040309620E+02  0.56558927123E+02 -0.23614769841E+02  0.64655035393E+02  0.47000000000E+01 0. -1.
        -11    1    4    4    0    0 -0.74958953701E+02  0.84653118671E+01  0.54999481081E+02  0.93356570010E+02  0.00000000000E+00 0.  1.
         12    1    4    4    0    0  0.59212261306E+01 -0.29368891341E+02  0.39968449211E+02  0.49950671966E+02  0.00000000000E+00 0. -1.
         -5    1    5    5    0  501  0.82517483682E+02  0.22639405550E+02  0.38006442369E+02  0.93745706347E+02  0.47000000000E+01 0.  1.
         11    1    6    6    0    0  0.30068978038E+02 -0.44463442749E+02 -0.51797933325E+02  0.74593344731E+02  0.00000000000E+00 0. -1.
        -12    1    6    6    0    0 -0.23508424530E+02 -0.13831310450E+02  0.96310896208E+01  0.28925923666E+02  0.00000000000E+00 0.  1.
</event>
<event>
12    1  0.2689284E-002  0.2366403E+03  0.7818608E-02  0.1122051E+00
         -1   -1    0    0    0  501 -0.00000000000E+00  0.00000000000E+00  0.20892097102E+02  0.20892097102E+02  0.00000000000E+00 0. -1.
          1   -1    0    0  502    0  0.00000000000E+00 -0.00000000000E+00 -0.31885171370E+04  0.31885171370E+04  0.00000000000E+00 0.  1.
          6    2    1    2  502    0 -0.11654631755E+03  0.11637228071E+03 -0.22311701747E+04  0.22438123484E+04  0.17160406360E+03 0.  0.
         24    2    3    3    0    0  0.27120274645E+01  0.72578328353E+02 -0.87491162477E+03  0.88160832283E+03  0.80547593854E+02 0.  0.
         -6    2    1    2    0  501  0.11654631755E+03 -0.11637228071E+03 -0.93645486519E+03  0.96559688566E+03  0.16823816217E+03 0.  0.
        -24    2    5    5    0    0  0.73809703423E+02 -0.10405841978E+03 -0.41439023916E+03  0.44162015611E+03  0.83863370590E+02 0.  0.
          5    1    3    3  502    0 -0.11925834502E+03  0.43793952358E+02 -0.13562585499E+04  0.13622040256E+04  0.47000000000E+01 0. -1.
        -13    1    4    4    0    0  0.36574028690E+01  0.28208216138E+02 -0.71740482171E+03  0.71796849393E+03  0.00000000000E+00 0.  1.
         14    1    4    4    0    0 -0.94537540459E+00  0.44370112214E+02 -0.15750680306E+03  0.16363982890E+03  0.00000000000E+00 0. -1.
         -5    1    5    5    0  501  0.42736614131E+02 -0.12313860927E+02 -0.52206462603E+03  0.52397672955E+03  0.47000000000E+01 0.  1.
         13    1    6    6    0    0  0.37281659711E+02 -0.46186448272E+01 -0.52589690540E+02  0.64629169745E+02  0.00000000000E+00 0. -1.
        -14    1    6    6    0    0  0.36528043712E+02 -0.99439774957E+02 -0.36180054862E+03  0.37699098637E+03  0.00000000000E+00 0.  1.
</event>
<event>
12    1  0.2689284E-002  0.2138335E+03  0.7818608E-02  0.1138566E+00
          2   -1    0    0  502    0  0.00000000000E+00  0.00000000000E+00  0.19570115216E+03  0.19570115216E+03  0.00000000000E+00 0. -1.
         -2   -1    0    0    0  501 -0.00000000000E+00 -0.00000000000E+00 -0.23395955662E+03  0.23395955662E+03  0.00000000000E+00 0.  1.
          6    2    1    2  502    0  0.86481102802E+02  0.93337383635E+02 -0.11264984565E+02  0.21415295212E+03  0.17188292149E+03 0.  0.
         24    2    3    3    0    0  0.34038103678E+02  0.12031374971E+03 -0.27775274553E+02  0.15273087011E+03  0.83194122000E+02 0.  0.
         -6    2    1    2    0  501 -0.86481102802E+02 -0.93337383635E+02 -0.26993419893E+02  0.21550775666E+03  0.17182578426E+03 0.  0.
        -24    2    5    5    0    0 -0.11149589944E+03 -0.10791041000E+03  0.94691574012E+00  0.17500015857E+03  0.80920743140E+02 0.  0.
          5    1    3    3  502    0  0.52442999124E+02 -0.26976366077E+02  0.16510289988E+02  0.61422082017E+02  0.47000000000E+01 0. -1.
        -11    1    4    4    0    0 -0.69055697219E+01  0.76413486703E+02 -0.46661626469E+02  0.89799862071E+02  0.00000000000E+00 0.  1.
         12    1    4    4    0    0  0.40943673400E+02  0.43900263009E+02  0.18886351915E+02  0.62931008036E+02  0.00000000000E+00 0. -1.
         -5    1    5    5    0  501  0.25014796634E+02  0.14573026368E+02 -0.27940335633E+02  0.40507598095E+02  0.47000000000E+01 0.  1.
         11    1    6    6    0    0 -0.26724655841E+02  0.72709072251E+01 -0.14310905132E+02  0.31174915034E+02  0.00000000000E+00 0. -1.
        -12    1    6    6    0    0 -0.84771243595E+02 -0.11518131723E+03  0.15257820872E+02  0.14382524353E+03  0.00000000000E+00 0.  1.
</event>
<event>
12    1  0.2689284E-002  0.1793529E+03  0.7818608E-02  0.1168431E+00
         -1   -1    0    0    0  501 -0.00000000000E+00  0.00000000000E+00  0.48128660002E+03  0.48128660002E+03  0.00000000000E+00 0. -1.
          1   -1    0    0  502    0  0.00000000000E+00 -0.00000000000E+00 -0.72262923803E+02  0.72262923803E+02  0.00000000000E+00 0.  1.
          6    2    1    2  502    0 -0.26809621487E+02  0.41225699584E+02  0.28020264434E+03  0.33260861368E+03  0.17232717107E+03 0.  0.
         24    2    3    3    0    0  0.12102554287E+02 -0.37946421901E+02  0.12819842664E+03  0.15679691202E+03  0.81018715551E+02 0.  0.
         -6    2    1    2    0  501  0.26809621487E+02 -0.41225699584E+02  0.12882103187E+03  0.22094091014E+03  0.17263172770E+03 0.  0.
        -24    2    5    5    0    0 -0.26049481784E+02 -0.13563183728E+01  0.13021092871E+03  0.15455059330E+03  0.79060640231E+02 0.  0.
          5    1    3    3  502    0 -0.38912175774E+02  0.79172121484E+02  0.15200421770E+03  0.17581170166E+03  0.47000000000E+01 0. -1.
        -13    1    4    4    0    0  0.30408364471E+02  0.34707436003E+01  0.13438360798E+02  0.33426101058E+02  0.00000000000E+00 0.  1.
         14    1    4    4    0    0 -0.18305810184E+02 -0.41417165501E+02  0.11476006584E+03  0.12337081096E+03  0.00000000000E+00 0. -1.
         -5    1    5    5    0  501  0.52859103271E+02 -0.39869381211E+02 -0.13898968333E+01  0.66390316838E+02  0.47000000000E+01 0.  1.
         13    1    6    6    0    0 -0.30183831828E+02  0.35251798396E+02  0.71909210663E+02  0.85584388601E+02  0.00000000000E+00 0. -1.
        -14    1    6    6    0    0  0.41343500445E+01 -0.36608116769E+02  0.58301718044E+02  0.68966204699E+02  0.00000000000E+00 0.  1.
</event>
<event>
12    1  0.2689284E-002  0.1812052E+03  0.7818608E-02  0.1166642E+00
          2   -1    0    0  502    0  0.00000000000E+00  0.00000000000E+00  0.16919237868E+03  0.16919237868E+03  0.00000000000E+00 0.  1.
         -2   -1    0    0    0  501 -0.00000000000E+00 -0.00000000000E+00 -0.38405614719E+03  0.38405614719E+03  0.00000000000E+00 0. -1.
          6    2    1    2  502    0 -0.53164416411E+01 -0.12366139676E+02  0.85539012204E+02  0.20491371046E+03  0.18571892786E+03 0.  0.
         24    2    3    3    0    0  0.46077757375E+02 -0.25767209347E+02 -0.77343096501E+01  0.97475565792E+02  0.81575471672E+02 0.  0.
         -6    2    1    2    0  501  0.53164416411E+01  0.12366139676E+02 -0.30040278072E+03  0.34833481540E+03  0.17582413656E+03 0.  0.
        -24    2    5    5    0    0  0.65676379369E+02  0.36465337158E+02 -0.21115562210E+03  0.23783034163E+03  0.79583082601E+02 0.  0.
          5    1    3    3  502    0 -0.51394199016E+02  0.13401069671E+02  0.93273321854E+02  0.10743814467E+03  0.47000000000E+01 0. -1.
        -11    1    4    4    0    0  0.35726742656E+01 -0.46593134590E+02 -0.16066839008E+02  0.49414851088E+02  0.00000000000E+00 0.  1.
         12    1    4    4    0    0  0.42505083109E+02  0.20825925243E+02  0.83325293575E+01  0.48060714704E+02  0.00000000000E+00 0. -1.
         -5    1    5    5    0  501 -0.60359937728E+02 -0.24099197481E+02 -0.89247158622E+02  0.11050447377E+03  0.47000000000E+01 0.  1.
         13    1    6    6    0    0 -0.11506916350E+02  0.26831675249E+02 -0.82224812459E+02  0.87254041193E+02  0.00000000000E+00 0. -1.
        -14    1    6    6    0    0  0.77183295719E+02  0.96336619088E+01 -0.12893080964E+03  0.15057630044E+03  0.00000000000E+00 0.  1.
</event>
<event>
12    1  0.2689284E-002  0.2009309E+03  0.7818608E-02  0.1148956E+00
         -2   -1    0    0    0  501 -0.00000000000E+00  0.00000000000E+00  0.23034651722E+02  0.23034651722E+02  0.00000000000E+00 0.  1.
          2   -1    0    0  502    0  0.00000000000E+00 -0.00000000000E+00 -0.17741914179E+04  0.17741914179E+04  0.00000000000E+00 0. -1.
          6    2    1    2  502    0  0.36680793675E+01  0.10120551689E+03 -0.76497853226E+03  0.79019339866E+03  0.17016886025E+03 0.  0.
         24    2    3    3    0    0  0.34339393231E+02  0.12731562615E+02 -0.53101813815E+03  0.53814593072E+03  0.79243252658E+02 0.  0.
         -6    2    1    2    0  501 -0.36680793675E+01 -0.10120551689E+03 -0.98617823391E+03  0.10070326710E+04  0.17694993612E+03 0.  0.
        -24    2    5    5    0    0  0.78404150141E+01 -0.11921942019E+03 -0.96807709225E+03  0.97863042660E+03  0.79180256836E+02 0.  0.
          5    1    3    3  502    0 -0.30671313863E+02  0.88473954274E+02 -0.23396039412E+03  0.25204746794E+03  0.47000000000E+01 0. -1.
        -11    1    4    4    0    0  0.72268109085E+00 -0.28033201315E+02 -0.98555705606E+02  0.10246760342E+03  0.00000000000E+00 0.  1.
         12    1    4    4    0    0  0.33616712140E+02  0.40764763930E+02 -0.43246243254E+03  0.43567832729E+03  0.00000000000E+00 0. -1.
         -5    1    5    5    0  501 -0.11508494382E+02  0.18013903306E+02 -0.18101141656E+02  0.28402244357E+02  0.47000000000E+01 0.  1.
         13    1    6    6    0    0  0.39206260733E+02 -0.97460684069E+02 -0.69294807358E+03  0.70086571360E+03  0.00000000000E+00 0. -1.
        -14    1    6    6    0    0 -0.31365845719E+02 -0.21758736125E+02 -0.27512901867E+03  0.27776471300E+03  0.00000000000E+00 0.  1.
</event>
<event>
12    1  0.2689284E-002  0.2618412E+03  0.7818608E-02  0.1106042E+00
          1   -1    0    0  502    0  0.00000000000E+00  0.00000000000E+00  0.10835933989E+04  0.10835933989E+04  0.00000000000E+00 0.  1.
         -1   -1    0    0    0  501 -0.00000000000E+00 -0.00000000000E+00 -0.98957699765E+02  0.98957699765E+02  0.00000000000E+00 0. -1.
          6    2    1    2  502    0 -0.56565379691E+01 -0.19743801624E+03  0.13758775190E+03  0.29603917504E+03  0.17232247969E+03 0.  0.
         24    2    3    3    0    0 -0.20150489242E+02 -0.45876305061E+02  0.10275735037E+03  0.13978209907E+03  0.80431862981E+02 0.  0.
         -6    2    1    2    0  501  0.56565379691E+01  0.19743801624E+03  0.84704794722E+03  0.88651192361E+03  0.17146252984E+03 0.  0.
        -24    2    5    5    0    0 -0.39265638470E+02  0.40050615561E+02  0.39133569452E+03  0.40227588294E+03  0.74407109977E+02 0.  0.
          5    1    3    3  502    0  0.14493951273E+02 -0.15156171118E+03  0.34830401531E+02  0.15625707597E+03  0.47000000000E+01 0. -1.
        -13    1    4    4    0    0  0.24262273776E+02 -0.42939836692E+02  0.44192156755E+02  0.66222611113E+02  0.00000000000E+00 0.  1.
         14    1    4    4    0    0 -0.44412763018E+02 -0.29364683688E+01  0.58565193613E+02  0.73559487956E+02  0.00000000000E+00 0. -1.
         -5    1    5    5    0  501  0.44922176439E+02  0.15738740068E+03  0.45571225270E+03  0.48423604067E+03  0.47000000000E+01 0.  1.
         11    1    6    6    0    0 -0.15937413636E+02 -0.18639588137E+02  0.57386945570E+02  0.62407506930E+02  0.00000000000E+00 0. -1.
        -12    1    6    6    0    0 -0.23328224834E+02  0.58690203698E+02  0.33394874895E+03  0.33986837601E+03  0.00000000000E+00 0.  1.
</event>
<event>
12    1  0.2689284E-002  0.1760131E+03  0.7818608E-02  0.1171718E+00
          1   -1    0    0  502    0  0.00000000000E+00  0.00000000000E+00  0.11127456994E+03  0.11127456994E+03  0.00000000000E+00 0. -1.
         -1   -1    0    0    0  501 -0.00000000000E+00 -0.00000000000E+00 -0.29295441773E+03  0.29295441773E+03  0.00000000000E+00 0.  1.
          6    2    1    2  502    0  0.34338801243E+02 -0.11940346039E+02 -0.45305937204E+02  0.18071628153E+03  0.17112574713E+03 0.  0.
         24    2    3    3    0    0  0.47839259203E+02 -0.56786738008E+02 -0.69485623678E+02  0.12779928544E+03  0.77402048589E+02 0.  0.
         -6    2    1    2    0  501 -0.34338801243E+02  0.11940346039E+02 -0.13637391059E+03  0.22351270613E+03  0.17331578456E+03 0.  0.
        -24    2    5    5    0    0 -0.39275518339E+02 -0.55649086473E+02 -0.10755566163E+03  0.14972053828E+03  0.78794873360E+02 0.  0.
          5    1    3    3  502    0 -0.13500457960E+02  0.44846391969E+02  0.24179686474E+02  0.52916996095E+02  0.47000000000E+01 0. -1.
        -11    1    4    4    0    0  0.92830950062E+01 -0.49591419229E+02 -0.29192487217E+01  0.50537181630E+02  0.00000000000E+00 0.  1.
         12    1    4    4    0    0  0.38556164197E+02 -0.71953187791E+01 -0.66566374957E+02  0.77262103808E+02  0.00000000000E+00 0. -1.
         -5    1    5    5    0  501  0.49367170962E+01  0.67589432513E+02 -0.28818248952E+02  0.73792167848E+02  0.47000000000E+01 0.  1.
         11    1    6    6    0    0 -0.42225899813E+02 -0.34388283958E+02 -0.17586651790E+02  0.57226488707E+02  0.00000000000E+00 0. -1.
        -12    1    6    6    0    0  0.29503814737E+01 -0.21260802515E+02 -0.89969009844E+02  0.92494049574E+02  0.00000000000E+00 0.  1.
</event>
<event>
12    1  0.2689284E-002  0.3553523E+03  0.7818608E-02  0.1060439E+00
          1   -1    0    0  502    0  0.00000000000E+00  0.00000000000E+00  0.74671625986E+03  0.74671625986E+03  0.00000000000E+00 0.  1.
         -1   -1    0    0    0  501 -0.00000000000E+00 -0.00000000000E+00 -0.18076816721E+03  0.18076816721E+03  0.00000000000E+00 0. -1.
          6    2    1    2  502    0 -0.80109876121E+02  0.29658755169E+03  0.39813140473E+03  0.53139736488E+03  0.17173460893E+03 0.  0.
         24    2    3    3    0    0 -0.92355872470E+02  0.19691559257E+03  0.18794465068E+03  0.29840589414E+03  0.80109476093E+02 0.  0.
         -6    2    1    2    0  501  0.80109876121E+02 -0.29658755169E+03  0.16781668792E+03  0.39608706218E+03  0.18531257922E+03 0.  0.
        -24    2    5    5    0    0 -0.26960049710E+02 -0.11343348390E+03  0.10076093260E+03  0.17353831272E+03  0.79804642067E+02 0.  0.
          5    1    3    3  502    0  0.12245996348E+02  0.99671959113E+02  0.21018675406E+03  0.23299147075E+03  0.47000000000E+01 0. -1.
        -13    1    4    4    0    0 -0.18880234602E+02  0.11155005206E+03  0.60405496782E+02  0.12825249087E+03  0.00000000000E+00 0.  1.
         14    1    4    4    0    0 -0.73475637868E+02  0.85365540516E+02  0.12753915389E+03  0.17015340327E+03  0.00000000000E+00 0. -1.
         -5    1    5    5    0  501  0.10706992583E+03 -0.18315406779E+03  0.67055755321E+02  0.22254874946E+03  0.47000000000E+01 0.  1.
         11    1    6    6    0    0  0.26218009402E+02 -0.25020081851E+02  0.39238891179E+02  0.53414221830E+02  0.00000000000E+00 0. -1.
        -12    1    6    6    0    0 -0.53178059112E+02 -0.88413402048E+02  0.61522041417E+02  0.12012409089E+03  0.00000000000E+00 0.  1.
</event>
<event>
12    1  0.2689284E-002  0.1918716E+03  0.7818608E-02  0.1156784E+00
         -2   -1    0    0    0  501 -0.00000000000E+00  0.00000000000E+00  0.28434493356E+03  0.28434493356E+03  0.00000000000E+00 0.  1.
          2   -1    0    0  502    0  0.00000000000E+00 -0.00000000000E+00 -0.21425485644E+03  0.21425485644E+03  0.00000000000E+00 0. -1.
          6    2    1    2  502    0  0.29484322071E+02 -0.81097134732E+02  0.19200893701E+03  0.27240273605E+03  0.17288651829E+03 0.  0.
         24    2    3    3    0    0 -0.33830800203E+02 -0.15331040929E+01  0.61273522071E+02  0.10671303088E+03  0.80537897928E+02 0.  0.
         -6    2    1    2    0  501 -0.29484322071E+02  0.81097134732E+02 -0.12191885989E+03  0.22619705395E+03  0.16986709013E+03 0.  0.
        -24    2    5    5    0    0 -0.96911444523E+01  0.48628315032E+02 -0.15091301107E+03  0.17814765296E+03  0.80642532463E+02 0.  0.
          5    1    3    3  502    0  0.63315122274E+02 -0.79564030639E+02  0.13073541494E+03  0.16568970517E+03  0.47000000000E+01 0. -1.
        -13    1    4    4    0    0 -0.28589266215E+02  0.36865136394E+01  0.80823658643E+02  0.85810257674E+02  0.00000000000E+00 0.  1.
         14    1    4    4    0    0 -0.52415339879E+01 -0.52196177323E+01 -0.19550136572E+02  0.20902773209E+02  0.00000000000E+00 0. -1.
         -5    1    5    5    0  501 -0.19793177619E+02  0.32468819700E+02  0.28994151180E+02  0.48049400991E+02  0.47000000000E+01 0.  1.
         13    1    6    6    0    0 -0.16877855480E+02  0.69737087018E+02 -0.12328047884E+03  0.14264010577E+03  0.00000000000E+00 0. -1.
        -14    1    6    6    0    0  0.71867110280E+01 -0.21108771985E+02 -0.27632532232E+02  0.35507547193E+02  0.00000000000E+00 0.  1.
</event>
<event>
12    1  0.2689284E-002  0.2191792E+03  0.7818608E-02  0.1134496E+00
         -1   -1    0    0    0  501 -0.00000000000E+00  0.00000000000E+00  0.91994606309E+02  0.91994606309E+02  0.00000000000E+00 0.  1.
          1   -1    0    0  502    0  0.00000000000E+00 -0.00000000000E+00 -0.70942847226E+03  0.70942847226E+03  0.00000000000E+00 0. -1.
          6    2    1    2  502    0  0.58094661806E+02 -0.12420225290E+03 -0.10257742155E+03  0.24174742774E+03  0.17064144295E+03 0.  0.
         24    2    3    3    0    0 -0.11087133055E+01 -0.17120173795E+02 -0.24293071350E+01  0.83559735075E+02  0.81743490240E+02 0.  0.
         -6    2    1    2    0  501 -0.58094661806E+02  0.12420225290E+03 -0.51485644441E+03  0.55967565083E+03  0.17134318320E+03 0.  0.
        -24    2    5    5    0    0 -0.54858539097E+02  0.92437560468E+02 -0.18479522038E+03  0.22804035449E+03  0.79366037459E+02 0.  0.
          5    1    3    3  502    0  0.59203375111E+02 -0.10708207911E+03 -0.10014811441E+03  0.15818769267E+03  0.47000000000E+01 0. -1.
        -13    1    4    4    0    0 -0.22437621478E+02 -0.40496498167E+02  0.13372010087E+02  0.48189458133E+02  0.00000000000E+00 0.  1.
         14    1    4    4    0    0  0.21328908173E+02  0.23376324372E+02 -0.15801317222E+02  0.35370276942E+02  0.00000000000E+00 0. -1.
         -5    1    5    5    0  501 -0.32361227091E+01  0.31764692436E+02 -0.33006122402E+03  0.33163529634E+03  0.47000000000E+01 0.  1.
         13    1    6    6    0    0 -0.28533003478E+02  0.21845622753E+02 -0.13001348434E+03  0.13488835988E+03  0.00000000000E+00 0. -1.
        -14    1    6    6    0    0 -0.26325535619E+02  0.70591937715E+02 -0.54781736045E+02  0.93151994611E+02  0.00000000000E+00 0.  1.
</event>
<event>
12    1  0.2689284E-002  0.2084671E+03  0.7818608E-02  0.1142786E+00
          2   -1    0    0  502    0  0.00000000000E+00  0.00000000000E+00  0.40243228752E+03  0.40243228752E+03  0.00000000000E+00 0. -1.
         -2   -1    0    0    0  501 -0.00000000000E+00 -0.00000000000E+00 -0.17059791729E+03  0.17059791729E+03  0.00000000000E+00 0.  1.
          6    2    1    2  502    0  0.11847123409E+03  0.27829008642E+02 -0.56392379134E+02  0.21929556715E+03  0.17349512477E+03 0.  0.
         24    2    3    3    0    0  0.14109684754E+02  0.15900115458E+02 -0.80645567462E+02  0.11138848389E+03  0.73836237158E+02 0.  0.
         -6    2    1    2    0  501 -0.11847123409E+03 -0.27829008642E+02  0.28822674936E+03  0.35373463766E+03  0.16505649882E+03 0.  0.
        -24    2    5    5    0    0 -0.26647678781E+02 -0.46778885192E+02  0.21386568790E+03  0.23397520967E+03  0.78150517546E+02 0.  0.
          5    1    3    3  502    0  0.10436154934E+03  0.11928893183E+02  0.24253188328E+02  0.10790708326E+03  0.47000000000E+01 0. -1.
        -13    1    4    4    0    0  0.44629719109E+02  0.10231951805E+02 -0.48739843851E+02  0.66873590035E+02  0.00000000000E+00 0.  1.
         14    1    4    4    0    0 -0.30520034355E+02  0.56681636531E+01 -0.31905723611E+02  0.44514893860E+02  0.00000000000E+00 0. -1.
         -5    1    5    5    0  501 -0.91823555313E+02  0.18949876550E+02  0.74361061461E+02  0.11975942799E+03  0.47000000000E+01 0.  1.
         13    1    6    6    0    0 -0.18715246555E+02 -0.84108384877E+01  0.18287026275E+03  0.18401775908E+03  0.00000000000E+00 0. -1.
        -14    1    6    6    0    0 -0.79324322256E+01 -0.38368046704E+02  0.30995425148E+02  0.49957450586E+02  0.00000000000E+00 0.  1.
</event>
<event>
12    1  0.2689284E-002  0.1745689E+03  0.7818608E-02  0.1173165E+00
          3   -1    0    0  502    0  0.00000000000E+00  0.00000000000E+00  0.70140022719E+03  0.70140022719E+03  0.00000000000E+00 0.  1.
         -3   -1    0    0    0  501 -0.00000000000E+00 -0.00000000000E+00 -0.55231046414E+02  0.55231046414E+02  0.00000000000E+00 0. -1.
          6    2    1    2  502    0  0.25917151895E+02  0.10824294753E+02  0.49808911097E+03  0.52785453013E+03  0.17247834180E+03 0.  0.
         24    2    3    3    0    0  0.81195728709E+02  0.83268480917E+00  0.38496606120E+03  0.40146438924E+03  0.79883338875E+02 0.  0.
         -6    2    1    2    0  501 -0.25917151895E+02 -0.10824294753E+02  0.14808006980E+03  0.22877674347E+03  0.17211108960E+03 0.  0.
        -24    2    5    5    0    0 -0.12576778922E+02  0.57244499123E+02  0.51826636640E+02  0.11004115636E+03  0.77381831075E+02 0.  0.
          5    1    3    3  502    0 -0.55278576814E+02  0.99916099436E+01  0.11312304977E+03  0.12639014089E+03  0.47000000000E+01 0. -1.
        -11    1    4    4    0    0  0.78320341090E+02 -0.27372426578E+02  0.32002339639E+03  0.33060293375E+03  0.00000000000E+00 0.  1.
         12    1    4    4    0    0  0.28753876188E+01  0.28205111387E+02  0.64942664808E+02  0.70861455494E+02  0.00000000000E+00 0. -1.
         -5    1    5    5    0  501 -0.13340372972E+02 -0.68068793875E+02  0.96253433164E+02  0.11873558711E+03  0.47000000000E+01 0.  1.
         11    1    6    6    0    0  0.29471033847E+02  0.89571951735E+01  0.62029555807E+01  0.31420532130E+02  0.00000000000E+00 0. -1.
        -12    1    6    6    0    0 -0.42047812770E+02  0.48287303949E+02  0.45623681060E+02  0.78620624233E+02  0.00000000000E+00 0.  1.
</event>
<event>
12    1  0.2689284E-002  0.1828565E+03  0.7818608E-02  0.1165067E+00
          2   -1    0    0  502    0  0.00000000000E+00  0.00000000000E+00  0.13502680789E+04  0.13502680789E+04  0.00000000000E+00 0.  1.
         -2   -1    0    0    0  501 -0.00000000000E+00 -0.00000000000E+00 -0.24769868946E+02  0.24769868946E+02  0.00000000000E+00 0. -1.
          6    2    1    2  502    0 -0.29771784631E+02  0.54266941067E+02  0.67356165317E+03  0.69788835245E+03  0.17184758308E+03 0.  0.
         24    2    3    3    0    0 -0.53918713359E+02  0.68958921122E+02  0.64945330212E+03  0.66044197698E+03  0.82045431801E+02 0.  0.
         -6    2    1    2    0  501  0.29771784631E+02 -0.54266941067E+02  0.65193655676E+03  0.67714959537E+03  0.17227605875E+03 0.  0.
        -24    2    5    5    0    0  0.44426010559E+02  0.28929967796E+02  0.30468466565E+03  0.31973885426E+03  0.81176203350E+02 0.  0.
          5    1    3    3  502    0  0.24146928729E+02 -0.14691980056E+02  0.24108351049E+02  0.37446375463E+02  0.47000000000E+01 0. -1.
        -13    1    4    4    0    0 -0.52840650820E+02  0.20704794223E+02  0.50409901524E+03  0.50728358937E+03  0.00000000000E+00 0.  1.
         14    1    4    4    0    0 -0.10780625394E+01  0.48254126899E+02  0.14535428688E+03  0.15315838761E+03  0.00000000000E+00 0. -1.
         -5    1    5    5    0  501 -0.14654225929E+02 -0.83196908863E+02  0.34725189112E+03  0.35741074112E+03  0.47000000000E+01 0.  1.
         11    1    6    6    0    0  0.18944874381E+02  0.18017013721E+02  0.18056774806E+02  0.31773702415E+02  0.00000000000E+00 0. -1.
        -12    1    6    6    0    0  0.25481136178E+02  0.10912954075E+02  0.28662789084E+03  0.28796515184E+03  0.00000000000E+00 0.  1.
</event>
<event>
12    1  0.2689284E-002  0.1727386E+03  0.7818608E-02  0.1175022E+00
          2   -1    0    0  502    0  0.00000000000E+00  0.00000000000E+00  0.10287829333E+04  0.10287829333E+04  0.00000000000E+00 0.  1.
         -2   -1    0    0    0  501 -0.00000000000E+00 -0.00000000000E+00 -0.30910313069E+02  0.30910313069E+02  0.00000000000E+00 0. -1.
          6    2    1    2  502    0 -0.21845160975E+02  0.22876372658E+02  0.37020309922E+03  0.40896223917E+03  0.17087784794E+03 0.  0.
         24    2    3    3    0    0 -0.64364865791E+02  0.13530728850E+01  0.33233635697E+03  0.34791178546E+03  0.80314939713E+02 0.  0.
         -6    2    1    2    0  501  0.21845160975E+02 -0.22876372658E+02  0.62766952100E+03  0.65073100718E+03  0.16876396721E+03 0.  0.
        -24    2    5    5    0    0 -0.47841689765E+02 -0.39091432779E+02  0.41098123374E+03  0.42248752058E+03  0.75981334297E+02 0.  0.
          5    1    3    3  502    0  0.42519704816E+02  0.21523299773E+02  0.37866742245E+02  0.61050453717E+02  0.47000000000E+01 0. -1.
        -13    1    4    4    0    0 -0.52850624854E+02 -0.22316411916E+02  0.11036309911E+03  0.12438337684E+03  0.00000000000E+00 0.  1.
         14    1    4    4    0    0 -0.11514240936E+02  0.23669484801E+02  0.22197325786E+03  0.22352840862E+03  0.00000000000E+00 0. -1.
         -5    1    5    5    0  501  0.69686850740E+02  0.16215060121E+02  0.21668828726E+03  0.22824348661E+03  0.47000000000E+01 0.  1.
         11    1    6    6    0    0 -0.19862289853E+02 -0.27963183039E+02  0.52295722799E+02  0.62540329284E+02  0.00000000000E+00 0. -1.
        -12    1    6    6    0    0 -0.27979399912E+02 -0.11128249741E+02  0.35868551094E+03  0.35994719129E+03  0.00000000000E+00 0.  1.
</event>
<event>
12    1  0.2689284E-002  0.2252383E+03  0.7818608E-02  0.1130037E+00
         -1   -1    0    0    0  501 -0.00000000000E+00  0.00000000000E+00  0.15155948882E+03  0.15155948882E+03  0.00000000000E+00 0. -1.
          1   -1    0    0  502    0  0.00000000000E+00 -0.00000000000E+00 -0.46109873705E+03  0.46109873705E+03  0.00000000000E+00 0.  1.
          6    2    1    2  502    0  0.12644935816E+03  0.71141301445E+02  0.57731571058E+01  0.22494954535E+03  0.17180932356E+03 0.  0.
         24    2    3    3    0    0  0.45042120806E+02  0.67584076069E+01 -0.52611049395E+02  0.10577278218E+03  0.79658585294E+02 0.  0.
         -6    2    1    2    0  501 -0.12644935816E+03 -0.71141301445E+02 -0.31531240534E+03  0.38770868053E+03  0.17275874231E+03 0.  0.
        -24    2    5    5    0    0 -0.18952638888E+01 -0.23224266798E+02 -0.17611516563E+03  0.19481563723E+03  0.79960129765E+02 0.  0.
          5    1    3    3  502    0  0.81407237352E+02  0.64382893838E+02  0.58384206501E+02  0.11917676318E+03  0.47000000000E+01 0. -1.
        -13    1    4    4    0    0  0.41431946107E+02 -0.32245777218E+02 -0.27831867249E+02  0.59422294984E+02  0.00000000000E+00 0.  1.
         14    1    4    4    0    0  0.36101746998E+01  0.39004184825E+02 -0.24779182146E+02  0.46350487193E+02  0.00000000000E+00 0. -1.
         -5    1    5    5    0  501 -0.12455409427E+03 -0.47917034647E+02 -0.13919723971E+03  0.19289304329E+03  0.47000000000E+01 0.  1.
         11    1    6    6    0    0  0.38194047376E+02 -0.33750642643E+01 -0.88195103659E+02  0.96169395460E+02  0.00000000000E+00 0. -1.
        -12    1    6    6    0    0 -0.40089311265E+02 -0.19849202534E+02 -0.87920061970E+02  0.98646241772E+02  0.00000000000E+00 0.  1.
</event>
<event>
12    1  0.2689284E-002  0.2141270E+03  0.7818608E-02  0.1138339E+00
          1   -1    0    0  502    0  0.00000000000E+00  0.00000000000E+00  0.94348702477E+03  0.94348702477E+03  0.00000000000E+00 0.  1.
         -1   -1    0    0    0  501 -0.00000000000E+00 -0.00000000000E+00 -0.71714742576E+02  0.71714742576E+02  0.00000000000E+00 0. -1.
          6    2    1    2  502    0 -0.49360602981E+02  0.11368287468E+03  0.15076085210E+03  0.26368585406E+03  0.17731646846E+03 0.  0.
         24    2    3    3    0    0 -0.54486573170E+02  0.69365431040E+02  0.17642275519E+03  0.21200476806E+03  0.77721833811E+02 0.  0.
         -6    2    1    2    0  501  0.49360602981E+02 -0.11368287468E+03  0.72101143010E+03  0.75151591328E+03  0.17192562482E+03 0.  0.
        -24    2    5    5    0    0 -0.22884982394E+01 -0.62775228712E+02  0.19083537151E+03  0.21638232139E+03  0.80356726085E+02 0.  0.
          5    1    3    3  502    0  0.51259701890E+01  0.44317443636E+02 -0.25661903090E+02  0.51681086008E+02  0.47000000000E+01 0. -1.
        -11    1    4    4    0    0 -0.56612090127E+02  0.17089937906E+02  0.59391714867E+02  0.83811517830E+02  0.00000000000E+00 0.  1.
         12    1    4    4    0    0  0.21255169570E+01  0.52275493134E+02  0.11703104032E+03  0.12819325023E+03  0.00000000000E+00 0. -1.
         -5    1    5    5    0  501  0.51649101220E+02 -0.50907645964E+02  0.53017605858E+03  0.53513359189E+03  0.47000000000E+01 0.  1.
         11    1    6    6    0    0  0.63427430116E+01 -0.75562736634E+02  0.18491283059E+03  0.19985672986E+03  0.00000000000E+00 0. -1.
        -12    1    6    6    0    0 -0.86312412510E+01  0.12787507922E+02  0.59225409266E+01  0.16525591530E+02  0.00000000000E+00 0.  1.
</event>
<event>
12    1  0.2689284E-002  0.1713950E+03  0.7818608E-02  0.1176401E+00
          1   -1    0    0  502    0  0.00000000000E+00  0.00000000000E+00  0.47387967350E+03  0.47387967350E+03  0.00000000000E+00 0.  1.
         -1   -1    0    0    0  501 -0.00000000000E+00 -0.00000000000E+00 -0.65689813851E+02  0.65689813851E+02  0.00000000000E+00 0. -1.
          6    2    1    2  502    0 -0.28674324728E+02 -0.10479891331E+01  0.13787982721E+03  0.21840563150E+03  0.16693369323E+03 0.  0.
         24    2    3    3    0    0 -0.29888300174E+02 -0.37722197459E+02  0.15309124970E+03  0.17840627317E+03  0.77946089720E+02 0.  0.
         -6    2    1    2    0  501  0.28674324728E+02  0.10479891331E+01  0.27031003243E+03  0.32116385585E+03  0.17104208106E+03 0.  0.
        -24    2    5    5    0    0  0.73501930653E+01  0.48398238583E+02  0.24670389188E+03  0.26392659014E+03  0.79987623283E+02 0.  0.
          5    1    3    3  502    0  0.12139754462E+01  0.36674208326E+02 -0.15211422484E+02  0.39999358329E+02  0.47000000000E+01 0. -1.
        -11    1    4    4    0    0  0.10723943979E+02  0.10315835584E+02  0.82595922405E+02  0.83925597026E+02  0.00000000000E+00 0.  1.
         12    1    4    4    0    0 -0.40612244153E+02 -0.48038033043E+02  0.70495327293E+02  0.94480676141E+02  0.00000000000E+00 0. -1.
         -5    1    5    5    0  501  0.21324131663E+02 -0.47350249450E+02  0.23606140549E+02  0.57237265708E+02  0.47000000000E+01 0.  1.
         11    1    6    6    0    0  0.15312768137E+02  0.69309139931E+02  0.17629612769E+03  0.19004884210E+03  0.00000000000E+00 0. -1.
        -12    1    6    6    0    0 -0.79625750714E+01 -0.20910901348E+02  0.70407764192E+02  0.73877748040E+02  0.00000000000E+00 0.  1.
</event>
<event>
12    1  0.2689284E-002  0.2254922E+03  0.7818608E-02  0.1129853E+00
         -1   -1    0    0    0  501 -0.00000000000E+00  0.00000000000E+00  0.12565978932E+03  0.12565978932E+03  0.00000000000E+00 0.  1.
          1   -1    0    0  502    0  0.00000000000E+00 -0.00000000000E+00 -0.58829331202E+03  0.58829331202E+03  0.00000000000E+00 0. -1.
          6    2    1    2  502    0  0.57217039213E+02 -0.13382623600E+03 -0.31872558521E+02  0.22774838947E+03  0.17225045110E+03 0.  0.
         24    2    3    3    0    0  0.78933125851E+02 -0.39090549929E+02 -0.50054376999E+02  0.12875794975E+03  0.79464831944E+02 0.  0.
         -6    2    1    2    0  501 -0.57217039213E+02  0.13382623600E+03 -0.43076096418E+03  0.48620471187E+03  0.17221138917E+03 0.  0.
        -24    2    5    5    0    0 -0.23973030299E+02  0.15529142282E+03 -0.28934808897E+03  0.33928429242E+03  0.81861971081E+02 0.  0.
          5    1    3    3  502    0 -0.21716086638E+02 -0.94735686066E+02  0.18181818479E+02  0.98990439723E+02  0.47000000000E+01 0. -1.
        -13    1    4    4    0    0  0.55975317981E+02 -0.25797565218E+02  0.10615636509E+02  0.62541524867E+02  0.00000000000E+00 0.  1.
         14    1    4    4    0    0  0.22957807870E+02 -0.13292984712E+02 -0.60670013509E+02  0.66216424880E+02  0.00000000000E+00 0. -1.
         -5    1    5    5    0  501 -0.33244008914E+02 -0.21465186828E+02 -0.14141287521E+03  0.14692041944E+03  0.47000000000E+01 0.  1.
         13    1    6    6    0    0  0.21233840333E+02  0.11199323878E+03 -0.17324849223E+03  0.20738467052E+03  0.00000000000E+00 0. -1.
        -14    1    6    6    0    0 -0.45206870632E+02  0.43298184040E+02 -0.11609959675E+03  0.13189962190E+03  0.00000000000E+00 0.  1.
</event>
<event>
12    1  0.2689284E-002  0.2269483E+03  0.7818608E-02  0.1128806E+00
          2   -1    0    0  502    0  0.00000000000E+00  0.00000000000E+00  0.20926984137E+04  0.20926984137E+04  0.00000000000E+00 0.  1.
         -2   -1    0    0    0  501 -0.00000000000E+00 -0.00000000000E+00 -0.12574178775E+03  0.12574178775E+03  0.00000000000E+00 0. -1.
          6    2    1    2  502    0 -0.11503604501E+03  0.93328860678E+02  0.19780433966E+04  0.19909942744E+04  0.17163610928E+03 0.  0.
         24    2    3    3    0    0 -0.15138270821E+03  0.88665552214E+02  0.16380523893E+04  0.16490018748E+04  0.72202828097E+02 0.  0.
         -6    2    1    2    0  501  0.11503604501E+03 -0.93328860678E+02 -0.11086770657E+02  0.22744592702E+03  0.17223578417E+03 0.  0.
        -24    2    5    5    0    0  0.12603956126E+02 -0.21834072922E+02  0.45421204934E+02  0.90263279375E+02  0.73815901373E+02 0.  0.
          5    1    3    3  502    0  0.36346663196E+02  0.46633084650E+01  0.33999100725E+03  0.34199239960E+03  0.47000000000E+01 0. -1.
        -13    1    4    4    0    0 -0.68803867369E+02  0.74106082567E+02  0.10741078358E+04  0.10788574171E+04  0.00000000000E+00 0.  1.
         14    1    4    4    0    0 -0.82578840842E+02  0.14559469647E+02  0.56394455358E+03  0.57014445768E+03  0.00000000000E+00 0. -1.
         -5    1    5    5    0  501  0.10243208889E+03 -0.71494787757E+02 -0.56507975591E+02  0.13718264765E+03  0.47000000000E+01 0.  1.
         11    1    6    6    0    0  0.25822454421E+02 -0.44640746613E+02  0.28226328661E+02  0.58790484265E+02  0.00000000000E+00 0. -1.
        -12    1    6    6    0    0 -0.13218498295E+02  0.22806673691E+02  0.17194876273E+02  0.31472795110E+02  0.00000000000E+00 0.  1.
</event>
<event>
12    1  0.2689284E-002  0.1852234E+03  0.7818608E-02  0.1162841E+00
         -2   -1    0    0    0  501 -0.00000000000E+00  0.00000000000E+00  0.43129346936E+03  0.43129346936E+03  0.00000000000E+00 0.  1.
          2   -1    0    0  502    0  0.00000000000E+00 -0.00000000000E+00 -0.10663122879E+03  0.10663122879E+03  0.00000000000E+00 0. -1.
          6    2    1    2  502    0 -0.41125274626E+02 -0.55993889265E+02  0.26507746082E+02  0.18670244618E+03  0.17125577059E+03 0.  0.
         24    2    3    3    0    0  0.37589359331E+02 -0.43320954662E+01  0.29367968056E+02  0.92388049573E+02  0.79002197249E+02 0.  0.
         -6    2    1    2    0  501  0.41125274626E+02  0.55993889265E+02  0.29815449449E+03  0.35122225197E+03  0.17214634427E+03 0.  0.
        -24    2    5    5    0    0  0.48483856026E+02  0.28704153367E+01  0.70657283116E+02  0.11744174939E+03  0.80257020023E+02 0.  0.
          5    1    3    3  502    0 -0.78714633957E+02 -0.51661793799E+02 -0.28602219739E+01  0.94314396607E+02  0.47000000000E+01 0. -1.
        -11    1    4    4    0    0  0.26555012288E+02 -0.31111363406E+02  0.43883781504E+02  0.59990598344E+02  0.00000000000E+00 0.  1.
         12    1    4    4    0    0  0.11034347043E+02  0.26779267940E+02 -0.14515813448E+02  0.32397451229E+02  0.00000000000E+00 0. -1.
         -5    1    5    5    0  501 -0.73585813995E+01  0.53123473928E+02  0.22749721137E+03  0.23378050258E+03  0.47000000000E+01 0.  1.
         13    1    6    6    0    0  0.68148793731E+02  0.14579404968E+02  0.60941504310E+02  0.92577989197E+02  0.00000000000E+00 0. -1.
        -14    1    6    6    0    0 -0.19664937705E+02 -0.11708989631E+02  0.97157788058E+01  0.24863760193E+02  0.00000000000E+00 0.  1.
</event>
<event>
12    1  0.2689284E-002  0.1881512E+03  0.7818608E-02  0.1160139E+00
          2   -1    0    0  502    0  0.00000000000E+00  0.00000000000E+00  0.12844745800E+04  0.12844745800E+04  0.00000000000E+00 0.  1.
         -2   -1    0    0    0  501 -0.00000000000E+00 -0.00000000000E+00 -0.28132782878E+02  0.28132782878E+02  0.00000000000E+00 0. -1.
          6    2    1    2  502    0  0.70144355663E+02 -0.34076366222E+02  0.53612258293E+03  0.56833570121E+03  0.17174578884E+03 0.  0.
         24    2    3    3    0    0  0.11999314067E+02 -0.79381218705E+02  0.30587521432E+03  0.32653140788E+03  0.81349567792E+02 0.  0.
         -6    2    1    2    0  501 -0.70144355663E+02  0.34076366222E+02  0.72021921425E+03  0.74427166172E+03  0.17071367988E+03 0.  0.
        -24    2    5    5    0    0 -0.83748896207E+02 -0.99612010870E+01  0.64809212807E+03  0.65854653461E+03  0.80913711014E+02 0.  0.
          5    1    3    3  502    0  0.58145041596E+02  0.45304852483E+02  0.23024736861E+03  0.24180429333E+03  0.47000000000E+01 0. -1.
        -11    1    4    4    0    0 -0.14624300865E+02 -0.43471910337E+02  0.25375560929E+03  0.25786738144E+03  0.00000000000E+00 0.  1.
         12    1    4    4    0    0  0.26623614932E+02 -0.35909308368E+02  0.52119605030E+02  0.68664026448E+02  0.00000000000E+00 0. -1.
         -5    1    5    5    0  501  0.13604540544E+02  0.44037567309E+02  0.72127086174E+02  0.85725127109E+02  0.47000000000E+01 0.  1.
         11    1    6    6    0    0 -0.63392050583E+02 -0.39647322306E+02  0.32679401217E+03  0.33523840566E+03  0.00000000000E+00 0. -1.
        -12    1    6    6    0    0 -0.20356845624E+02  0.29686121219E+02  0.32129811591E+03  0.32330812894E+03  0.00000000000E+00 0.  1.
</event>
<event>
12    1  0.2689284E-002  0.2836587E+03  0.7818608E-02  0.1093707E+00
          2   -1    0    0  502    0  0.00000000000E+00  0.00000000000E+00  0.24772175784E+04  0.24772175784E+04  0.00000000000E+00 0. -1.
         -2   -1    0    0    0  501 -0.00000000000E+00 -0.00000000000E+00 -0.32491267666E+02  0.32491267666E+02  0.00000000000E+00 0.  1.
          6    2    1    2  502    0  0.14947770730E+03 -0.16553406764E+03  0.12129167158E+04  0.12461935650E+04  0.17912657406E+03 0.  0.
         24    2    3    3    0    0  0.64836091655E+02 -0.14133238245E+03  0.10086054733E+04  0.10236736817E+04  0.80276053294E+02 0.  0.
         -6    2    1    2    0  501 -0.14947770730E+03  0.16553406764E+03  0.12318095950E+04  0.12635152811E+04  0.17137932986E+03 0.  0.
        -24    2    5    5    0    0 -0.17439898765E+02  0.11318033499E+03  0.60646959606E+03  0.62222977489E+03  0.79060631866E+02 0.  0.
          5    1    3    3  502    0  0.84641615640E+02 -0.24201685197E+02  0.20431124247E+03  0.22251988330E+03  0.47000000000E+01 0. -1.
        -13    1    4    4    0    0  0.71192946730E+02 -0.61684532988E+02  0.59678827114E+03  0.60417684319E+03  0.00000000000E+00 0.  1.
         14    1    4    4    0    0 -0.63568550749E+01 -0.79647849458E+02  0.41181720218E+03  0.41949683853E+03  0.00000000000E+00 0. -1.
         -5    1    5    5    0  501 -0.13203780853E+03  0.52353732656E+02  0.62533999891E+03  0.64128550619E+03  0.47000000000E+01 0.  1.
         11    1    6    6    0    0 -0.33971276258E+02  0.23830470852E+02  0.29068238764E+03  0.29362934021E+03  0.00000000000E+00 0. -1.
        -12    1    6    6    0    0  0.16531377493E+02  0.89349864134E+02  0.31578720842E+03  0.32860043467E+03  0.00000000000E+00 0.  1.
</event>
<event>
12    1  0.2689284E-002  0.1775802E+03  0.7818608E-02  0.1170166E+00
         -2   -1    0    0    0  501 -0.00000000000E+00  0.00000000000E+00  0.15875566155E+03  0.15875566155E+03  0.00000000000E+00 0. -1.
          2   -1    0    0  502    0  0.00000000000E+00 -0.00000000000E+00 -0.41617568658E+03  0.41617568658E+03  0.00000000000E+00 0.  1.
          6    2    1    2  502    0 -0.27785472276E+01 -0.42850057003E+02 -0.33635570047E+03  0.38010362224E+03  0.17175493789E+03 0.  0.
         24    2    3    3    0    0  0.47099893905E+02 -0.58653522861E+02 -0.29175139378E+03  0.31118887346E+03  0.77852446626E+02 0.  0.
         -6    2    1    2    0  501  0.27785472276E+01  0.42850057003E+02  0.78935675446E+02  0.19482772590E+03  0.17286744694E+03 0.  0.
        -24    2    5    5    0    0  0.18050066736E+02  0.29232326563E+02  0.12006650762E+03  0.14864875617E+03  0.80623524071E+02 0.  0.
          5    1    3    3  502    0 -0.49878441133E+02  0.15803465858E+02 -0.44604306692E+02  0.68914748773E+02  0.47000000000E+01 0. -1.
        -11    1    4    4    0    0  0.21165397112E+02 -0.62845810863E+02 -0.26693866750E+03  0.27505239898E+03  0.00000000000E+00 0.  1.
         12    1    4    4    0    0  0.25934496793E+02  0.41922880012E+01 -0.24812726273E+02  0.36136474478E+02  0.00000000000E+00 0. -1.
         -5    1    5    5    0  501 -0.15271519508E+02  0.13617730440E+02 -0.41130832170E+02  0.46178969731E+02  0.47000000000E+01 0.  1.
         11    1    6    6    0    0  0.39880412750E+02  0.43530470202E+02  0.98304172254E+02  0.11466934830E+03  0.00000000000E+00 0. -1.
        -12    1    6    6    0    0 -0.21830346014E+02 -0.14298143638E+02  0.21762335362E+02  0.33979407867E+02  0.00000000000E+00 0.  1.
</event>
<event>
12    1  0.2689284E-002  0.1979108E+03  0.7818608E-02  0.1151514E+00
          1   -1    0    0  502    0  0.00000000000E+00  0.00000000000E+00  0.21500876989E+04  0.21500876989E+04  0.00000000000E+00 0. -1.
         -1   -1    0    0    0  501 -0.00000000000E+00 -0.00000000000E+00 -0.15448596677E+03  0.15448596677E+03  0.00000000000E+00 0.  1.
          6    2    1    2  502    0 -0.14302583636E+01  0.94845141846E+02 -0.83292981266E+02  0.21645501721E+03  0.17583346432E+03 0.  0.
         24    2    3    3    0    0 -0.75415126679E+01  0.38441499458E+02 -0.11910582286E+03  0.14919902917E+03  0.80867360368E+02 0.  0.
         -6    2    1    2    0  501  0.14302583636E+01 -0.94845141846E+02  0.20788947134E+04  0.20881186484E+04  0.17157684591E+03 0.  0.
        -24    2    5    5    0    0  0.39393637471E+02 -0.11298841218E+03  0.12683704024E+04  0.12764893333E+04  0.79644839880E+02 0.  0.
          5    1    3    3  502    0  0.61112543043E+01  0.56403642388E+02  0.35812841594E+02  0.67255988038E+02  0.47000000000E+01 0. -1.
        -11    1    4    4    0    0  0.13486185361E+02  0.58670029393E+02 -0.72790260556E+02  0.94458835354E+02  0.00000000000E+00 0.  1.
         12    1    4    4    0    0 -0.21027698028E+02 -0.20228529936E+02 -0.46315562304E+02  0.54740193818E+02  0.00000000000E+00 0. -1.
         -5    1    5    5    0  501 -0.37963379108E+02  0.18143270331E+02  0.81052431097E+03  0.81162931507E+03  0.47000000000E+01 0.  1.
         13    1    6    6    0    0  0.53147361412E+02 -0.43738235822E+02  0.78166930351E+03  0.78469393738E+03  0.00000000000E+00 0. -1.
        -14    1    6    6    0    0 -0.13753723941E+02 -0.69250176355E+02  0.48670109887E+03  0.49179539596E+03  0.00000000000E+00 0.  1.
</event>
<event>
12    1  0.2689284E-002  0.4148918E+03  0.7818608E-02  0.1038742E+00
         -1   -1    0    0    0  501 -0.00000000000E+00  0.00000000000E+00  0.60757587429E+03  0.60757587429E+03  0.00000000000E+00 0. -1.
          1   -1    0    0  502    0  0.00000000000E+00 -0.00000000000E+00 -0.31603402892E+03  0.31603402892E+03  0.00000000000E+00 0.  1.
          6    2    1    2  502    0  0.15664323128E+03 -0.34479854462E+03 -0.32287822145E+01  0.41358740212E+03  0.16619559525E+03 0.  0.
         24    2    3    3    0    0  0.15482712513E+03 -0.32280945738E+03  0.35836976668E+02  0.36847596548E+03  0.79453532244E+02 0.  0.
         -6    2    1    2    0  501 -0.15664323128E+03  0.34479854462E+03  0.29477062759E+03  0.51002250109E+03  0.17265598875E+03 0.  0.
        -24    2    5    5    0    0 -0.16501325760E+03  0.35547844506E+03  0.28841650535E+03  0.49431955603E+03  0.87025529784E+02 0.  0.
          5    1    3    3  502    0  0.18161061555E+01 -0.21989087236E+02 -0.39065758883E+02  0.45111436645E+02  0.47000000000E+01 0. -1.
        -11    1    4    4    0    0  0.42462506678E+02 -0.13549022191E+03  0.47516162553E+02  0.14972792128E+03  0.00000000000E+00 0.  1.
         12    1    4    4    0    0  0.11236461845E+03 -0.18731923548E+03 -0.11679185885E+02  0.21874804420E+03  0.00000000000E+00 0. -1.
         -5    1    5    5    0  501  0.83700263146E+01 -0.10679900443E+02  0.63541222441E+01  0.15702945057E+02  0.47000000000E+01 0.  1.
         11    1    6    6    0    0 -0.12859385286E+03  0.27127692427E+03  0.17163236875E+03  0.34581095795E+03  0.00000000000E+00 0. -1.
        -12    1    6    6    0    0 -0.36419404739E+02  0.84201520795E+02  0.11678413659E+03  0.14850859808E+03  0.00000000000E+00 0.  1.
</event>
<event>
12    1  0.2689284E-002  0.2006391E+03  0.7818608E-02  0.1149201E+00
          1   -1    0    0  502    0  0.00000000000E+00  0.00000000000E+00  0.48406202231E+03  0.48406202231E+03  0.00000000000E+00 0. -1.
         -1   -1    0    0    0  501 -0.00000000000E+00 -0.00000000000E+00 -0.12316018038E+03  0.12316018038E+03  0.00000000000E+00 0.  1.
          6    2    1    2  502    0  0.15564948423E+01 -0.10263193045E+03  0.78248005976E+01  0.20143736398E+03  0.17314747551E+03 0.  0.
         24    2    3    3    0    0  0.23632367127E+02 -0.51574879405E+02  0.70517795543E+02  0.11749292870E+03  0.74922438856E+02 0.  0.
         -6    2    1    2    0  501 -0.15564948423E+01  0.10263193045E+03  0.35307704133E+03  0.40578483872E+03  0.17164557202E+03 0.  0.
        -24    2    5    5    0    0  0.32901769138E+02  0.49973984369E+01  0.10429296042E+03  0.13627513071E+03  0.81156572455E+02 0.  0.
          5    1    3    3  502    0 -0.22075872285E+02 -0.51057051048E+02 -0.62692994946E+02  0.83944435278E+02  0.47000000000E+01 0. -1.
        -13    1    4    4    0    0  0.21051954660E+02 -0.25767355809E+02 -0.84876149876E+01  0.34339205415E+02  0.00000000000E+00 0.  1.
         14    1    4    4    0    0  0.25804124679E+01 -0.25807523596E+02  0.79005410531E+02  0.83153723283E+02  0.00000000000E+00 0. -1.
         -5    1    5    5    0  501 -0.34458263980E+02  0.97634532016E+02  0.24878408091E+03  0.26950970801E+03  0.47000000000E+01 0.  1.
         13    1    6    6    0    0 -0.10533206336E+02  0.20925368986E+02  0.81309780018E+02  0.84617373095E+02  0.00000000000E+00 0. -1.
        -14    1    6    6    0    0  0.43434975474E+02 -0.15927970549E+02  0.22983180405E+02  0.51657757615E+02  0.00000000000E+00 0.  1.
</event>
<event>
12    1  0.2689284E-002  0.2135209E+03  0.7818608E-02  0.1138808E+00
         -1   -1    0    0    0  501 -0.00000000000E+00  0.00000000000E+00  0.14258415118E+04  0.14258415118E+04  0.00000000000E+00 0. -1.
          1   -1    0    0  502    0  0.00000000000E+00 -0.00000000000E+00 -0.32266046396E+02  0.32266046396E+02  0.00000000000E+00 0.  1.
          6    2    1    2  502    0  0.41877781251E+02  0.11851433054E+03  0.76594078936E+03  0.79513745719E+03  0.17256560465E+03 0.  0.
         24    2    3    3    0    0  0.35437952097E+02 -0.74695287168E+01  0.30044735724E+03  0.31283088503E+03  0.79264783169E+02 0.  0.
         -6    2    1    2    0  501 -0.41877781251E+02 -0.11851433054E+03  0.62763467603E+03  0.66297010100E+03  0.17264029992E+03 0.  0.
        -24    2    5    5    0    0 -0.53214253378E+02 -0.12084272119E+03  0.63077676788E+03  0.65008989353E+03  0.85456531271E+02 0.  0.
          5    1    3    3  502    0  0.64398291537E+01  0.12598385925E+03  0.46549343212E+03  0.48230657215E+03  0.47000000000E+01 0. -1.
        -11    1    4    4    0    0 -0.10665497150E+02  0.57614072305E+01  0.43579841043E+01  0.12881718370E+02  0.00000000000E+00 0.  1.
         12    1    4    4    0    0  0.46103449247E+02 -0.13230935947E+02  0.29608937314E+03  0.29994916666E+03  0.00000000000E+00 0. -1.
         -5    1    5    5    0  501  0.11336472127E+02  0.23283906555E+01 -0.31420918515E+01  0.12880207472E+02  0.47000000000E+01 0.  1.
         11    1    6    6    0    0 -0.39270035627E+00 -0.80101902487E+02  0.22426690344E+03  0.23814305149E+03  0.00000000000E+00 0. -1.
        -12    1    6    6    0    0 -0.52821553021E+02 -0.40740818706E+02  0.40650986445E+03  0.41194684204E+03  0.00000000000E+00 0.  1.
</event>
<event>
12    1  0.2689284E-002  0.2759478E+03  0.7818608E-02  0.1097923E+00
         -1   -1    0    0    0  501 -0.00000000000E+00  0.00000000000E+00  0.62054466018E+02  0.62054466018E+02  0.00000000000E+00 0. -1.
          1   -1    0    0  502    0  0.00000000000E+00 -0.00000000000E+00 -0.13229879418E+04  0.13229879418E+04  0.00000000000E+00 0.  1.
          6    2    1    2  502    0  0.21789981854E+03  0.53076096737E+01 -0.81188569536E+03  0.85675744262E+03  0.16542802520E+03 0.  0.
         24    2    3    3    0    0  0.13934279799E+03 -0.53771425339E+02 -0.59611642122E+03  0.61960768505E+03  0.79063987922E+02 0.  0.
         -6    2    1    2    0  501 -0.21789981854E+03 -0.53076096737E+01 -0.44904778038E+03  0.52828496515E+03  0.17301038610E+03 0.  0.
        -24    2    5    5    0    0 -0.88101641480E+02 -0.62089727297E+02 -0.18200895375E+03  0.22595468123E+03  0.79443220321E+02 0.  0.
          5    1    3    3  502    0  0.78557020557E+02  0.59079035012E+02 -0.21576927413E+03  0.23714975757E+03  0.47000000000E+01 0. -1.
        -11    1    4    4    0    0  0.10925662967E+03 -0.59129906634E+01 -0.44528175974E+03  0.45852788371E+03  0.00000000000E+00 0.  1.
         12    1    4    4    0    0  0.30086168314E+02 -0.47858434675E+02 -0.15083466148E+03  0.16107980134E+03  0.00000000000E+00 0. -1.
         -5    1    5    5    0  501 -0.12979817706E+03  0.56782117624E+02 -0.26703882663E+03  0.30233028392E+03  0.47000000000E+01 0.  1.
         13    1    6    6    0    0 -0.76523319207E+02 -0.61922732526E+01 -0.10168584315E+03  0.12741339540E+03  0.00000000000E+00 0. -1.
        -14    1    6    6    0    0 -0.11578322273E+02 -0.55897454045E+02 -0.80323110608E+02  0.98541285830E+02  0.00000000000E+00 0.  1.
</event>
<event>
12    1  0.2689284E-002  0.1675269E+03  0.7818608E-02  0.1180452E+00
         -2   -1    0    0    0  501 -0.00000000000E+00  0.00000000000E+00  0.73300807826E+02  0.73300807826E+02  0.00000000000E+00 0. -1.
          2   -1    0    0  502    0  0.00000000000E+00 -0.00000000000E+00 -0.48079886404E+03  0.48079886404E+03  0.00000000000E+00 0.  1.
          6    2    1    2  502    0  0.28247627789E+02 -0.62021144005E+01 -0.33446899218E+03  0.37699696073E+03  0.17152494562E+03 0.  0.
         24    2    3    3    0    0  0.86664189654E+01 -0.70043481981E+02 -0.19144796592E+03  0.21908480823E+03  0.79778652263E+02 0.  0.
         -6    2    1    2    0  501 -0.28247627789E+02  0.62021144005E+01 -0.73029064031E+02  0.17710271114E+03  0.15873163327E+03 0.  0.
        -24    2    5    5    0    0 -0.38678420417E+02 -0.34526983785E+02  0.51008387724E+01  0.88254342633E+02  0.71236771559E+02 0.  0.
          5    1    3    3  502    0  0.19581208824E+02  0.63841367580E+02 -0.14302102626E+03  0.15791215249E+03  0.47000000000E+01 0. -1.
        -11    1    4    4    0    0  0.41152675264E+02 -0.22166666141E+02 -0.65344977243E+02  0.80342204476E+02  0.00000000000E+00 0.  1.
         12    1    4    4    0    0 -0.32486256299E+02 -0.47876815840E+02 -0.12610298868E+03  0.13874260375E+03  0.00000000000E+00 0. -1.
         -5    1    5    5    0  501  0.10430792627E+02  0.40729098185E+02 -0.78129902803E+02  0.88848368504E+02  0.47000000000E+01 0.  1.
         11    1    6    6    0    0  0.81960324856E+01  0.37468065472E+01  0.23365226862E+02  0.25042909857E+02  0.00000000000E+00 0. -1.
        -12    1    6    6    0    0 -0.46874452902E+02 -0.38273790332E+02 -0.18264388089E+02  0.63211432776E+02  0.00000000000E+00 0.  1.
</event>
<event>
12    1  0.2689284E-002  0.1768601E+03  0.7818608E-02  0.1170877E+00
         -2   -1    0    0    0  501 -0.00000000000E+00  0.00000000000E+00  0.26604975538E+02  0.26604975538E+02  0.00000000000E+00 0. -1.
          2   -1    0    0  502    0  0.00000000000E+00 -0.00000000000E+00 -0.11925584987E+04  0.11925584987E+04  0.00000000000E+00 0.  1.
          6    2    1    2  502    0  0.10742986013E+02 -0.40412869088E+02 -0.65699606130E+03  0.68051000336E+03  0.17234102346E+03 0.  0.
         24    2    3    3    0    0 -0.34154794519E+02  0.22936416122E+02 -0.23993893357E+03  0.25626045366E+03  0.80038110235E+02 0.  0.
         -6    2    1    2    0  501 -0.10742986013E+02  0.40412869088E+02 -0.50895746183E+03  0.53865347085E+03  0.17135125319E+03 0.  0.
        -24    2    5    5    0    0  0.31505972770E+01  0.59065999412E+02 -0.10936230060E+03  0.13835439041E+03  0.60688598618E+02 0.  0.
          5    1    3    3  502    0  0.44897780532E+02 -0.63349285211E+02 -0.41705712773E+03  0.42424954970E+03  0.47000000000E+01 0. -1.
        -11    1    4    4    0    0 -0.56059402852E+02  0.33879181587E+02 -0.17590877729E+03  0.18770816051E+03  0.00000000000E+00 0.  1.
         12    1    4    4    0    0  0.21904608333E+02 -0.10942765465E+02 -0.64030156285E+02  0.68552293150E+02  0.00000000000E+00 0. -1.
         -5    1    5    5    0  501 -0.13893583290E+02 -0.18653130324E+02 -0.39959516123E+03  0.40029908045E+03  0.47000000000E+01 0.  1.
         13    1    6    6    0    0  0.14025008180E+02  0.56641325216E+02 -0.46780978056E+02  0.74789039869E+02  0.00000000000E+00 0. -1.
        -14    1    6    6    0    0 -0.10874410903E+02  0.24246741965E+01 -0.62581322545E+02  0.63565350537E+02  0.00000000000E+00 0.  1.
</event>
<event>
12    1  0.2689284E-002  0.1808864E+03  0.7818608E-02  0.1166948E+00
         -2   -1    0    0    0  501 -0.00000000000E+00  0.00000000000E+00  0.17660933226E+02  0.17660933226E+02  0.00000000000E+00 0.  1.
          2   -1    0    0  502    0  0.00000000000E+00 -0.00000000000E+00 -0.19178673571E+04  0.19178673571E+04  0.00000000000E+00 0. -1.
          6    2    1    2  502    0 -0.20648991400E+02 -0.39460709769E+02 -0.76530950656E+03  0.78610358862E+03  0.17400196187E+03 0.  0.
         24    2    3    3    0    0 -0.26531747742E+02 -0.59979088890E+02 -0.25117317453E+03  0.27150290010E+03  0.79526325306E+02 0.  0.
         -6    2    1    2    0  501  0.20648991400E+02  0.39460709769E+02 -0.11348969173E+04  0.11494247017E+04  0.17664258694E+03 0.  0.
        -24    2    5    5    0    0  0.48611767008E+02 -0.36956529988E+02 -0.65256273329E+03  0.66025206713E+03  0.79785852536E+02 0.  0.
          5    1    3    3  502    0  0.58827563415E+01  0.20518379121E+02 -0.51413633203E+03  0.51460068852E+03  0.47000000000E+01 0. -1.
        -13    1    4    4    0    0  0.74839620169E+01  0.82977959488E+01 -0.25782123121E+01  0.11467793328E+02  0.00000000000E+00 0.  1.
         14    1    4    4    0    0 -0.34015709759E+02 -0.68276884839E+02 -0.24859496222E+03  0.26003510677E+03  0.00000000000E+00 0. -1.
         -5    1    5    5    0  501 -0.27962775607E+02  0.76417239757E+02 -0.48233418402E+03  0.48917263459E+03  0.47000000000E+01 0.  1.
         13    1    6    6    0    0  0.15726209032E+02 -0.24845401480E+02 -0.56738985259E+03  0.56815125842E+03  0.00000000000E+00 0. -1.
        -14    1    6    6    0    0  0.32885557976E+02 -0.12111128508E+02 -0.85172880705E+02  0.92100808708E+02  0.00000000000E+00 0.  1.
</event>
<event>
12    1  0.2689284E-002  0.2391384E+03  0.7818608E-02  0.1120368E+00
          2   -1    0    0  502    0  0.00000000000E+00  0.00000000000E+00  0.46771988747E+03  0.46771988747E+03  0.00000000000E+00 0. -1.
         -2   -1    0    0    0  501 -0.00000000000E+00 -0.00000000000E+00 -0.15458972202E+03  0.15458972202E+03  0.00000000000E+00 0.  1.
          6    2    1    2  502    0 -0.10251846174E+03  0.13946086750E+03  0.30150363862E+03  0.38828763371E+03  0.17292620921E+03 0.  0.
         24    2    3    3    0    0 -0.13003698099E+03  0.10677370585E+03  0.18072738114E+03  0.26008968596E+03  0.81694661756E+02 0.  0.
         -6    2    1    2    0  501  0.10251846174E+03 -0.13946086750E+03  0.11626526836E+02  0.23402197578E+03  0.15707240515E+03 0.  0.
        -24    2    5    5    0    0  0.12297691217E+03 -0.72844078643E+02  0.39425317897E+00  0.16327878725E+03  0.78931782013E+02 0.  0.
          5    1    3    3  502    0  0.27518519251E+02  0.32687161651E+02  0.12077625747E+03  0.12819794775E+03  0.47000000000E+01 0. -1.
        -11    1    4    4    0    0 -0.14087392412E+02  0.42383645112E+01 -0.74034566263E+01  0.16469047596E+02  0.00000000000E+00 0.  1.
         12    1    4    4    0    0 -0.11594958858E+03  0.10253534134E+03  0.18813083777E+03  0.24362063836E+03  0.00000000000E+00 0. -1.
         -5    1    5    5    0  501 -0.20458450427E+02 -0.66616788859E+02  0.11232273657E+02  0.70743188529E+02  0.47000000000E+01 0.  1.
         11    1    6    6    0    0 -0.11285363585E+02 -0.57330961696E+01 -0.34808800301E+01  0.13127998656E+02  0.00000000000E+00 0. -1.
        -12    1    6    6    0    0  0.13426227575E+03 -0.67110982473E+02  0.38751332091E+01  0.15015078860E+03  0.00000000000E+00 0.  1.
</event>
<event>
12    1  0.2689284E-002  0.1992277E+03  0.7818608E-02  0.1150392E+00
          1   -1    0    0  502    0  0.00000000000E+00  0.00000000000E+00  0.15060922436E+04  0.15060922436E+04  0.00000000000E+00 0. -1.
         -1   -1    0    0    0  501 -0.00000000000E+00 -0.00000000000E+00 -0.36593459455E+02  0.36593459455E+02  0.00000000000E+00 0.  1.
          6    2    1    2  502    0 -0.58257163529E+02  0.80122606639E+02  0.11431967690E+04  0.11604545062E+04  0.17303837527E+03 0.  0.
         24    2    3    3    0    0 -0.32763238438E+02  0.20763507201E+02  0.25705288011E+03  0.27194647328E+03  0.79838262337E+02 0.  0.
         -6    2    1    2    0  501  0.58257163529E+02 -0.80122606639E+02  0.32630201521E+03  0.38223119684E+03  0.17266775468E+03 0.  0.
        -24    2    5    5    0    0  0.54683105610E+02 -0.75568510703E+02  0.34302244630E+03  0.36392337077E+03  0.77942153408E+02 0.  0.
          5    1    3    3  502    0 -0.25493925091E+02  0.59359099438E+02  0.88614388884E+03  0.88850803296E+03  0.47000000000E+01 0. -1.
        -13    1    4    4    0    0 -0.56798848443E+02  0.12803487145E+02  0.13070770430E+03  0.14308928133E+03  0.00000000000E+00 0.  1.
         14    1    4    4    0    0  0.24035610005E+02  0.79600200551E+01  0.12634517581E+03  0.12885719196E+03  0.00000000000E+00 0. -1.
         -5    1    5    5    0  501  0.35740579188E+01 -0.45540959355E+01 -0.16720431082E+02  0.18307826069E+02  0.47000000000E+01 0.  1.
         13    1    6    6    0    0  0.35724948003E+02 -0.11760113251E+02  0.22756127287E+03  0.23064844479E+03  0.00000000000E+00 0. -1.
        -14    1    6    6    0    0  0.18958157607E+02 -0.63808397452E+02  0.11546117343E+03  0.13327492598E+03  0.00000000000E+00 0.  1.
</event>
<event>
12    1  0.2689284E-002  0.2003669E+03  0.7818608E-02  0.1149430E+00
         -2   -1    0    0    0  501 -0.00000000000E+00  0.00000000000E+00  0.18640092524E+02  0.18640092524E+02  0.00000000000E+00 0.  1.
          2   -1    0    0  502    0  0.00000000000E+00 -0.00000000000E+00 -0.28962174344E+04  0.28962174344E+04  0.00000000000E+00 0. -1.
          6    2    1    2  502    0 -0.10162618115E+03 -0.10323803353E+02 -0.70210440713E+03  0.73019774838E+03  0.17263745716E+03 0.  0.
         24    2    3    3    0    0 -0.77414219791E+02 -0.68345709520E+02 -0.55352056069E+03  0.56879139754E+03  0.80464559732E+02 0.  0.
         -6    2    1    2    0  501  0.10162618115E+03  0.10323803353E+02 -0.21754729348E+04  0.21846597786E+04  0.17210867662E+03 0.  0.
        -24    2    5    5    0    0  0.13003191579E+03 -0.24832040845E+02 -0.16752256635E+04  0.16823528589E+04  0.80032423417E+02 0.  0.
          5    1    3    3  502    0 -0.24211961359E+02  0.58021906167E+02 -0.14858384644E+03  0.16140635084E+03  0.47000000000E+01 0. -1.
        -13    1    4    4    0    0 -0.13477229898E+02  0.11318440026E+02 -0.20101353586E+03  0.20178251760E+03  0.00000000000E+00 0.  1.
         14    1    4    4    0    0 -0.63936989893E+02 -0.79664149547E+02 -0.35250702483E+03  0.36700887994E+03  0.00000000000E+00 0. -1.
         -5    1    5    5    0  501 -0.28405734640E+02  0.35155844198E+02 -0.50024727125E+03  0.50230691966E+03  0.47000000000E+01 0.  1.
         13    1    6    6    0    0  0.13030137389E+03 -0.13436473090E+02 -0.12251567700E+04  0.12321396422E+04  0.00000000000E+00 0. -1.
        -14    1    6    6    0    0 -0.26945810284E+00 -0.11395567755E+02 -0.45006889354E+03  0.45021321672E+03  0.00000000000E+00 0.  1.
</event>
<event>
12    1  0.2689284E-002  0.1909020E+03  0.7818608E-02  0.1157650E+00
          1   -1    0    0  502    0  0.00000000000E+00  0.00000000000E+00  0.10244418205E+03  0.10244418205E+03  0.00000000000E+00 0.  1.
         -1   -1    0    0    0  501 -0.00000000000E+00 -0.00000000000E+00 -0.36756737148E+03  0.36756737148E+03  0.00000000000E+00 0. -1.
          6    2    1    2  502    0 -0.68420766175E+02 -0.45742817181E+02 -0.90392472978E+02  0.21120081186E+03  0.17222420618E+03 0.  0.
         24    2    3    3    0    0  0.13044886766E+02 -0.49323272781E+02 -0.84792403858E+01  0.95523070077E+02  0.80310678560E+02 0.  0.
         -6    2    1    2    0  501  0.68420766175E+02  0.45742817181E+02 -0.17473071646E+03  0.25881074166E+03  0.17227411343E+03 0.  0.
        -24    2    5    5    0    0  0.83440697820E+02  0.83536858462E+02 -0.99336266130E+02  0.17301796199E+03  0.78273652206E+02 0.  0.
          5    1    3    3  502    0 -0.81465652941E+02  0.35804556001E+01 -0.81913232592E+02  0.11567774179E+03  0.47000000000E+01 0. -1.
        -11    1    4    4    0    0 -0.29525899596E+02 -0.17234064313E+02  0.14922607892E+02  0.37302492491E+02  0.00000000000E+00 0.  1.
         12    1    4    4    0    0  0.42570786362E+02 -0.32089208468E+02 -0.23401848278E+02  0.58220577586E+02  0.00000000000E+00 0. -1.
         -5    1    5    5    0  501 -0.15019931645E+02 -0.37794041281E+02 -0.75394450327E+02  0.85792779667E+02  0.47000000000E+01 0.  1.
         11    1    6    6    0    0  0.99186486354E+01  0.24995316380E+02 -0.69329218689E+02  0.74361858474E+02  0.00000000000E+00 0. -1.
        -12    1    6    6    0    0  0.73522049185E+02  0.58541542083E+02 -0.30007047441E+02  0.98656103520E+02  0.00000000000E+00 0.  1.
</event>
<event>
12    1  0.2689284E-002  0.2549409E+03  0.7818608E-02  0.1110222E+00
         -2   -1    0    0    0  501 -0.00000000000E+00  0.00000000000E+00  0.16502122448E+03  0.16502122448E+03  0.00000000000E+00 0.  1.
          2   -1    0    0  502    0  0.00000000000E+00 -0.00000000000E+00 -0.43602054320E+03  0.43602054320E+03  0.00000000000E+00 0. -1.
          6    2    1    2  502    0  0.13262341869E+03  0.13358528430E+03 -0.41997705823E+02  0.25827357822E+03  0.17177728181E+03 0.  0.
         24    2    3    3    0    0  0.75179240517E+00  0.91395500105E+02 -0.21639292572E+02  0.11824979917E+03  0.71840471815E+02 0.  0.
         -6    2    1    2    0  501 -0.13262341869E+03 -0.13358528430E+03 -0.22900161289E+03  0.34276818946E+03  0.17208804035E+03 0.  0.
        -24    2    5    5    0    0 -0.10855685725E+03 -0.29671301856E+02 -0.82343843247E+02  0.16136282425E+03  0.81194058404E+02 0.  0.
          5    1    3    3  502    0  0.13187162628E+03  0.42189784200E+02 -0.20358413251E+02  0.14002377905E+03  0.47000000000E+01 0. -1.
        -11    1    4    4    0    0  0.20701012153E+02  0.29118909802E+02  0.19784945004E+02  0.40839770580E+02  0.00000000000E+00 0.  1.
         12    1    4    4    0    0 -0.19949219748E+02  0.62276590303E+02 -0.41424237575E+02  0.77410028594E+02  0.00000000000E+00 0. -1.
         -5    1    5    5    0  501 -0.24066561434E+02 -0.10391398245E+03 -0.14665776965E+03  0.18140536520E+03  0.47000000000E+01 0.  1.
         13    1    6    6    0    0 -0.10762849994E+03 -0.24433638083E+02 -0.96270771721E+02  0.14645462833E+03  0.00000000000E+00 0. -1.
        -14    1    6    6    0    0 -0.92835730847E+00 -0.52376637735E+01  0.13926928475E+02  0.14908195928E+02  0.00000000000E+00 0.  1.
</event>
<event>
12    1  0.2689284E-002  0.2876504E+03  0.7818608E-02  0.1091582E+00
          1   -1    0    0  502    0  0.00000000000E+00  0.00000000000E+00  0.38053074319E+03  0.38053074319E+03  0.00000000000E+00 0.  1.
         -1   -1    0    0    0  501 -0.00000000000E+00 -0.00000000000E+00 -0.27954711449E+03  0.27954711449E+03  0.00000000000E+00 0. -1.
          6    2    1    2  502    0  0.66891424405E+02  0.22005022774E+03  0.20608931609E+03  0.35406425899E+03  0.17318235447E+03 0.  0.
         24    2    3    3    0    0  0.28659396493E+01  0.42408742148E+02  0.11272797907E+03  0.14336497244E+03  0.77712309431E+02 0.  0.
         -6    2    1    2    0  501 -0.66891424405E+02 -0.22005022774E+03 -0.10510568739E+03  0.30601359869E+03  0.17233847995E+03 0.  0.
        -24    2    5    5    0    0 -0.10523594448E+03 -0.14271201758E+03 -0.10438753813E+03  0.21956068255E+03  0.76608166868E+02 0.  0.
          5    1    3    3  502    0  0.64025484755E+02  0.17764148560E+03  0.93361337016E+02  0.21069928655E+03  0.47000000000E+01 0. -1.
        -13    1    4    4    0    0 -0.55381652330E+01  0.63405946992E+02  0.96214684244E+02  0.11536139238E+03  0.00000000000E+00 0.  1.
         14    1    4    4    0    0  0.84041048824E+01 -0.20997204844E+02  0.16513294828E+02  0.28003580060E+02  0.00000000000E+00 0. -1.
         -5    1    5    5    0  501  0.38344520073E+02 -0.77338210163E+02 -0.71814925372E+00  0.86452916140E+02  0.47000000000E+01 0.  1.
         13    1    6    6    0    0 -0.20849850547E+02 -0.56165470970E+02 -0.73454143590E+02  0.94788119549E+02  0.00000000000E+00 0. -1.
        -14    1    6    6    0    0 -0.84386093931E+02 -0.86546546611E+02 -0.30933394543E+02  0.12477256300E+03  0.00000000000E+00 0.  1.
</event>
<event>
12    1  0.2689284E-002  0.1809065E+03  0.7818608E-02  0.1166929E+00
         -2   -1    0    0    0  501 -0.00000000000E+00  0.00000000000E+00  0.14169926401E+02  0.14169926401E+02  0.00000000000E+00 0.  1.
          2   -1    0    0  502    0  0.00000000000E+00 -0.00000000000E+00 -0.32570803697E+04  0.32570803697E+04  0.00000000000E+00 0. -1.
          6    2    1    2  502    0  0.32871806953E+02  0.42844417531E+02 -0.74115057993E+03  0.76297917557E+03  0.17296485311E+03 0.  0.
         24    2    3    3    0    0 -0.39663836153E+01  0.31066921606E+01 -0.14462249971E+03  0.16397668844E+03  0.77118760311E+02 0.  0.
         -6    2    1    2    0  501 -0.32871806953E+02 -0.42844417531E+02 -0.25017598634E+04  0.25082711206E+04  0.17235254665E+03 0.  0.
        -24    2    5    5    0    0 -0.77449044571E+00 -0.83975239593E+02 -0.21078864299E+04  0.21109295120E+04  0.76064201392E+02 0.  0.
          5    1    3    3  502    0  0.36838190569E+02  0.39737725370E+02 -0.59652808022E+03  0.59900248713E+03  0.47000000000E+01 0. -1.
        -11    1    4    4    0    0 -0.18765832006E+02 -0.28154317466E+02 -0.33571220146E+02  0.47663915753E+02  0.00000000000E+00 0.  1.
         12    1    4    4    0    0  0.14799448391E+02  0.31261009626E+02 -0.11105127957E+03  0.11631277268E+03  0.00000000000E+00 0. -1.
         -5    1    5    5    0  501 -0.32097316508E+02  0.41130822062E+02 -0.39387343353E+03  0.39734160855E+03  0.47000000000E+01 0.  1.
         13    1    6    6    0    0 -0.13828644049E+02 -0.95097947031E+02 -0.17637936795E+04  0.17664096339E+04  0.00000000000E+00 0. -1.
        -14    1    6    6    0    0  0.13054153603E+02  0.11122707438E+02 -0.34409275038E+03  0.34451987811E+03  0.00000000000E+00 0.  1.
</event>
<event>
12    1  0.2689284E-002  0.3405341E+03  0.7818608E-02  0.1066569E+00
         -1   -1    0    0    0  501 -0.00000000000E+00  0.00000000000E+00  0.86227189254E+03  0.86227189254E+03  0.00000000000E+00 0. -1.
          1   -1    0    0  502    0  0.00000000000E+00 -0.00000000000E+00 -0.13758078145E+03  0.13758078145E+03  0.00000000000E+00 0.  1.
          6    2    1    2  502    0 -0.12563677255E+03  0.26605705218E+03  0.28703895237E+03  0.44512955858E+03  0.17081571976E+03 0.  0.
         24    2    3    3    0    0 -0.14118362001E+03  0.27330385172E+03  0.28570399859E+03  0.42729440590E+03  0.79535681177E+02 0.  0.
         -6    2    1    2    0  501  0.12563677255E+03 -0.26605705218E+03  0.43765215872E+03  0.55472311541E+03  0.17206792005E+03 0.  0.
        -24    2    5    5    0    0  0.84828308716E+02 -0.11988492364E+03  0.13130451530E+03  0.21281290715E+03  0.80499818867E+02 0.  0.
          5    1    3    3  502    0  0.15546847458E+02 -0.72467995431E+01  0.13349537784E+01  0.17835152680E+02  0.47000000000E+01 0. -1.
        -13    1    4    4    0    0 -0.64182141720E+02  0.14495832491E+03  0.94807076373E+02  0.18471774416E+03  0.00000000000E+00 0.  1.
         14    1    4    4    0    0 -0.77001478288E+02  0.12834552682E+03  0.19089692222E+03  0.24257666175E+03  0.00000000000E+00 0. -1.
         -5    1    5    5    0  501  0.40808463833E+02 -0.14617212854E+03  0.30634764342E+03  0.34191020826E+03  0.47000000000E+01 0.  1.
         11    1    6    6    0    0  0.54165043955E+02 -0.84376144893E+02  0.13215908070E+03  0.16588914499E+03  0.00000000000E+00 0. -1.
        -12    1    6    6    0    0  0.30663264760E+02 -0.35508778744E+02 -0.85456539912E+00  0.46923762164E+02  0.00000000000E+00 0.  1.
</event>
<event>
12    1  0.2689284E-002  0.1885920E+03  0.7818608E-02  0.1159737E+00
          2   -1    0    0  502    0  0.00000000000E+00  0.00000000000E+00  0.34303342718E+03  0.34303342718E+03  0.00000000000E+00 0.  1.
         -2   -1    0    0    0  501 -0.00000000000E+00 -0.00000000000E+00 -0.10631526672E+03  0.10631526672E+03  0.00000000000E+00 0. -1.
          6    2    1    2  502    0  0.80122268216E+02 -0.94261172211E+01  0.82228040289E+02  0.20451826399E+03  0.16899065106E+03 0.  0.
         24    2    3    3    0    0  0.24791139955E+02  0.49105704770E+02  0.75122612008E+02  0.12352391202E+03  0.81171295075E+02 0.  0.
         -6    2    1    2    0  501 -0.80122268216E+02  0.94261172211E+01  0.15449012018E+03  0.24483042991E+03  0.17194857553E+03 0.  0.
        -24    2    5    5    0    0 -0.10176239178E+03  0.25789154384E+02  0.57458708607E+02  0.14396800497E+03  0.80028859769E+02 0.  0.
          5    1    3    3  502    0  0.55331128261E+02 -0.58531821991E+02  0.71054282812E+01  0.80994351972E+02  0.47000000000E+01 0. -1.
        -11    1    4    4    0    0 -0.29041304218E+02  0.27655485275E+02  0.31241516000E+02  0.50835573553E+02  0.00000000000E+00 0.  1.
         12    1    4    4    0    0  0.53832444173E+02  0.21450219495E+02  0.43881096008E+02  0.72688338466E+02  0.00000000000E+00 0. -1.
         -5    1    5    5    0  501  0.21640123562E+02 -0.16363037163E+02  0.97031411573E+02  0.10086242494E+03  0.47000000000E+01 0.  1.
         13    1    6    6    0    0 -0.53659367836E+02 -0.44705762027E+01 -0.11039062573E+02  0.54965213641E+02  0.00000000000E+00 0. -1.
        -14    1    6    6    0    0 -0.48103023942E+02  0.30259730587E+02  0.68497771180E+02  0.89002791328E+02  0.00000000000E+00 0.  1.
</event>
<event>
12    1  0.2689284E-002  0.2362148E+03  0.7818608E-02  0.1122340E+00
          2   -1    0    0  502    0  0.00000000000E+00  0.00000000000E+00  0.43789889662E+03  0.43789889662E+03  0.00000000000E+00 0.  1.
         -2   -1    0    0    0  501 -0.00000000000E+00 -0.00000000000E+00 -0.13981272366E+03  0.13981272366E+03  0.00000000000E+00 0. -1.
          6    2    1    2  502    0  0.11655099824E+03  0.11274450972E+03  0.62981078597E+02  0.24435558534E+03  0.17160296082E+03 0.  0.
         24    2    3    3    0    0  0.13018648231E+03  0.36138723766E+02  0.49151970921E+02  0.16518673360E+03  0.81340108054E+02 0.  0.
         -6    2    1    2    0  501 -0.11655099824E+03 -0.11274450972E+03  0.23510509436E+03  0.33335603494E+03  0.17191969340E+03 0.  0.
        -24    2    5    5    0    0 -0.99314033671E+02 -0.10891014534E+03  0.96934291419E+02  0.19398216335E+03  0.80672955840E+02 0.  0.
          5    1    3    3  502    0 -0.13635484077E+02  0.76605785950E+02  0.13829107676E+02  0.79168851742E+02  0.47000000000E+01 0. -1.
        -11    1    4    4    0    0  0.88751564371E+02  0.62538385162E+02  0.34240075988E+02  0.11384319304E+03  0.00000000000E+00 0.  1.
         12    1    4    4    0    0  0.41434917942E+02 -0.26399661397E+02  0.14911894932E+02  0.51343540559E+02  0.00000000000E+00 0. -1.
         -5    1    5    5    0  501 -0.17236964564E+02 -0.38343643795E+01  0.13817080294E+03  0.13937387159E+03  0.47000000000E+01 0.  1.
         13    1    6    6    0    0 -0.54106338887E+02 -0.10127370756E+03  0.93375554132E+02  0.14799612785E+03  0.00000000000E+00 0. -1.
        -14    1    6    6    0    0 -0.45207694784E+02 -0.76364377788E+01  0.35587372863E+01  0.45986035497E+02  0.00000000000E+00 0.  1.
</event>
<event>
12    1  0.2689284E-002  0.2072840E+03  0.7818608E-02  0.1143735E+00
          2   -1    0    0  502    0  0.00000000000E+00  0.00000000000E+00  0.28181887951E+03  0.28181887951E+03  0.00000000000E+00 0. -1.
         -2   -1    0    0    0  501 -0.00000000000E+00 -0.00000000000E+00 -0.16068789462E+03  0.16068789462E+03  0.00000000000E+00 0.  1.
          6    2    1    2  502    0  0.48094596235E+02 -0.80116389870E+02  0.11030958387E+03  0.23384776393E+03  0.18380654582E+03 0.  0.
         24    2    3    3    0    0 -0.30626987863E+02 -0.57032763290E+02  0.99738727564E+01  0.10415857184E+03  0.80986304254E+02 0.  0.
         -6    2    1    2    0  501 -0.48094596235E+02  0.80116389870E+02  0.10821401018E+02  0.20865901020E+03  0.18625185557E+03 0.  0.
        -24    2    5    5    0    0  0.14596164225E+02  0.45758216805E+02 -0.57392723441E+02  0.10973544233E+03  0.80256340461E+02 0.  0.
          5    1    3    3  502    0  0.78721584098E+02 -0.23083626580E+02  0.10033571111E+03  0.12968919208E+03  0.47000000000E+01 0. -1.
        -11    1    4    4    0    0  0.10342554984E+02 -0.44372514227E+02 -0.22071450788E+02  0.50626449632E+02  0.00000000000E+00 0.  1.
         12    1    4    4    0    0 -0.40969542847E+02 -0.12660249063E+02  0.32045323545E+02  0.53532122212E+02  0.00000000000E+00 0. -1.
         -5    1    5    5    0  501 -0.62690760460E+02  0.34358173064E+02  0.68214124459E+02  0.98923567865E+02  0.47000000000E+01 0.  1.
         11    1    6    6    0    0 -0.86003845451E+01  0.41909171027E+02  0.49860115548E+01  0.43072097020E+02  0.00000000000E+00 0. -1.
        -12    1    6    6    0    0  0.23196548770E+02  0.38490457784E+01 -0.62378734996E+02  0.66663345310E+02  0.00000000000E+00 0.  1.
</event>
<event>
12    1  0.2689284E-002  0.2032247E+03  0.7818608E-02  0.1147046E+00
          1   -1    0    0  502    0  0.00000000000E+00  0.00000000000E+00  0.29786080503E+03  0.29786080503E+03  0.00000000000E+00 0. -1.
         -1   -1    0    0    0  501 -0.00000000000E+00 -0.00000000000E+00 -0.25434749781E+03  0.25434749781E+03  0.00000000000E+00 0.  1.
          6    2    1    2  502    0 -0.10149213726E+03 -0.37839252546E+02 -0.16443878844E+03  0.26164576191E+03  0.17229604356E+03 0.  0.
         24    2    3    3    0    0 -0.27713230657E+02  0.48626857453E+01 -0.15495162377E+03  0.17574536095E+03  0.78004854466E+02 0.  0.
         -6    2    1    2    0  501  0.10149213726E+03  0.37839252546E+02  0.20795209567E+03  0.29056254093E+03  0.17161017784E+03 0.  0.
        -24    2    5    5    0    0  0.13340405124E+03  0.34954012978E+01  0.17309639993E+03  0.23195469249E+03  0.77664386841E+02 0.  0.
          5    1    3    3  502    0 -0.73778906600E+02 -0.42701938291E+02 -0.94871646755E+01  0.85900400968E+02  0.47000000000E+01 0. -1.
        -13    1    4    4    0    0 -0.14335320797E+01  0.37942786488E+02 -0.51373352453E+02  0.63882168114E+02  0.00000000000E+00 0.  1.
         14    1    4    4    0    0 -0.26279698577E+02 -0.33080100743E+02 -0.10357827131E+03  0.11186319283E+03  0.00000000000E+00 0. -1.
         -5    1    5    5    0  501 -0.31911913984E+02  0.34343851248E+02  0.34855695736E+02  0.58607848433E+02  0.47000000000E+01 0.  1.
         11    1    6    6    0    0  0.25055090066E+02  0.28015845535E+02  0.74403394056E+02  0.83357724215E+02  0.00000000000E+00 0. -1.
        -12    1    6    6    0    0  0.10834896117E+03 -0.24520444237E+02  0.98693005876E+02  0.14859696828E+03  0.00000000000E+00 0.  1.
</event>
<event>
12    1  0.2689284E-002  0.1977062E+03  0.7818608E-02  0.1151689E+00
         -2   -1    0    0    0  501 -0.00000000000E+00  0.00000000000E+00  0.35420744044E+02  0.35420744044E+02  0.00000000000E+00 0.  1.
          2   -1    0    0  502    0  0.00000000000E+00 -0.00000000000E+00 -0.12572350915E+04  0.12572350915E+04  0.00000000000E+00 0. -1.
          6    2    1    2  502    0  0.94988326178E+02 -0.29593527438E+02 -0.38803828037E+03  0.43602170982E+03  0.17217045457E+03 0.  0.
         24    2    3    3    0    0  0.32202072424E+02 -0.12788181624E+00 -0.34147935509E+03  0.35235474229E+03  0.80676667269E+02 0.  0.
         -6    2    1    2    0  501 -0.94988326178E+02  0.29593527438E+02 -0.83377606708E+03  0.85663412571E+03  0.16953152016E+03 0.  0.
        -24    2    5    5    0    0 -0.62297020603E+02  0.76009327126E+02 -0.71377287253E+03  0.72379586081E+03  0.68923130946E+02 0.  0.
          5    1    3    3  502    0  0.62786253754E+02 -0.29465645622E+02 -0.46558925281E+02  0.83666967530E+02  0.47000000000E+01 0. -1.
        -11    1    4    4    0    0  0.62449299259E+00 -0.18912479558E+02 -0.15920884797E+02  0.24729465163E+02  0.00000000000E+00 0.  1.
         12    1    4    4    0    0  0.31577579431E+02  0.18784597742E+02 -0.32555847029E+03  0.32762527713E+03  0.00000000000E+00 0. -1.
         -5    1    5    5    0  501 -0.32691305575E+02 -0.46415799687E+02 -0.12000319455E+03  0.13283826491E+03  0.47000000000E+01 0.  1.
         13    1    6    6    0    0  0.28582645307E+01  0.40364271863E+02 -0.36289605828E+03  0.36514516735E+03  0.00000000000E+00 0. -1.
        -14    1    6    6    0    0 -0.65155285133E+02  0.35645055262E+02 -0.35087681424E+03  0.35865069346E+03  0.00000000000E+00 0.  1.
</event>
<event>
12    1  0.2689284E-002  0.2279789E+03  0.7818608E-02  0.1128070E+00
          2   -1    0    0  502    0  0.00000000000E+00  0.00000000000E+00  0.13726923231E+04  0.13726923231E+04  0.00000000000E+00 0. -1.
         -2   -1    0    0    0  501 -0.00000000000E+00 -0.00000000000E+00 -0.41799023838E+02  0.41799023838E+02  0.00000000000E+00 0.  1.
          6    2    1    2  502    0 -0.28613112631E+02  0.14693219216E+03  0.44873107599E+03  0.50337598505E+03  0.17210469039E+03 0.  0.
         24    2    3    3    0    0 -0.65250368033E+02  0.10289099024E+03  0.40712431571E+03  0.43241734603E+03  0.79939891822E+02 0.  0.
         -6    2    1    2    0  501  0.28613112631E+02 -0.14693219216E+03  0.88216222324E+03  0.91111536186E+03  0.17179416522E+03 0.  0.
        -24    2    5    5    0    0 -0.36944693440E+02 -0.10034836897E+03  0.68926531257E+03  0.70207185762E+03  0.79896912470E+02 0.  0.
          5    1    3    3  502    0  0.36637255402E+02  0.44041201922E+02  0.41606760285E+02  0.70958639020E+02  0.47000000000E+01 0. -1.
        -13    1    4    4    0    0 -0.40815381655E+02  0.10646350836E+03  0.27000837183E+03  0.29309536819E+03  0.00000000000E+00 0.  1.
         14    1    4    4    0    0 -0.24434986378E+02 -0.35725181241E+01  0.13711594387E+03  0.13932197784E+03  0.00000000000E+00 0. -1.
         -5    1    5    5    0  501  0.65557806071E+02 -0.46583823185E+02  0.19289691067E+03  0.20904350424E+03  0.47000000000E+01 0.  1.
         11    1    6    6    0    0  0.88352383067E+00  0.11520605834E+02  0.12784083446E+03  0.12836192554E+03  0.00000000000E+00 0. -1.
        -12    1    6    6    0    0 -0.37828217271E+02 -0.11186897481E+03  0.56142447811E+03  0.57370993208E+03  0.00000000000E+00 0.  1.
</event>
<event>
12    1  0.2689284E-002  0.2378418E+03  0.7818608E-02  0.1121239E+00
          2   -1    0    0  502    0  0.00000000000E+00  0.00000000000E+00  0.14866354279E+03  0.14866354279E+03  0.00000000000E+00 0. -1.
         -2   -1    0    0    0  501 -0.00000000000E+00 -0.00000000000E+00 -0.50095949395E+03  0.50095949395E+03  0.00000000000E+00 0.  1.
          6    2    1    2  502    0  0.41221235126E+02 -0.15866480607E+03 -0.33529712592E+03  0.41096746255E+03  0.17203598959E+03 0.  0.
         24    2    3    3    0    0  0.36915505481E+02 -0.14991576624E+03 -0.15794987764E+03  0.23329016665E+03  0.75090921530E+02 0.  0.
         -6    2    1    2    0  501 -0.41221235126E+02  0.15866480607E+03 -0.16998825237E+02  0.23865557419E+03  0.17260884137E+03 0.  0.
        -24    2    5    5    0    0 -0.14263632414E+02  0.40679776819E+02  0.49623654134E+02  0.10042452041E+03  0.75922867423E+02 0.  0.
          5    1    3    3  502    0  0.43057296452E+01 -0.87490398311E+01 -0.17734724828E+03  0.17767729590E+03  0.47000000000E+01 0. -1.
        -13    1    4    4    0    0  0.11163572239E+02 -0.14475464988E+03 -0.13802727507E+03  0.20032489279E+03  0.00000000000E+00 0.  1.
         14    1    4    4    0    0  0.25751933241E+02 -0.51611163655E+01 -0.19922602568E+02  0.32965273863E+02  0.00000000000E+00 0. -1.
         -5    1    5    5    0  501 -0.26957602712E+02  0.11798502926E+03 -0.66622479371E+02  0.13823105378E+03  0.47000000000E+01 0.  1.
         11    1    6    6    0    0  0.52698660561E+01 -0.88410245660E+01 -0.14058092528E+02  0.17423121682E+02  0.00000000000E+00 0. -1.
        -12    1    6    6    0    0 -0.19533498470E+02  0.49520801385E+02  0.63681746662E+02  0.83001398725E+02  0.00000000000E+00 0.  1.
</event>
<event>
12    1  0.2689284E-002  0.1853037E+03  0.7818608E-02  0.1162767E+00
          2   -1    0    0  502    0  0.00000000000E+00  0.00000000000E+00  0.14091860394E+04  0.14091860394E+04  0.00000000000E+00 0. -1.
         -2   -1    0    0    0  501 -0.00000000000E+00 -0.00000000000E+00 -0.25585284811E+02  0.25585284811E+02  0.00000000000E+00 0.  1.
          6    2    1    2  502    0  0.20192627754E+02  0.62450364188E+02  0.53423814429E+03  0.56536906370E+03  0.17298552880E+03 0.  0.
         24    2    3    3    0    0  0.12817130437E+02  0.10115635887E+02  0.10727111632E+03  0.13511767821E+03  0.80517635618E+02 0.  0.
         -6    2    1    2    0  501 -0.20192627754E+02 -0.62450364188E+02  0.84936261032E+03  0.86940226053E+03  0.17359624593E+03 0.  0.
        -24    2    5    5    0    0 -0.14243563618E+02 -0.78351497698E+02  0.84303617001E+03  0.85068458819E+03  0.81316962202E+02 0.  0.
          5    1    3    3  502    0  0.73754973162E+01  0.52334728301E+02  0.42696702797E+03  0.43025138549E+03  0.47000000000E+01 0. -1.
        -11    1    4    4    0    0 -0.16244890370E+02  0.33175028264E+02  0.82824238243E+02  0.90688110599E+02  0.00000000000E+00 0.  1.
         12    1    4    4    0    0  0.29062020807E+02 -0.23059392377E+02  0.24446878079E+02  0.44429567610E+02  0.00000000000E+00 0. -1.
         -5    1    5    5    0  501 -0.59490641351E+01  0.15901133510E+02  0.63264403162E+01  0.18717672346E+02  0.47000000000E+01 0.  1.
         11    1    6    6    0    0  0.59778651030E+01 -0.76056456327E+02  0.40176021965E+03  0.40893959641E+03  0.00000000000E+00 0. -1.
        -12    1    6    6    0    0 -0.20221428721E+02 -0.22950413709E+01  0.44127595036E+03  0.44174499178E+03  0.00000000000E+00 0.  1.
</event>
<event>
12    1  0.2689284E-002  0.2042846E+03  0.7818608E-02  0.1146174E+00
          2   -1    0    0  502    0  0.00000000000E+00  0.00000000000E+00  0.27034326020E+03  0.27034326020E+03  0.00000000000E+00 0.  1.
         -2   -1    0    0    0  501 -0.00000000000E+00 -0.00000000000E+00 -0.16126735998E+03  0.16126735998E+03  0.00000000000E+00 0. -1.
          6    2    1    2  502    0 -0.11080276867E+03 -0.11727495552E+01  0.99062313778E+02  0.22664228863E+03  0.17109867357E+03 0.  0.
         24    2    3    3    0    0 -0.85469134163E+02 -0.66534391759E+02  0.56442843137E+02  0.14446901690E+03  0.77160249625E+02 0.  0.
         -6    2    1    2    0  501  0.11080276867E+03  0.11727495552E+01  0.10013586442E+02  0.20496833154E+03  0.17214272025E+03 0.  0.
        -24    2    5    5    0    0  0.46975848880E+01  0.41548882573E+02 -0.13757431434E+02  0.88883477091E+02  0.77218058985E+02 0.  0.
          5    1    3    3  502    0 -0.25333634506E+02  0.65361642204E+02  0.42619470640E+02  0.82173271728E+02  0.47000000000E+01 0. -1.
        -13    1    4    4    0    0 -0.63092628021E+02 -0.61284641858E+02  0.74477847808E+02  0.11525379322E+03  0.00000000000E+00 0.  1.
         14    1    4    4    0    0 -0.22376506142E+02 -0.52497499007E+01 -0.18035004671E+02  0.29215223679E+02  0.00000000000E+00 0. -1.
         -5    1    5    5    0  501  0.10610518378E+03 -0.40376133017E+02  0.23771017875E+02  0.11608485445E+03  0.47000000000E+01 0.  1.
         13    1    6    6    0    0  0.38740450363E+02  0.71104741723E+01 -0.60421096326E+01  0.39848317732E+02  0.00000000000E+00 0. -1.
        -14    1    6    6    0    0 -0.34042865475E+02  0.34438408400E+02 -0.77153218010E+01  0.49035159359E+02  0.00000000000E+00 0.  1.
</event>
<event>
12    1  0.2689284E-002  0.1782951E+03  0.7818608E-02  0.1169463E+00
         -2   -1    0    0    0  501 -0.00000000000E+00  0.00000000000E+00  0.25569084824E+02  0.25569084824E+02  0.00000000000E+00 0.  1.
          2   -1    0    0  502    0  0.00000000000E+00 -0.00000000000E+00 -0.22087544633E+04  0.22087544633E+04  0.00000000000E+00 0. -1.
          6    2    1    2  502    0 -0.10226943130E+02  0.54018336150E+02 -0.35932414510E+03  0.40194352567E+03  0.17152896423E+03 0.  0.
         24    2    3    3    0    0  0.56991238165E+02  0.11442625201E+02 -0.22141451486E+03  0.24265720745E+03  0.80493465808E+02 0.  0.
         -6    2    1    2    0  501  0.10226943130E+02 -0.54018336150E+02 -0.18238612334E+04  0.18323800225E+04  0.16770264478E+03 0.  0.
        -24    2    5    5    0    0  0.55282617700E+02 -0.37740901071E+02 -0.16034107600E+04  0.16067354570E+04  0.78690660733E+02 0.  0.
          5    1    3    3  502    0 -0.67218181295E+02  0.42575710948E+02 -0.13790963024E+03  0.15928631822E+03  0.47000000000E+01 0. -1.
        -11    1    4    4    0    0  0.30340018283E+02  0.45053374398E+02 -0.14769585026E+03  0.15736704686E+03  0.00000000000E+00 0.  1.
         12    1    4    4    0    0  0.26651219882E+02 -0.33610749196E+02 -0.73718664598E+02  0.85290160587E+02  0.00000000000E+00 0. -1.
         -5    1    5    5    0  501 -0.45055674571E+02 -0.16277435079E+02 -0.22045047339E+03  0.22564456546E+03  0.47000000000E+01 0.  1.
         11    1    6    6    0    0  0.14795701502E+02 -0.65798488251E+01 -0.11991239080E+04  0.11992332358E+04  0.00000000000E+00 0. -1.
        -12    1    6    6    0    0  0.40486916199E+02 -0.31161052245E+02 -0.40428685200E+03  0.40750222117E+03  0.00000000000E+00 0.  1.
</event>
<event>
12    1  0.2689284E-002  0.2029931E+03  0.7818608E-02  0.1147238E+00
         -2   -1    0    0    0  501 -0.00000000000E+00  0.00000000000E+00  0.89205370675E+02  0.89205370675E+02  0.00000000000E+00 0. -1.
          2   -1    0    0  502    0  0.00000000000E+00 -0.00000000000E+00 -0.81005300814E+03  0.81005300814E+03  0.00000000000E+00 0.  1.
          6    2    1    2  502    0 -0.10658235355E+03 -0.18695576950E+00 -0.65425068261E+02  0.21305047413E+03  0.17248255544E+03 0.  0.
         24    2    3    3    0    0 -0.35801820750E+02  0.40792666182E+02 -0.85113997140E+02  0.12879516475E+03  0.79987436336E+02 0.  0.
         -6    2    1    2    0  501  0.10658235355E+03  0.18695576950E+00 -0.65542256921E+03  0.68620790469E+03  0.17303962317E+03 0.  0.
        -24    2    5    5    0    0  0.25544894159E+02 -0.20085479415E+02 -0.14377242670E+03  0.16776215074E+03  0.80110301723E+02 0.  0.
          5    1    3    3  502    0 -0.70780532796E+02 -0.40979621952E+02  0.19688928878E+02  0.84255309379E+02  0.47000000000E+01 0. -1.
        -13    1    4    4    0    0 -0.64134324339E+01  0.89114655289E+01 -0.84724998747E+02  0.85433434592E+02  0.00000000000E+00 0.  1.
         14    1    4    4    0    0 -0.29388388316E+02  0.31881200653E+02 -0.38899839283E+00  0.43361730162E+02  0.00000000000E+00 0. -1.
         -5    1    5    5    0  501  0.81037459388E+02  0.20272435185E+02 -0.51165014251E+03  0.51844575394E+03  0.47000000000E+01 0.  1.
         13    1    6    6    0    0  0.22842301325E+02  0.25574879069E+02 -0.31632493402E+02  0.46652543425E+02  0.00000000000E+00 0. -1.
        -14    1    6    6    0    0  0.27025928345E+01 -0.45660358484E+02 -0.11213993330E+03  0.12110960732E+03  0.00000000000E+00 0.  1.
</event>
<event>
12    1  0.2689284E-002  0.2834210E+03  0.7818608E-02  0.1093835E+00
         -1   -1    0    0    0  501 -0.00000000000E+00  0.00000000000E+00  0.14601768290E+04  0.14601768290E+04  0.00000000000E+00 0. -1.
          1   -1    0    0  502    0  0.00000000000E+00 -0.00000000000E+00 -0.55536090338E+02  0.55536090338E+02  0.00000000000E+00 0.  1.
          6    2    1    2  502    0  0.11592162764E+03 -0.19171894229E+03  0.63186928858E+03  0.69303797524E+03  0.17563843738E+03 0.  0.
         24    2    3    3    0    0  0.11187834819E+03 -0.78609862793E+02  0.46938637962E+03  0.49496526718E+03  0.77270738458E+02 0.  0.
         -6    2    1    2    0  501 -0.11592162764E+03  0.19171894229E+03  0.77277145009E+03  0.82267494411E+03  0.17153534038E+03 0.  0.
        -24    2    5    5    0    0 -0.11549029531E+03  0.16613410513E+03  0.76214573337E+03  0.79457217207E+03  0.97674298277E+02 0.  0.
          5    1    3    3  502    0  0.40432794476E+01 -0.11310907950E+03  0.16248290897E+03  0.19807270806E+03  0.47000000000E+01 0. -1.
        -11    1    4    4    0    0  0.39551056594E+01 -0.20526927712E+02  0.19164834179E+02  0.28359980451E+02  0.00000000000E+00 0.  1.
         12    1    4    4    0    0  0.10792324253E+03 -0.58082935080E+02  0.45022154544E+03  0.46660528673E+03  0.00000000000E+00 0. -1.
         -5    1    5    5    0  501 -0.43133233005E+00  0.25584837160E+02  0.10625716722E+02  0.28102772033E+02  0.47000000000E+01 0.  1.
         11    1    6    6    0    0 -0.20439941866E+02 -0.10100076796E+02  0.11174996462E+03  0.11405199414E+03  0.00000000000E+00 0. -1.
        -12    1    6    6    0    0 -0.95050353443E+02  0.17623418192E+03  0.65039576875E+03  0.68052017794E+03  0.00000000000E+00 0.  1.
</event>
<event>
12    1  0.2689284E-002  0.1777786E+03  0.7818608E-02  0.1169970E+00
         -2   -1    0    0    0  501 -0.00000000000E+00  0.00000000000E+00  0.97687498955E+02  0.97687498955E+02  0.00000000000E+00 0. -1.
          2   -1    0    0  502    0  0.00000000000E+00 -0.00000000000E+00 -0.40188761367E+03  0.40188761367E+03  0.00000000000E+00 0.  1.
          6    2    1    2  502    0  0.37725364770E+02  0.45041756810E+02 -0.39347581937E+02  0.17846425194E+03  0.16385754182E+03 0.  0.
         24    2    3    3    0    0  0.53412431517E+02 -0.10890164295E+02 -0.63160021762E+02  0.11550723365E+03  0.79882721268E+02 0.  0.
         -6    2    1    2    0  501 -0.37725364770E+02 -0.45041756810E+02 -0.26485253277E+03  0.32111086068E+03  0.17179452182E+03 0.  0.
        -24    2    5    5    0    0 -0.48353720670E+02 -0.92969370618E+02 -0.18302401466E+03  0.22557021754E+03  0.80017166442E+02 0.  0.
          5    1    3    3  502    0 -0.15687066746E+02  0.55931921105E+02  0.23812439825E+02  0.62957018290E+02  0.47000000000E+01 0. -1.
        -11    1    4    4    0    0  0.18050596666E+01  0.25767381018E+02 -0.40962142579E+02  0.48426369776E+02  0.00000000000E+00 0.  1.
         12    1    4    4    0    0  0.51607371850E+02 -0.36657545313E+02 -0.22197879183E+02  0.67080863872E+02  0.00000000000E+00 0. -1.
         -5    1    5    5    0  501  0.10628355899E+02  0.47927613808E+02 -0.81828518118E+02  0.95540643141E+02  0.47000000000E+01 0.  1.
         11    1    6    6    0    0 -0.31334692341E+02  0.85911959199E+00 -0.21545656879E+02  0.38037039329E+02  0.00000000000E+00 0. -1.
        -12    1    6    6    0    0 -0.17019028329E+02 -0.93828490210E+02 -0.16147835778E+03  0.18753317821E+03  0.00000000000E+00 0.  1.
</event>
<event>
12    1  0.2689284E-002  0.1868984E+03  0.7818608E-02  0.1161289E+00
         -2   -1    0    0    0  501 -0.00000000000E+00  0.00000000000E+00  0.21372242986E+02  0.21372242986E+02  0.00000000000E+00 0.  1.
          2   -1    0    0  502    0  0.00000000000E+00 -0.00000000000E+00 -0.17128621357E+04  0.17128621357E+04  0.00000000000E+00 0. -1.
          6    2    1    2  502    0  0.48232467018E+02 -0.54840725560E+02 -0.10259398374E+04  0.10426064943E+04  0.17070991763E+03 0.  0.
         24    2    3    3    0    0  0.24552097398E+02  0.34930091624E+02 -0.38962243062E+03  0.39953457634E+03  0.77455293307E+02 0.  0.
         -6    2    1    2    0  501 -0.48232467018E+02  0.54840725560E+02 -0.66555005531E+03  0.69162788436E+03  0.17337352234E+03 0.  0.
        -24    2    5    5    0    0  0.84363118328E+01 -0.28253311601E+02 -0.24769539473E+03  0.26181330007E+03  0.79522163864E+02 0.  0.
          5    1    3    3  502    0  0.23680369620E+02 -0.89770817184E+02 -0.63631740678E+03  0.64307191798E+03  0.47000000000E+01 0. -1.
        -13    1    4    4    0    0 -0.21635033479E+02  0.23312169772E+02 -0.77072254341E+02  0.83376641347E+02  0.00000000000E+00 0.  1.
         14    1    4    4    0    0  0.46187130877E+02  0.11617921852E+02 -0.31255017628E+03  0.31615793499E+03  0.00000000000E+00 0. -1.
         -5    1    5    5    0  501 -0.56668778851E+02  0.83094037161E+02 -0.41785466058E+03  0.42981458430E+03  0.47000000000E+01 0.  1.
         13    1    6    6    0    0  0.14278291387E+02 -0.33220651612E+02 -0.25090734903E+03  0.25349946567E+03  0.00000000000E+00 0. -1.
        -14    1    6    6    0    0 -0.58419795544E+01  0.49673400108E+01  0.32119542985E+01  0.83138343928E+01  0.00000000000E+00 0.  1.
</event>
<event>
12    1  0.2689284E-002  0.2063949E+03  0.7818608E-02  0.1144453E+00
         -2   -1    0    0    0  501 -0.00000000000E+00  0.00000000000E+00  0.50597410067E+02  0.50597410067E+02  0.00000000000E+00 0. -1.
          2   -1    0    0  502    0  0.00000000000E+00 -0.00000000000E+00 -0.91759076925E+03  0.91759076925E+03  0.00000000000E+00 0.  1.
          6    2    1    2  502    0 -0.98156344964E+02  0.58909077131E+02 -0.57247996600E+03  0.60854278736E+03  0.17171506966E+03 0.  0.
         24    2    3    3    0    0 -0.88367371433E+01  0.22125424153E+02 -0.41152798421E+03  0.42076989286E+03  0.84406152784E+02 0.  0.
         -6    2    1    2    0  501  0.98156344964E+02 -0.58909077131E+02 -0.29451339318E+03  0.35964539196E+03  0.17176065256E+03 0.  0.
        -24    2    5    5    0    0  0.10950239165E+03 -0.62756437862E+02 -0.13545112485E+03  0.20006334358E+03  0.75823412936E+02 0.  0.
          5    1    3    3  502    0 -0.89319607821E+02  0.36783652978E+02 -0.16095198179E+03  0.18777289450E+03  0.47000000000E+01 0. -1.
        -11    1    4    4    0    0  0.17723478610E+02  0.46133510134E+02 -0.28589021099E+03  0.29013037620E+03  0.00000000000E+00 0.  1.
         12    1    4    4    0    0 -0.26560215753E+02 -0.24008085981E+02 -0.12563777322E+03  0.13063951666E+03  0.00000000000E+00 0. -1.
         -5    1    5    5    0  501 -0.11346046684E+02  0.38473607318E+01 -0.15906226833E+03  0.15958204839E+03  0.47000000000E+01 0.  1.
         11    1    6    6    0    0  0.11636082137E+03 -0.39502020376E+02 -0.11022199523E+03  0.16507313106E+03  0.00000000000E+00 0. -1.
        -12    1    6    6    0    0 -0.68584297211E+01 -0.23254417486E+02 -0.25229129618E+02  0.34990212519E+02  0.00000000000E+00 0.  1.
</event>
<event>
12    1  0.2689284E-002  0.2636385E+03  0.7818608E-02  0.1104977E+00
         -2   -1    0    0    0  501 -0.00000000000E+00  0.00000000000E+00  0.41056529252E+02  0.41056529252E+02  0.00000000000E+00 0.  1.
          2   -1    0    0  502    0  0.00000000000E+00 -0.00000000000E+00 -0.17051749493E+04  0.17051749493E+04  0.00000000000E+00 0. -1.
          6    2    1    2  502    0  0.14587666050E+03 -0.13632833565E+03 -0.90643778029E+03  0.94403050728E+03  0.17233320618E+03 0.  0.
         24    2    3    3    0    0  0.64214519918E+02 -0.30136232978E+02 -0.16391065022E+03  0.18950145100E+03  0.63343520344E+02 0.  0.
         -6    2    1    2    0  501 -0.14587666050E+03  0.13632833565E+03 -0.75768063976E+03  0.80220097128E+03  0.17199136975E+03 0.  0.
        -24    2    5    5    0    0 -0.92844690315E+01  0.33273764857E+02 -0.18566619433E+03  0.20512452130E+03  0.80067401166E+02 0.  0.
          5    1    3    3  502    0  0.81662140583E+02 -0.10619210268E+03 -0.74252713008E+03  0.75452905628E+03  0.47000000000E+01 0. -1.
        -11    1    4    4    0    0  0.75465115742E+02 -0.19397054493E+02 -0.14796252808E+03  0.16722481614E+03  0.00000000000E+00 0.  1.
         12    1    4    4    0    0 -0.11250595824E+02 -0.10739178485E+02 -0.15948122133E+02  0.22276634855E+02  0.00000000000E+00 0. -1.
         -5    1    5    5    0  501 -0.13659219147E+03  0.10305457080E+03 -0.57201444543E+03  0.59707644997E+03  0.47000000000E+01 0.  1.
         11    1    6    6    0    0 -0.18225739108E+02  0.44569615079E+02 -0.18448986908E+03  0.19067023876E+03  0.00000000000E+00 0. -1.
        -12    1    6    6    0    0  0.89412700769E+01 -0.11295850221E+02 -0.11763252500E+01  0.14454282546E+02  0.00000000000E+00 0.  1.
</event>
<event>
12    1  0.2689284E-002  0.1866414E+03  0.7818608E-02  0.1161526E+00
          2   -1    0    0  502    0  0.00000000000E+00  0.00000000000E+00  0.12439467518E+04  0.12439467518E+04  0.00000000000E+00 0.  1.
         -2   -1    0    0    0  501 -0.00000000000E+00 -0.00000000000E+00 -0.31454039323E+02  0.31454039323E+02  0.00000000000E+00 0. -1.
          6    2    1    2  502    0 -0.13584888384E+01  0.64858018446E+02  0.40421087595E+03  0.44653238323E+03  0.17831525169E+03 0.  0.
         24    2    3    3    0    0  0.53445494984E+02  0.18017097894E+01  0.14833197723E+03  0.17731931609E+03  0.81117798905E+02 0.  0.
         -6    2    1    2    0  501  0.13584888384E+01 -0.64858018446E+02  0.80828183651E+03  0.82886840788E+03  0.17174079975E+03 0.  0.
        -24    2    5    5    0    0 -0.37459614247E+02  0.82808416537E+01  0.26170391399E+03  0.27603420727E+03  0.78956633312E+02 0.  0.
          5    1    3    3  502    0 -0.54803983822E+02  0.63056308656E+02  0.25587889872E+03  0.26921306714E+03  0.47000000000E+01 0. -1.
        -13    1    4    4    0    0 -0.14708860097E+02 -0.20669926843E+02  0.40555843638E+02  0.47836940686E+02  0.00000000000E+00 0.  1.
         14    1    4    4    0    0  0.68154355081E+02  0.22471636633E+02  0.10777613359E+03  0.12948237541E+03  0.00000000000E+00 0. -1.
         -5    1    5    5    0  501  0.38818103086E+02 -0.73138860099E+02  0.54657792252E+03  0.55283420061E+03  0.47000000000E+01 0.  1.
         13    1    6    6    0    0 -0.31133501950E+01 -0.32981828334E+02  0.12041927845E+03  0.12489314061E+03  0.00000000000E+00 0. -1.
        -14    1    6    6    0    0 -0.34346264052E+02  0.41262669987E+02  0.14128463555E+03  0.15114106666E+03  0.00000000000E+00 0.  1.
</event>
<event>
12    1  0.2689284E-002  0.1792073E+03  0.7818608E-02  0.1168572E+00
         -1   -1    0    0    0  501 -0.00000000000E+00  0.00000000000E+00  0.61924722625E+03  0.61924722625E+03  0.00000000000E+00 0.  1.
          1   -1    0    0  502    0  0.00000000000E+00 -0.00000000000E+00 -0.48943281662E+03  0.48943281662E+03  0.00000000000E+00 0. -1.
          6    2    1    2  502    0 -0.50520501862E+02 -0.22961007330E+02 -0.45887515124E+03  0.49531120631E+03  0.17800915061E+03 0.  0.
         24    2    3    3    0    0 -0.89642408271E+02 -0.56994635877E+02 -0.35715862196E+03  0.38104330284E+03  0.79671623067E+02 0.  0.
         -6    2    1    2    0  501  0.50520501862E+02  0.22961007330E+02  0.58868956087E+03  0.61336883657E+03  0.16305337049E+03 0.  0.
        -24    2    5    5    0    0  0.65156685376E+02  0.42499779120E+02  0.24845816586E+03  0.27223034033E+03  0.79537872328E+02 0.  0.
          5    1    3    3  502    0  0.39121906408E+02  0.34033628548E+02 -0.10171652928E+03  0.11426790347E+03  0.47000000000E+01 0. -1.
        -11    1    4    4    0    0  0.13357022609E+02 -0.14791781059E+02 -0.36093103879E+02  0.41230073824E+02  0.00000000000E+00 0.  1.
         12    1    4    4    0    0 -0.10299943088E+03 -0.42202854818E+02 -0.32106551808E+03  0.33981322902E+03  0.00000000000E+00 0. -1.
         -5    1    5    5    0  501 -0.14636183514E+02 -0.19538771790E+02  0.34023139500E+03  0.34113849624E+03  0.47000000000E+01 0.  1.
         11    1    6    6    0    0  0.17957400450E+02  0.45043715603E+02  0.56113345030E+02  0.74162740219E+02  0.00000000000E+00 0. -1.
        -12    1    6    6    0    0  0.47199284926E+02 -0.25439364833E+01  0.19234482083E+03  0.19806760011E+03  0.00000000000E+00 0.  1.
</event>
<event>
12    1  0.2689284E-002  0.2072991E+03  0.7818608E-02  0.1143723E+00
         -2   -1    0    0    0  501 -0.00000000000E+00  0.00000000000E+00  0.34967960847E+02  0.34967960847E+02  0.00000000000E+00 0.  1.
          2   -1    0    0  502    0  0.00000000000E+00 -0.00000000000E+00 -0.14301852249E+04  0.14301852249E+04  0.00000000000E+00 0. -1.
          6    2    1    2  502    0  0.86171346638E+02  0.78179417214E+02 -0.97220300025E+03  0.99404231619E+03  0.17147574297E+03 0.  0.
         24    2    3    3    0    0 -0.11770106261E+02  0.39413947083E+02 -0.61853586343E+03  0.62499242318E+03  0.79604774027E+02 0.  0.
         -6    2    1    2    0  501 -0.86171346638E+02 -0.78179417214E+02 -0.42301426380E+03  0.47111086956E+03  0.17165914417E+03 0.  0.
        -24    2    5    5    0    0 -0.33665870293E+02 -0.11443579310E+03 -0.28106081523E+03  0.31540530960E+03  0.79097319200E+02 0.  0.
          5    1    3    3  502    0  0.97941452898E+02  0.38765470131E+02 -0.35366713682E+03  0.36904989302E+03  0.47000000000E+01 0. -1.
        -11    1    4    4    0    0 -0.68253640532E+01 -0.10322884932E+02 -0.42262668187E+03  0.42280782842E+03  0.00000000000E+00 0.  1.
         12    1    4    4    0    0 -0.49447422073E+01  0.49736832015E+02 -0.19590918157E+03  0.20218459475E+03  0.00000000000E+00 0. -1.
         -5    1    5    5    0  501 -0.52505476345E+02  0.36256375882E+02 -0.14195344858E+03  0.15570555995E+03  0.47000000000E+01 0.  1.
         13    1    6    6    0    0 -0.42311052613E+02 -0.57665197258E+02 -0.22110460077E+03  0.23238490620E+03  0.00000000000E+00 0. -1.
        -14    1    6    6    0    0  0.86451823193E+01 -0.56770595838E+02 -0.59956214464E+02  0.83020403408E+02  0.00000000000E+00 0.  1.
</event>
<event>
12    1  0.2689284E-002  0.2413320E+03  0.7818608E-02  0.1118909E+00
          1   -1    0    0  502    0  0.00000000000E+00  0.00000000000E+00  0.21277046078E+04  0.21277046078E+04  0.00000000000E+00 0. -1.
         -1   -1    0    0    0  501 -0.00000000000E+00 -0.00000000000E+00 -0.33474471824E+02  0.33474471824E+02  0.00000000000E+00 0.  1.
          6    2    1    2  502    0 -0.14928328536E+03  0.81253359652E+02  0.59001353686E+03  0.63791360806E+03  0.17300343907E+03 0.  0.
         24    2    3    3    0    0 -0.52961312589E+02  0.10874106831E+03  0.30906857314E+03  0.33960896645E+03  0.71981571429E+02 0.  0.
         -6    2    1    2    0  501  0.14928328536E+03 -0.81253359652E+02  0.15042165991E+04  0.15232654716E+04  0.16965409528E+03 0.  0.
        -24    2    5    5    0    0  0.12811671828E+03 -0.49221800622E+01  0.76881007170E+03  0.78359032455E+03  0.80664422272E+02 0.  0.
          5    1    3    3  502    0 -0.96321972773E+02 -0.27487708655E+02  0.28094496372E+03  0.29830464161E+03  0.47000000000E+01 0. -1.
        -13    1    4    4    0    0 -0.63622174808E+02  0.11232301742E+03  0.27641590986E+03  0.30507375598E+03  0.00000000000E+00 0.  1.
         14    1    4    4    0    0  0.10660862219E+02 -0.35819491090E+01  0.32652663280E+02  0.34535210467E+02  0.00000000000E+00 0. -1.
         -5    1    5    5    0  501  0.21166567086E+02 -0.76331179590E+02  0.73540652742E+03  0.73967514702E+03  0.47000000000E+01 0.  1.
         13    1    6    6    0    0 -0.56604317456E+01 -0.20464074771E+01  0.16594750104E+03  0.16605662098E+03  0.00000000000E+00 0. -1.
        -14    1    6    6    0    0  0.13377715002E+03 -0.28757725851E+01  0.60286257066E+03  0.61753370357E+03  0.00000000000E+00 0.  1.
</event>
<event>
12    1  0.2689284E-002  0.1923452E+03  0.7818608E-02  0.1156363E+00
         -2   -1    0    0    0  501 -0.00000000000E+00  0.00000000000E+00  0.14664068707E+03  0.14664068707E+03  0.00000000000E+00 0. -1.
          2   -1    0    0  502    0  0.00000000000E+00 -0.00000000000E+00 -0.25514961064E+03  0.25514961064E+03  0.00000000000E+00 0.  1.
          6    2    1    2  502    0  0.48375551288E+02  0.71246254400E+02 -0.75321972812E+02  0.20599190048E+03  0.17129810492E+03 0.  0.
         24    2    3    3    0    0 -0.12060061205E+02 -0.17101316615E+02 -0.43068500032E+02  0.94098500016E+02  0.81004517800E+02 0.  0.
         -6    2    1    2    0  501 -0.48375551288E+02 -0.71246254400E+02 -0.33186950753E+02  0.19579839722E+03  0.17268299258E+03 0.  0.
        -24    2    5    5    0    0 -0.10465371177E+02  0.18546420336E+02 -0.50337773375E+02  0.96721927216E+02  0.79798158343E+02 0.  0.
          5    1    3    3  502    0  0.60435612493E+02  0.88347571015E+02 -0.32253472779E+02  0.11189340047E+03  0.47000000000E+01 0. -1.
        -13    1    4    4    0    0  0.34134675203E+02 -0.16037522004E+01 -0.24079925210E+02  0.41804196804E+02  0.00000000000E+00 0.  1.
         14    1    4    4    0    0 -0.46194736408E+02 -0.15497564415E+02 -0.18988574822E+02  0.52294303212E+02  0.00000000000E+00 0. -1.
         -5    1    5    5    0  501 -0.37910180111E+02 -0.89792674736E+02  0.17150822622E+02  0.99076470007E+02  0.47000000000E+01 0.  1.
         11    1    6    6    0    0  0.34660911011E+02  0.11126603571E+02 -0.27381577432E+02  0.45551408780E+02  0.00000000000E+00 0. -1.
        -12    1    6    6    0    0 -0.45126282188E+02  0.74198167659E+01 -0.22956195942E+02  0.51170518437E+02  0.00000000000E+00 0.  1.
</event>
<event>
12    1  0.2689284E-002  0.1825673E+03  0.7818608E-02  0.1165341E+00
          2   -1    0    0  502    0  0.00000000000E+00  0.00000000000E+00  0.15685159622E+03  0.15685159622E+03  0.00000000000E+00 0.  1.
         -2   -1    0    0    0  501 -0.00000000000E+00 -0.00000000000E+00 -0.12736778976E+04  0.12736778976E+04  0.00000000000E+00 0. -1.
          6    2    1    2  502    0  0.88221405550E+01 -0.61451840887E+02 -0.12106461079E+04  0.12241491742E+04  0.17036150754E+03 0.  0.
         24    2    3    3    0    0 -0.40411424819E+01  0.19895475847E+02 -0.34787712099E+03  0.35744549661E+03  0.79602958187E+02 0.  0.
         -6    2    1    2    0  501 -0.88221405550E+01  0.61451840887E+02  0.93819806475E+02  0.20638031965E+03  0.17302173661E+03 0.  0.
        -24    2    5    5    0    0 -0.17717042259E+02  0.65842117563E+01 -0.15989956693E+02  0.83214374314E+02  0.79446258229E+02 0.  0.
          5    1    3    3  502    0  0.12863283037E+02 -0.81347316735E+02 -0.86276898691E+03  0.86670367759E+03  0.47000000000E+01 0. -1.
        -11    1    4    4    0    0  0.34557588579E+02  0.25705663478E+02 -0.18855826517E+03  0.19341465153E+03  0.00000000000E+00 0.  1.
         12    1    4    4    0    0 -0.38598731061E+02 -0.58101876304E+01 -0.15931885582E+03  0.16403084509E+03  0.00000000000E+00 0. -1.
         -5    1    5    5    0  501  0.88949017039E+01  0.54867629131E+02  0.10980976317E+03  0.12316594533E+03  0.47000000000E+01 0.  1.
         13    1    6    6    0    0 -0.44074138972E+02  0.12716608141E+02  0.85749865456E+01  0.46666607366E+02  0.00000000000E+00 0. -1.
        -14    1    6    6    0    0  0.26357096713E+02 -0.61323963847E+01 -0.24564943239E+02  0.36547766948E+02  0.00000000000E+00 0.  1.
</event>
<event>
12    1  0.2689284E-002  0.2263081E+03  0.7818608E-02  0.1129266E+00
          1   -1    0    0  502    0  0.00000000000E+00  0.00000000000E+00  0.35678112618E+03  0.35678112618E+03  0.00000000000E+00 0. -1.
         -1   -1    0    0    0  501 -0.00000000000E+00 -0.00000000000E+00 -0.14472310162E+03  0.14472310162E+03  0.00000000000E+00 0.  1.
          6    2    1    2  502    0  0.14024830253E+03  0.43160330322E+02  0.12865070233E+03  0.26037708822E+03  0.17237408269E+03 0.  0.
         24    2    3    3    0    0  0.12787247396E+02 -0.36071360694E+01  0.12070131456E+02  0.81361345908E+02  0.79356508291E+02 0.  0.
         -6    2    1    2    0  501 -0.14024830253E+03 -0.43160330322E+02  0.83407322237E+02  0.24112713958E+03  0.17220080012E+03 0.  0.
        -24    2    5    5    0    0 -0.16628310749E+03 -0.13924304725E+02  0.52685766418E+02  0.19114253942E+03  0.76913732811E+02 0.  0.
          5    1    3    3  502    0  0.12746105514E+03  0.46767466391E+02  0.11658057087E+03  0.17901574231E+03  0.47000000000E+01 0. -1.
        -13    1    4    4    0    0 -0.71040397736E+01 -0.37305395494E+02 -0.56702082310E+01  0.38396759960E+02  0.00000000000E+00 0.  1.
         14    1    4    4    0    0  0.19891287170E+02  0.33698259424E+02  0.17740339687E+02  0.42964585948E+02  0.00000000000E+00 0. -1.
         -5    1    5    5    0  501  0.26034804951E+02 -0.29236025597E+02  0.30721555820E+02  0.49984600164E+02  0.47000000000E+01 0.  1.
         11    1    6    6    0    0 -0.10225037164E+03  0.29100414675E+02  0.25287020763E+02  0.10927674068E+03  0.00000000000E+00 0. -1.
        -12    1    6    6    0    0 -0.64032735843E+02 -0.43024719400E+02  0.27398745655E+02  0.81865798734E+02  0.00000000000E+00 0.  1.
</event>
<event>
12    1  0.2689284E-002  0.2178101E+03  0.7818608E-02  0.1135526E+00
         -1   -1    0    0    0  501 -0.00000000000E+00  0.00000000000E+00  0.41292116592E+02  0.41292116592E+02  0.00000000000E+00 0. -1.
          1   -1    0    0  502    0  0.00000000000E+00 -0.00000000000E+00 -0.12886264904E+04  0.12886264904E+04  0.00000000000E+00 0.  1.
          6    2    1    2  502    0  0.32773697270E+02 -0.12854310099E+03 -0.40372698869E+03  0.45854926800E+03  0.17226289716E+03 0.  0.
         24    2    3    3    0    0  0.63323095091E+02 -0.22128687965E+02 -0.15806641383E+03  0.18905251282E+03  0.79097207417E+02 0.  0.
         -6    2    1    2    0  501 -0.32773697270E+02  0.12854310099E+03 -0.84360738507E+03  0.87136933895E+03  0.17324451122E+03 0.  0.
        -24    2    5    5    0    0  0.12483946173E+02  0.60315795164E+02 -0.69191823304E+03  0.69893120977E+03  0.77202012416E+02 0.  0.
          5    1    3    3  502    0 -0.30549397821E+02 -0.10641441303E+03 -0.24566057486E+03  0.26949675517E+03  0.47000000000E+01 0. -1.
        -11    1    4    4    0    0  0.54245652644E+02 -0.28294030207E+02 -0.16506421054E+03  0.17603788393E+03  0.00000000000E+00 0.  1.
         12    1    4    4    0    0  0.90774424470E+01  0.61653422422E+01  0.69977967158E+01  0.13014628893E+02  0.00000000000E+00 0. -1.
         -5    1    5    5    0  501 -0.45257643443E+02  0.68227305827E+02 -0.15168915203E+03  0.17243812917E+03  0.47000000000E+01 0.  1.
         11    1    6    6    0    0  0.24809207399E+02  0.12071593566E+02 -0.73437279815E+02  0.78449054867E+02  0.00000000000E+00 0. -1.
        -12    1    6    6    0    0 -0.12325261226E+02  0.48244201599E+02 -0.61848095323E+03  0.62048215491E+03  0.00000000000E+00 0.  1.
</event>
<event>
12    1  0.2689284E-002  0.1744840E+03  0.7818608E-02  0.1173251E+00
          1   -1    0    0  502    0  0.00000000000E+00  0.00000000000E+00  0.10573167467E+03  0.10573167467E+03  0.00000000000E+00 0.  1.
         -1   -1    0    0    0  501 -0.00000000000E+00 -0.00000000000E+00 -0.28823553194E+03  0.28823553194E+03  0.00000000000E+00 0. -1.
          6    2    1    2  502    0 -0.39105469910E+02  0.86471839253E+01 -0.84339327320E+02  0.19187725230E+03  0.16762978927E+03 0.  0.
         24    2    3    3    0    0 -0.65170818937E+02  0.20980325045E+02 -0.30382942866E+01  0.10548595203E+03  0.80191303543E+02 0.  0.
         -6    2    1    2    0  501  0.39105469910E+02 -0.86471839253E+01 -0.98164529952E+02  0.20208995431E+03  0.17204668880E+03 0.  0.
        -24    2    5    5    0    0  0.37307152388E+02  0.60324311795E+02 -0.54713136242E+02  0.12041734701E+03  0.80473374299E+02 0.  0.
          5    1    3    3  502    0  0.26065349027E+02 -0.12333141120E+02 -0.81301033033E+02  0.86391300269E+02  0.47000000000E+01 0. -1.
        -11    1    4    4    0    0 -0.41164181176E+02 -0.19832278052E+02  0.23314433010E+02  0.51296899041E+02  0.00000000000E+00 0.  1.
         12    1    4    4    0    0 -0.24006637760E+02  0.40812603097E+02 -0.26352727296E+02  0.54189052991E+02  0.00000000000E+00 0. -1.
         -5    1    5    5    0  501  0.17983175218E+01 -0.68971495720E+02 -0.43451393710E+02  0.81672607300E+02  0.47000000000E+01 0.  1.
         13    1    6    6    0    0 -0.21362430196E+02  0.38537994374E+02 -0.16278586331E+02  0.46973639492E+02  0.00000000000E+00 0. -1.
        -14    1    6    6    0    0  0.58669582583E+02  0.21786317421E+02 -0.38434549910E+02  0.73443707519E+02  0.00000000000E+00 0.  1.
</event>
<event>
12    1  0.2689284E-002  0.1940071E+03  0.7818608E-02  0.1154896E+00
          1   -1    0    0  502    0  0.00000000000E+00  0.00000000000E+00  0.31540225884E+03  0.31540225884E+03  0.00000000000E+00 0.  1.
         -1   -1    0    0    0  501 -0.00000000000E+00 -0.00000000000E+00 -0.16866516357E+03  0.16866516357E+03  0.00000000000E+00 0. -1.
          6    2    1    2  502    0 -0.65378447033E+02  0.58823184406E+02 -0.57256346943E+02  0.20322446660E+03  0.17403271589E+03 0.  0.
         24    2    3    3    0    0 -0.92108457256E+02  0.65188511980E+02  0.62709211197E-02  0.13953688346E+03  0.82079423815E+02 0.  0.
         -6    2    1    2    0  501  0.65378447033E+02 -0.58823184406E+02  0.20399344222E+03  0.28084295581E+03  0.17182820781E+03 0.  0.
        -24    2    5    5    0    0 -0.25661500191E+02 -0.58333061497E+02  0.10793558488E+03  0.14841292082E+03  0.79467263239E+02 0.  0.
          5    1    3    3  502    0  0.26730010223E+02 -0.63653275747E+01 -0.57262617864E+02  0.63687583141E+02  0.47000000000E+01 0. -1.
        -13    1    4    4    0    0 -0.13651561658E+02  0.21727272851E+02  0.34882814540E+02  0.43304159979E+02  0.00000000000E+00 0.  1.
         14    1    4    4    0    0 -0.78456895598E+02  0.43461239130E+02 -0.34876543619E+02  0.96232723480E+02  0.00000000000E+00 0. -1.
         -5    1    5    5    0  501  0.91039947224E+02 -0.49012290902E+00  0.96057857335E+02  0.13243003499E+03  0.47000000000E+01 0.  1.
         11    1    6    6    0    0 -0.34125499884E+02  0.77193526613E+01  0.42533949233E+02  0.55075175762E+02  0.00000000000E+00 0. -1.
        -12    1    6    6    0    0  0.84639996929E+01 -0.66052414158E+02  0.65401635648E+02  0.93337745057E+02  0.00000000000E+00 0.  1.
</event>
<event>
12    1  0.2689284E-002  0.2641355E+03  0.7818608E-02  0.1104684E+00
          1   -1    0    0  502    0  0.00000000000E+00  0.00000000000E+00  0.40164752587E+03  0.40164752587E+03  0.00000000000E+00 0. -1.
         -1   -1    0    0    0  501 -0.00000000000E+00 -0.00000000000E+00 -0.31804825581E+03  0.31804825581E+03  0.00000000000E+00 0.  1.
          6    2    1    2  502    0 -0.16045096786E+03 -0.11413057264E+03  0.28438285118E+03  0.38949421419E+03  0.17905819206E+03 0.  0.
         24    2    3    3    0    0 -0.17860680134E+03 -0.12930293912E+03  0.28082558698E+03  0.36511022103E+03  0.76307428547E+02 0.  0.
         -6    2    1    2    0  501  0.16045096786E+03  0.11413057264E+03 -0.20078358112E+03  0.33020156750E+03  0.17305700804E+03 0.  0.
        -24    2    5    5    0    0  0.13333483504E+03  0.16821471665E+02 -0.15132811157E+03  0.21763034888E+03  0.80010194719E+02 0.  0.
          5    1    3    3  502    0  0.18155833474E+02  0.15172366477E+02  0.35572641977E+01  0.24383993156E+02  0.47000000000E+01 0. -1.
        -13    1    4    4    0    0 -0.58009341035E+02 -0.21586032404E+01  0.67031958007E+02  0.88673708671E+02  0.00000000000E+00 0.  1.
         14    1    4    4    0    0 -0.12059746030E+03 -0.12714433588E+03  0.21379362897E+03  0.27643651236E+03  0.00000000000E+00 0. -1.
         -5    1    5    5    0  501  0.27116132820E+02  0.97309100977E+02 -0.49455469549E+02  0.11257121861E+03  0.47000000000E+01 0.  1.
         11    1    6    6    0    0  0.28442258337E+02 -0.53529233289E+01  0.36629114322E+01  0.29172465916E+02  0.00000000000E+00 0. -1.
        -12    1    6    6    0    0  0.10489257671E+03  0.22174394994E+02 -0.15499102300E+03  0.18845788297E+03  0.00000000000E+00 0.  1.
</event>
<event>
12    1  0.2689284E-002  0.1833443E+03  0.7818608E-02  0.1164605E+00
         -1   -1    0    0    0  501 -0.00000000000E+00  0.00000000000E+00  0.55813957887E+02  0.55813957887E+02  0.00000000000E+00 0. -1.
          1   -1    0    0  502    0  0.00000000000E+00 -0.00000000000E+00 -0.11845899059E+04  0.11845899059E+04  0.00000000000E+00 0.  1.
          6    2    1    2  502    0 -0.60144521932E+02 -0.26061705017E+02 -0.99861016392E+03  0.10152306657E+04  0.17080535449E+03 0.  0.
         24    2    3    3    0    0 -0.99359695943E+02 -0.32237001408E+02 -0.57370640947E+03  0.58845056460E+03  0.78888841225E+02 0.  0.
         -6    2    1    2    0  501  0.60144521932E+02  0.26061705017E+02 -0.13016578412E+03  0.22517319810E+03  0.17164865803E+03 0.  0.
        -24    2    5    5    0    0  0.92935433220E+02  0.58779099036E+02 -0.82496501489E+02  0.15853895585E+03  0.78974366301E+02 0.  0.
          5    1    3    3  502    0  0.39215174011E+02  0.61752963913E+01 -0.42490375445E+03  0.42678010111E+03  0.47000000000E+01 0. -1.
        -13    1    4    4    0    0 -0.75168853916E+01  0.40812434416E+01 -0.24686831278E+03  0.24701644473E+03  0.00000000000E+00 0.  1.
         14    1    4    4    0    0 -0.91842810552E+02 -0.36318244850E+02 -0.32683809670E+03  0.34143411987E+03  0.00000000000E+00 0. -1.
         -5    1    5    5    0  501 -0.32790911288E+02 -0.32717394019E+02 -0.47669282628E+02  0.66634242254E+02  0.47000000000E+01 0.  1.
         11    1    6    6    0    0  0.86328072339E+02  0.44740667498E+02 -0.96968724819E+02  0.13732150959E+03  0.00000000000E+00 0. -1.
        -12    1    6    6    0    0  0.66073608811E+01  0.14038431538E+02  0.14472223330E+02  0.21217446264E+02  0.00000000000E+00 0.  1.
</event>
<event>
12    1  0.2689284E-002  0.1902593E+03  0.7818608E-02  0.1158228E+00
          1   -1    0    0  502    0  0.00000000000E+00  0.00000000000E+00  0.25189090218E+03  0.25189090218E+03  0.00000000000E+00 0.  1.
         -1   -1    0    0    0  501 -0.00000000000E+00 -0.00000000000E+00 -0.16063733907E+03  0.16063733907E+03  0.00000000000E+00 0. -1.
          6    2    1    2  502    0  0.76335662386E+02  0.42638107221E+01  0.11228792862E+03  0.21978343495E+03  0.17277403142E+03 0.  0.
         24    2    3    3    0    0  0.25437234277E+02 -0.60693558144E+02  0.42250386733E+02  0.11144388988E+03  0.79397005760E+02 0.  0.
         -6    2    1    2    0  501 -0.76335662386E+02 -0.42638107221E+01 -0.21034365506E+02  0.19274480630E+03  0.17567812154E+03 0.  0.
        -24    2    5    5    0    0 -0.89294466026E+02 -0.10754187397E+02  0.42812779058E+02  0.12710485314E+03  0.78952868421E+02 0.  0.
          5    1    3    3  502    0  0.50898428109E+02  0.64957368866E+02  0.70037541890E+02  0.10833954508E+03  0.47000000000E+01 0. -1.
        -13    1    4    4    0    0  0.25934012152E+02 -0.11606855628E+02  0.53954641315E+02  0.60978647110E+02  0.00000000000E+00 0.  1.
         14    1    4    4    0    0 -0.49677787498E+00 -0.49086702516E+02 -0.11704254582E+02  0.50465242766E+02  0.00000000000E+00 0. -1.
         -5    1    5    5    0  501  0.12958803640E+02  0.64903766750E+01 -0.63847144565E+02  0.65639953155E+02  0.47000000000E+01 0.  1.
         11    1    6    6    0    0 -0.74003723646E+02 -0.13759022587E+02 -0.63424532648E+01  0.75538655862E+02  0.00000000000E+00 0. -1.
        -12    1    6    6    0    0 -0.15290742380E+02  0.30048351902E+01  0.49155232323E+02  0.51566197279E+02  0.00000000000E+00 0.  1.
</event>
<event>
12    1  0.2689284E-002  0.2076642E+03  0.7818608E-02  0.1143429E+00
          1   -1    0    0  502    0  0.00000000000E+00  0.00000000000E+00  0.28991984275E+02  0.28991984275E+02  0.00000000000E+00 0. -1.
         -1   -1    0    0    0  501 -0.00000000000E+00 -0.00000000000E+00 -0.14875944116E+04  0.14875944116E+04  0.00000000000E+00 0.  1.
          6    2    1    2  502    0 -0.67942906764E+02  0.94249751021E+02 -0.73735596232E+03  0.76611048461E+03  0.17243029119E+03 0.  0.
         24    2    3    3    0    0 -0.10715030848E+03  0.71457726166E+02 -0.44212589838E+03  0.46738054403E+03  0.79886592656E+02 0.  0.
         -6    2    1    2    0  501  0.67942906764E+02 -0.94249751021E+02 -0.72124646504E+03  0.75047591129E+03  0.17180912652E+03 0.  0.
        -24    2    5    5    0    0  0.83086534768E+02 -0.92675123620E+01 -0.33637687075E+03  0.35601678164E+03  0.81297543572E+02 0.  0.
          5    1    3    3  502    0  0.39207401715E+02  0.22792024855E+02 -0.29523006394E+03  0.29872994058E+03  0.47000000000E+01 0. -1.
        -11    1    4    4    0    0 -0.59655272226E+02  0.21233312643E+02 -0.32717561339E+03  0.33324688606E+03  0.00000000000E+00 0.  1.
         12    1    4    4    0    0 -0.47495036252E+02  0.50224413522E+02 -0.11495028498E+03  0.13413365797E+03  0.00000000000E+00 0. -1.
         -5    1    5    5    0  501 -0.15143628004E+02 -0.84982238659E+02 -0.38486959429E+03  0.39445912965E+03  0.47000000000E+01 0.  1.
         11    1    6    6    0    0 -0.74983818827E+01  0.73600632701E+01 -0.42109587259E+01  0.11319383181E+02  0.00000000000E+00 0. -1.
        -12    1    6    6    0    0  0.90584916651E+02 -0.16627575632E+02 -0.33216591202E+03  0.34469739846E+03  0.00000000000E+00 0.  1.
</event>
<event>
12    1  0.2689284E-002  0.2234032E+03  0.7818608E-02  0.1131371E+00
         -2   -1    0    0    0  501 -0.00000000000E+00  0.00000000000E+00  0.18359184299E+02  0.18359184299E+02  0.00000000000E+00 0. -1.
          2   -1    0    0  502    0  0.00000000000E+00 -0.00000000000E+00 -0.30890908219E+04  0.30890908219E+04  0.00000000000E+00 0.  1.
          6    2    1    2  502    0 -0.73173336113E+02 -0.12356555842E+03 -0.20700749916E+04  0.20820339439E+04  0.17038805171E+03 0.  0.
         24    2    3    3    0    0 -0.11003353112E+03 -0.75666091077E+02 -0.16775765360E+04  0.16848813780E+04  0.82033458703E+02 0.  0.
         -6    2    1    2    0  501  0.73173336113E+02  0.12356555842E+03 -0.10006566460E+04  0.10254160623E+04  0.17187668075E+03 0.  0.
        -24    2    5    5    0    0  0.49737139583E+02  0.10438471169E+02 -0.27920471914E+03  0.29475747864E+03  0.79648925213E+02 0.  0.
          5    1    3    3  502    0  0.36860195010E+02 -0.47899467342E+02 -0.39249845559E+03  0.39715256589E+03  0.47000000000E+01 0. -1.
        -11    1    4    4    0    0 -0.28860331685E+02  0.28940740017E+01 -0.73306516070E+03  0.73363875596E+03  0.00000000000E+00 0.  1.
         12    1    4    4    0    0 -0.81173199437E+02 -0.78560165079E+02 -0.94451137531E+03  0.95124262202E+03  0.00000000000E+00 0. -1.
         -5    1    5    5    0  501  0.23436196530E+02  0.11312708725E+03 -0.72145192684E+03  0.73065858369E+03  0.47000000000E+01 0.  1.
         11    1    6    6    0    0  0.51152114719E+02 -0.26185472163E+02 -0.15761301007E+03  0.16776197047E+03  0.00000000000E+00 0. -1.
        -12    1    6    6    0    0 -0.14149751358E+01  0.36623943332E+02 -0.12159170907E+03  0.12699550817E+03  0.00000000000E+00 0.  1.
</event>
<event>
12    1  0.2689284E-002  0.2309408E+03  0.7818608E-02  0.1125979E+00
         -2   -1    0    0    0  501 -0.00000000000E+00  0.00000000000E+00  0.47273278259E+02  0.47273278259E+02  0.00000000000E+00 0.  1.
          2   -1    0    0  502    0  0.00000000000E+00 -0.00000000000E+00 -0.15271265904E+04  0.15271265904E+04  0.00000000000E+00 0. -1.
          6    2    1    2  502    0 -0.11870757442E+03 -0.95051069922E+02 -0.33344453371E+03  0.40460963326E+03  0.17145700379E+03 0.  0.
         24    2    3    3    0    0 -0.11024376014E+00 -0.74546113117E+02 -0.14803385628E+03  0.18351013214E+03  0.78770621793E+02 0.  0.
         -6    2    1    2    0  501  0.11870757442E+03  0.95051069922E+02 -0.11464087784E+04  0.11697902354E+04  0.17615309662E+03 0.  0.
        -24    2    5    5    0    0  0.33330246529E+02 -0.30919306826E+01 -0.67543014209E+03  0.68115509281E+03  0.81522501456E+02 0.  0.
          5    1    3    3  502    0 -0.11859733066E+03 -0.20504956805E+02 -0.18541067743E+03  0.22109950112E+03  0.47000000000E+01 0. -1.
        -11    1    4    4    0    0  0.12954175174E+01  0.16862274318E+02 -0.26377155174E+02  0.31333188743E+02  0.00000000000E+00 0.  1.
         12    1    4    4    0    0 -0.14056612775E+01 -0.91408387435E+02 -0.12165670111E+03  0.15217694340E+03  0.00000000000E+00 0. -1.
         -5    1    5    5    0  501  0.85377327888E+02  0.98143000605E+02 -0.47097863634E+03  0.48863514259E+03  0.47000000000E+01 0.  1.
         11    1    6    6    0    0  0.42930166248E+02 -0.19463645328E+02 -0.20528624339E+03  0.21062828488E+03  0.00000000000E+00 0. -1.
        -12    1    6    6    0    0 -0.95999197187E+01  0.16371714646E+02 -0.47014389870E+03  0.47052680793E+03  0.00000000000E+00 0.  1.
</event>
<event>
12    1  0.2689284E-002  0.3737276E+03  0.7818608E-02  0.1053277E+00
          2   -1    0    0  502    0  0.00000000000E+00  0.00000000000E+00  0.75781819450E+03  0.75781819450E+03  0.00000000000E+00 0.  1.
         -2   -1    0    0    0  501 -0.00000000000E+00 -0.00000000000E+00 -0.20358779035E+03  0.20358779035E+03  0.00000000000E+00 0. -1.
          6    2    1    2  502    0 -0.28071120593E+03 -0.18034256823E+03  0.42546117943E+03  0.56670959116E+03  0.16976549256E+03 0.  0.
         24    2    3    3    0    0 -0.20055608743E+03 -0.17177641762E+03  0.24331262219E+03  0.36746499560E+03  0.78099993689E+02 0.  0.
         -6    2    1    2    0  501  0.28071120593E+03  0.18034256823E+03  0.12876922472E+03  0.39469639368E+03  0.16697756408E+03 0.  0.
        -24    2    5    5    0    0  0.51564043013E+02  0.55297379229E+02  0.60170758107E+02  0.12474721109E+03  0.78896741770E+02 0.  0.
          5    1    3    3  502    0 -0.80155118499E+02 -0.85661506002E+01  0.18214855724E+03  0.19924459557E+03  0.47000000000E+01 0. -1.
        -13    1    4    4    0    0 -0.12095087872E+03 -0.56247837110E+02  0.13889429693E+03  0.19257351834E+03  0.00000000000E+00 0.  1.
         14    1    4    4    0    0 -0.79605208705E+02 -0.11552858051E+03  0.10441832526E+03  0.17489147726E+03  0.00000000000E+00 0. -1.
         -5    1    5    5    0  501  0.22914716291E+03  0.12504518900E+03  0.68598466616E+02  0.26994918260E+03  0.47000000000E+01 0.  1.
         11    1    6    6    0    0  0.64962569845E+02  0.40455092986E+02  0.18810602669E+02  0.78807289017E+02  0.00000000000E+00 0. -1.
        -12    1    6    6    0    0 -0.13398526832E+02  0.14842286243E+02  0.41360155438E+02  0.45939922072E+02  0.00000000000E+00 0.  1.
</event>
<event>
12    1  0.2689284E-002  0.1749435E+03  0.7818608E-02  0.1172788E+00
         -2   -1    0    0    0  501 -0.00000000000E+00  0.00000000000E+00  0.17147211044E+02  0.17147211044E+02  0.00000000000E+00 0.  1.
          2   -1    0    0  502    0  0.00000000000E+00 -0.00000000000E+00 -0.18476148839E+04  0.18476148839E+04  0.00000000000E+00 0. -1.
          6    2    1    2  502    0 -0.28955672389E+02 -0.21415147558E+02 -0.74950478603E+03  0.76992266842E+03  0.17241360606E+03 0.  0.
         24    2    3    3    0    0  0.14224768961E+02 -0.60288325345E+02 -0.30395175822E+03  0.32057284361E+03  0.80890361037E+02 0.  0.
         -6    2    1    2    0  501  0.28955672389E+02  0.21415147558E+02 -0.10809628868E+04  0.10948394265E+04  0.16998696324E+03 0.  0.
        -24    2    5    5    0    0  0.47287583179E+02  0.46456080644E+02 -0.10275416898E+04  0.10328795881E+04  0.81265222175E+02 0.  0.
          5    1    3    3  502    0 -0.43180441351E+02  0.38873177787E+02 -0.44555302781E+03  0.44934982481E+03  0.47000000000E+01 0. -1.
        -13    1    4    4    0    0  0.18587534557E+02  0.19228078242E+01 -0.18789071077E+03  0.18881767084E+03  0.00000000000E+00 0.  1.
         14    1    4    4    0    0 -0.43627655952E+01 -0.62211133169E+02 -0.11606104746E+03  0.13175517277E+03  0.00000000000E+00 0. -1.
         -5    1    5    5    0  501 -0.18331910790E+02 -0.25040933087E+02 -0.53421197024E+02  0.61959838400E+02  0.47000000000E+01 0.  1.
         13    1    6    6    0    0 -0.22501137858E+02  0.14218315832E+02 -0.34412065274E+03  0.34514849753E+03  0.00000000000E+00 0. -1.
        -14    1    6    6    0    0  0.69788721037E+02  0.32237764812E+02 -0.68342103707E+03  0.68773109060E+03  0.00000000000E+00 0.  1.
</event>
<event>
12    1  0.2689284E-002  0.2673634E+03  0.7818608E-02  0.1102798E+00
         -2   -1    0    0    0  501 -0.00000000000E+00  0.00000000000E+00  0.42216516502E+02  0.42216516502E+02  0.00000000000E+00 0.  1.
          2   -1    0    0  502    0  0.00000000000E+00 -0.00000000000E+00 -0.17069571832E+04  0.17069571832E+04  0.00000000000E+00 0. -1.
          6    2    1    2  502    0 -0.18360424773E+03  0.88901838927E+02 -0.91018804692E+03  0.94859407767E+03  0.17255256208E+03 0.  0.
         24    2    3    3    0    0 -0.89585496750E+02  0.11111525376E+03 -0.65285599237E+03  0.67368529710E+03  0.85198426682E+02 0.  0.
         -6    2    1    2    0  501  0.18360424773E+03 -0.88901838927E+02 -0.75455261982E+03  0.80057962208E+03  0.17310117984E+03 0.  0.
        -24    2    5    5    0    0  0.77111672227E+02 -0.47026375031E+02 -0.57565854413E+03  0.58816633758E+03  0.79994945426E+02 0.  0.
          5    1    3    3  502    0 -0.94018750977E+02 -0.22213414832E+02 -0.25733205455E+03  0.27490878057E+03  0.47000000000E+01 0. -1.
        -13    1    4    4    0    0 -0.75996371618E+02  0.81451510348E+02 -0.31237118527E+03  0.33164070079E+03  0.00000000000E+00 0.  1.
         14    1    4    4    0    0 -0.13589125132E+02  0.29663743411E+02 -0.34048480711E+03  0.34204459631E+03  0.00000000000E+00 0. -1.
         -5    1    5    5    0  501  0.10649257550E+03 -0.41875463896E+02 -0.17889407569E+03  0.21241328450E+03  0.47000000000E+01 0.  1.
         13    1    6    6    0    0  0.79106535642E+01 -0.26198901598E+02 -0.35331307932E+03  0.35437140531E+03  0.00000000000E+00 0. -1.
        -14    1    6    6    0    0  0.69201018663E+02 -0.20827473433E+02 -0.22234546481E+03  0.23379493227E+03  0.00000000000E+00 0.  1.
</event>
<event>
12    1  0.2689284E-002  0.1992001E+03  0.7818608E-02  0.1150416E+00
         -2   -1    0    0    0  501 -0.00000000000E+00  0.00000000000E+00  0.34991804795E+02  0.34991804795E+02  0.00000000000E+00 0.  1.
          2   -1    0    0  502    0  0.00000000000E+00 -0.00000000000E+00 -0.12138983552E+04  0.12138983552E+04  0.00000000000E+00 0. -1.
          6    2    1    2  502    0 -0.35476504636E+02 -0.83497043130E+02 -0.41764179111E+03  0.46085306236E+03  0.17242546449E+03 0.  0.
         24    2    3    3    0    0  0.39541827092E+02 -0.18196884522E+02 -0.14160558283E+03  0.16740811165E+03  0.77965710814E+02 0.  0.
         -6    2    1    2    0  501  0.35476504636E+02  0.83497043130E+02 -0.76126475925E+03  0.78803709759E+03  0.18234060141E+03 0.  0.
        -24    2    5    5    0    0 -0.32044288994E+02  0.60491946265E+02 -0.26859452846E+03  0.29020746975E+03  0.85972337189E+02 0.  0.
          5    1    3    3  502    0 -0.75018331727E+02 -0.65300158608E+02 -0.27603620828E+03  0.29344495070E+03  0.47000000000E+01 0. -1.
        -11    1    4    4    0    0 -0.17387623479E+02 -0.15663552270E+02 -0.13065878029E+02  0.26802863441E+02  0.00000000000E+00 0.  1.
         12    1    4    4    0    0  0.56929450570E+02 -0.25333322518E+01 -0.12853970480E+03  0.14060524821E+03  0.00000000000E+00 0. -1.
         -5    1    5    5    0  501  0.67520793630E+02  0.23005096865E+02 -0.49267023078E+03  0.49782962784E+03  0.47000000000E+01 0.  1.
         13    1    6    6    0    0 -0.55610896185E+01 -0.14168247506E+02 -0.67647630837E+01  0.16656139250E+02  0.00000000000E+00 0. -1.
        -14    1    6    6    0    0 -0.26483199375E+02  0.74660193771E+02 -0.26182976538E+03  0.27355133051E+03  0.00000000000E+00 0.  1.
</event>
<event>
12    1  0.2689284E-002  0.2008712E+03  0.7818608E-02  0.1149006E+00
         -1   -1    0    0    0  501 -0.00000000000E+00  0.00000000000E+00  0.58645536078E+03  0.58645536078E+03  0.00000000000E+00 0. -1.
          1   -1    0    0  502    0  0.00000000000E+00 -0.00000000000E+00 -0.16654207107E+03  0.16654207107E+03  0.00000000000E+00 0.  1.
          6    2    1    2  502    0  0.48545824198E+02  0.92601550826E+02  0.49844320138E+03  0.53744673856E+03  0.17167302504E+03 0.  0.
         24    2    3    3    0    0  0.44462688633E+02  0.32021583100E+02  0.12073252871E+03  0.15485812564E+03  0.80014893141E+02 0.  0.
         -6    2    1    2    0  501 -0.48545824198E+02 -0.92601550826E+02 -0.78529911664E+02  0.21555069329E+03  0.17135755043E+03 0.  0.
        -24    2    5    5    0    0 -0.64022369711E+02 -0.17863620646E+02  0.28147030043E+01  0.10390698320E+03  0.79817077357E+02 0.  0.
          5    1    3    3  502    0  0.40831355648E+01  0.60579967726E+02  0.37771067267E+03  0.38258861292E+03  0.47000000000E+01 0. -1.
        -11    1    4    4    0    0  0.47246340389E+02  0.22831114885E+01  0.11513067929E+03  0.12446888202E+03  0.00000000000E+00 0.  1.
         12    1    4    4    0    0 -0.27836517558E+01  0.29738471612E+02  0.56018494191E+01  0.30389243620E+02  0.00000000000E+00 0. -1.
         -5    1    5    5    0  501  0.15476545513E+02 -0.74737930181E+02 -0.81344614668E+02  0.11164371010E+03  0.47000000000E+01 0.  1.
         13    1    6    6    0    0 -0.47933756201E+02 -0.45312133555E+02 -0.14713597475E+02  0.67581982669E+02  0.00000000000E+00 0. -1.
        -14    1    6    6    0    0 -0.16088613511E+02  0.27448512909E+02  0.17528300479E+02  0.36325000527E+02  0.00000000000E+00 0.  1.
</event>
<event>
12    1  0.2689284E-002  0.1788404E+03  0.7818608E-02  0.1168930E+00
         -2   -1    0    0    0  501 -0.00000000000E+00  0.00000000000E+00  0.72205378462E+02  0.72205378462E+02  0.00000000000E+00 0.  1.
          2   -1    0    0  502    0  0.00000000000E+00 -0.00000000000E+00 -0.45568977574E+03  0.45568977574E+03  0.00000000000E+00 0. -1.
          6    2    1    2  502    0 -0.80709858986E+01 -0.50503920501E+02 -0.23546127993E+03  0.29544838304E+03  0.17097352396E+03 0.  0.
         24    2    3    3    0    0 -0.48952675160E+02  0.19849352734E+02 -0.81329508422E+02  0.12109360518E+03  0.72517660381E+02 0.  0.
         -6    2    1    2    0  501  0.80709858986E+01  0.50503920501E+02 -0.14802311734E+03  0.23244677116E+03  0.17176982085E+03 0.  0.
        -24    2    5    5    0    0 -0.22444437044E+02  0.82809199811E+00 -0.15308007090E+03  0.17373951646E+03  0.79040957631E+02 0.  0.
          5    1    3    3  502    0  0.40881689262E+02 -0.70353273235E+02 -0.15413177151E+03  0.17435477786E+03  0.47000000000E+01 0. -1.
        -13    1    4    4    0    0 -0.15725694633E+01 -0.23710364993E+02 -0.32722316468E+02  0.40440133257E+02  0.00000000000E+00 0.  1.
         14    1    4    4    0    0 -0.47380105697E+02  0.43559717727E+02 -0.48607191954E+02  0.80653471927E+02  0.00000000000E+00 0. -1.
         -5    1    5    5    0  501  0.30515422943E+02  0.49675828503E+02  0.50569535574E+01  0.58707254697E+02  0.47000000000E+01 0.  1.
         13    1    6    6    0    0 -0.10261166590E+02  0.20074681505E+02 -0.14887951887E+03  0.15057687576E+03  0.00000000000E+00 0. -1.
        -14    1    6    6    0    0 -0.12183270454E+02 -0.19246589507E+02 -0.42005520309E+01  0.23162640695E+02  0.00000000000E+00 0.  1.
</event>
<event>
12    1  0.2689284E-002  0.1939790E+03  0.7818608E-02  0.1154921E+00
          2   -1    0    0  502    0  0.00000000000E+00  0.00000000000E+00  0.61524971361E+02  0.61524971361E+02  0.00000000000E+00 0. -1.
         -2   -1    0    0    0  501 -0.00000000000E+00 -0.00000000000E+00 -0.64077023647E+03  0.64077023647E+03  0.00000000000E+00 0.  1.
          6    2    1    2  502    0 -0.33111149701E+02  0.80868633068E+02 -0.20623500441E+03  0.27872561673E+03  0.16588854189E+03 0.  0.
         24    2    3    3    0    0 -0.25649882282E+02 -0.18654231583E+02 -0.73134853129E+02  0.11229782046E+03  0.79096124566E+02 0.  0.
         -6    2    1    2    0  501  0.33111149701E+02 -0.80868633068E+02 -0.37301026069E+03  0.42356959110E+03  0.18066117422E+03 0.  0.
        -24    2    5    5    0    0  0.41459094871E+02 -0.64265208840E+02 -0.10064058702E+03  0.15052620439E+03  0.81735774531E+02 0.  0.
          5    1    3    3  502    0 -0.74612674186E+01  0.99522864651E+02 -0.13310015128E+03  0.16642779627E+03  0.47000000000E+01 0. -1.
        -11    1    4    4    0    0  0.12464674885E+02 -0.33152587783E+02 -0.94184441095E+01  0.36649274020E+02  0.00000000000E+00 0.  1.
         12    1    4    4    0    0 -0.38114557167E+02  0.14498356200E+02 -0.63716409020E+02  0.75648546443E+02  0.00000000000E+00 0. -1.
         -5    1    5    5    0  501 -0.83479451703E+01 -0.16603424228E+02 -0.27236967368E+03  0.27304338671E+03  0.47000000000E+01 0.  1.
         11    1    6    6    0    0  0.53917078313E+02 -0.20202247018E+02 -0.26495654320E+02  0.63381399608E+02  0.00000000000E+00 0. -1.
        -12    1    6    6    0    0 -0.12457983442E+02 -0.44062961821E+02 -0.74144932696E+02  0.87144804782E+02  0.00000000000E+00 0.  1.
</event>
<event>
12    1  0.2689284E-002  0.1922155E+03  0.7818608E-02  0.1156478E+00
         -2   -1    0    0    0  501 -0.00000000000E+00  0.00000000000E+00  0.23461194876E+02  0.23461194876E+02  0.00000000000E+00 0. -1.
          2   -1    0    0  502    0  0.00000000000E+00 -0.00000000000E+00 -0.17825241050E+04  0.17825241050E+04  0.00000000000E+00 0.  1.
          6    2    1    2  502    0 -0.31320997904E+02 -0.77816381184E+02 -0.56961482132E+03  0.60104012559E+03  0.17248708302E+03 0.  0.
         24    2    3    3    0    0 -0.47491768645E+02 -0.11501232783E+03 -0.47946335536E+03  0.50207341862E+03  0.81910346789E+02 0.  0.
         -6    2    1    2    0  501  0.31320997904E+02  0.77816381184E+02 -0.11894480888E+04  0.12049451743E+04  0.17340623689E+03 0.  0.
        -24    2    5    5    0    0 -0.25595761131E+02  0.88182046402E+01 -0.35398510412E+03  0.36469476244E+03  0.83450057492E+02 0.  0.
          5    1    3    3  502    0  0.16170770741E+02  0.37195946644E+02 -0.90151465957E+02  0.98966706964E+02  0.47000000000E+01 0. -1.
        -13    1    4    4    0    0 -0.24803755608E+02 -0.99659347335E+02 -0.45109149961E+03  0.46263457807E+03  0.00000000000E+00 0.  1.
         14    1    4    4    0    0 -0.22688013036E+02 -0.15352980493E+02 -0.28371855755E+02  0.39438840558E+02  0.00000000000E+00 0. -1.
         -5    1    5    5    0  501  0.56916759035E+02  0.68998176544E+02 -0.83546298469E+03  0.84025041185E+03  0.47000000000E+01 0.  1.
         13    1    6    6    0    0  0.15569618854E+02 -0.18724623650E+02 -0.40019656233E+02  0.46846530790E+02  0.00000000000E+00 0. -1.
        -14    1    6    6    0    0 -0.41165379985E+02  0.27542828290E+02 -0.31396544789E+03  0.31784823165E+03  0.00000000000E+00 0.  1.
</event>
<event>
12    1  0.2689284E-002  0.1972805E+03  0.7818608E-02  0.1152054E+00
         -2   -1    0    0    0  501 -0.00000000000E+00  0.00000000000E+00  0.19025139030E+04  0.19025139030E+04  0.00000000000E+00 0. -1.
          2   -1    0    0  502    0  0.00000000000E+00 -0.00000000000E+00 -0.38715089409E+02  0.38715089409E+02  0.00000000000E+00 0.  1.
          6    2    1    2  502    0  0.81626136382E+02  0.50588806269E+02  0.15951582390E+04  0.16071514634E+04  0.17083315074E+03 0.  0.
         24    2    3    3    0    0  0.29130744167E+01  0.73554660434E+01  0.37776223339E+03  0.38643856009E+03  0.81042376967E+02 0.  0.
         -6    2    1    2    0  501 -0.81626136382E+02 -0.50588806269E+02  0.26864057463E+03  0.33407752905E+03  0.17383320632E+03 0.  0.
        -24    2    5    5    0    0  0.23640009576E+02 -0.25489327692E+02  0.92198522944E+02  0.12703928883E+03  0.80186391583E+02 0.  0.
          5    1    3    3  502    0  0.78713061965E+02  0.43233340226E+02  0.12173960056E+04  0.12207129033E+04  0.47000000000E+01 0. -1.
        -13    1    4    4    0    0  0.35591107425E+02 -0.17941494711E+02  0.20045056855E+03  0.20437478952E+03  0.00000000000E+00 0.  1.
         14    1    4    4    0    0 -0.32678033008E+02  0.25296960754E+02  0.17731166484E+03  0.18206377057E+03  0.00000000000E+00 0. -1.
         -5    1    5    5    0  501 -0.10526614596E+03 -0.25099478577E+02  0.17644205169E+03  0.20703824022E+03  0.47000000000E+01 0.  1.
         11    1    6    6    0    0  0.48639018138E+01  0.26030041462E+02  0.54208929270E+02  0.60330992135E+02  0.00000000000E+00 0. -1.
        -12    1    6    6    0    0  0.18776107762E+02 -0.51519369155E+02  0.37989593674E+02  0.66708296698E+02  0.00000000000E+00 0.  1.
</event>
<event>
12    1  0.2689284E-002  0.2707438E+03  0.7818608E-02  0.1100855E+00
         -2   -1    0    0    0  501 -0.00000000000E+00  0.00000000000E+00  0.27649969655E+03  0.27649969655E+03  0.00000000000E+00 0. -1.
          2   -1    0    0  502    0  0.00000000000E+00 -0.00000000000E+00 -0.28056041091E+03  0.28056041091E+03  0.00000000000E+00 0.  1.
          6    2    1    2  502    0 -0.47211999609E+02  0.20387702910E+03 -0.67394904914E+02  0.27873524903E+03  0.17133724037E+03 0.  0.
         24    2    3    3    0    0 -0.90215416517E+00  0.52051799453E+02 -0.77126665125E+02  0.11963685400E+03  0.75194751499E+02 0.  0.
         -6    2    1    2    0  501  0.47211999609E+02 -0.20387702910E+03  0.63334190554E+02  0.27832485843E+03  0.17221698878E+03 0.  0.
        -24    2    5    5    0    0 -0.29788673479E+02 -0.15439343834E+03  0.61063591523E+02  0.18664620753E+03  0.79895842865E+02 0.  0.
          5    1    3    3  502    0 -0.46309845444E+02  0.15182522965E+03  0.97317602112E+01  0.15909839503E+03  0.47000000000E+01 0. -1.
        -13    1    4    4    0    0 -0.33032528001E+02  0.48941971715E+02 -0.46777613819E+02  0.75330005018E+02  0.00000000000E+00 0.  1.
         14    1    4    4    0    0  0.32130373836E+02  0.31098277380E+01 -0.30349051306E+02  0.44306848980E+02  0.00000000000E+00 0. -1.
         -5    1    5    5    0  501  0.77000673087E+02 -0.49483590768E+02  0.22705990309E+01  0.91678650902E+02  0.47000000000E+01 0.  1.
         11    1    6    6    0    0 -0.33872592761E+01 -0.43365064829E+02  0.57977486825E+02  0.72480282502E+02  0.00000000000E+00 0. -1.
        -12    1    6    6    0    0 -0.26401414203E+02 -0.11102837351E+03  0.30861046984E+01  0.11416592503E+03  0.00000000000E+00 0.  1.
</event>
<event>
12    1  0.2689284E-002  0.1753119E+03  0.7818608E-02  0.1172419E+00
         -2   -1    0    0    0  501 -0.00000000000E+00  0.00000000000E+00  0.26996416085E+04  0.26996416085E+04  0.00000000000E+00 0. -1.
          2   -1    0    0  502    0  0.00000000000E+00 -0.00000000000E+00 -0.12739606182E+02  0.12739606182E+02  0.00000000000E+00 0.  1.
          6    2    1    2  502    0 -0.24694578892E+02  0.30476891762E+02  0.90614580097E+03  0.92308693296E+03  0.17161180037E+03 0.  0.
         24    2    3    3    0    0  0.54878924863E+01  0.77859390944E+02  0.71715511106E+03  0.72586712240E+03  0.80494871446E+02 0.  0.
         -6    2    1    2    0  501  0.24694578892E+02 -0.30476891762E+02  0.17807562013E+04  0.17892942817E+04  0.17012558541E+03 0.  0.
        -24    2    5    5    0    0 -0.19871959894E+02 -0.48329440104E+02  0.15756272035E+04  0.15785696139E+04  0.80933997908E+02 0.  0.
          5    1    3    3  502    0 -0.30182471378E+02 -0.47382499182E+02  0.18899068990E+03  0.19721981056E+03  0.47000000000E+01 0. -1.
        -13    1    4    4    0    0 -0.14046439327E+02  0.34047098231E+02  0.95376201837E+02  0.10224053615E+03  0.00000000000E+00 0.  1.
         14    1    4    4    0    0  0.19534331813E+02  0.43812292713E+02  0.62177890923E+03  0.62362658624E+03  0.00000000000E+00 0. -1.
         -5    1    5    5    0  501  0.44566538786E+02  0.17852548342E+02  0.20512899783E+03  0.21072466778E+03  0.47000000000E+01 0.  1.
         11    1    6    6    0    0 -0.51769855980E+01  0.19303227221E+02  0.67146368710E+03  0.67176104297E+03  0.00000000000E+00 0. -1.
        -12    1    6    6    0    0 -0.14694974296E+02 -0.67632667325E+02  0.90416351638E+03  0.90680857093E+03  0.00000000000E+00 0.  1.
</event>
<event>
12    1  0.2689284E-002  0.2378370E+03  0.7818608E-02  0.1121242E+00
         -1   -1    0    0    0  501 -0.00000000000E+00  0.00000000000E+00  0.79251013957E+02  0.79251013957E+02  0.00000000000E+00 0.  1.
          1   -1    0    0  502    0  0.00000000000E+00 -0.00000000000E+00 -0.11596093046E+04  0.11596093046E+04  0.00000000000E+00 0. -1.
          6    2    1    2  502    0  0.77392877812E+02 -0.14465903070E+03 -0.92427598753E+03  0.95438780655E+03  0.17220363376E+03 0.  0.
         24    2    3    3    0    0  0.38648500687E+02 -0.13931129168E+03 -0.87944626758E+03  0.89470934426E+03  0.78598540368E+02 0.  0.
         -6    2    1    2    0  501 -0.77392877812E+02  0.14465903070E+03 -0.15608230313E+03  0.28447251202E+03  0.17218313519E+03 0.  0.
        -24    2    5    5    0    0 -0.47448014591E+02  0.13171901531E+03 -0.18179230920E+03  0.24267259284E+03  0.78995762843E+02 0.  0.
          5    1    3    3  502    0  0.38744377124E+02 -0.53477390278E+01 -0.44829719941E+02  0.59678462291E+02  0.47000000000E+01 0. -1.
        -13    1    4    4    0    0 -0.16679464292E+02 -0.83193042136E+02 -0.50253028107E+03  0.50964298306E+03  0.00000000000E+00 0.  1.
         14    1    4    4    0    0  0.55327964979E+02 -0.56118249541E+02 -0.37691598652E+03  0.38506636120E+03  0.00000000000E+00 0. -1.
         -5    1    5    5    0  501 -0.29944863221E+02  0.12940015397E+02  0.25710006067E+02  0.41799919184E+02  0.47000000000E+01 0.  1.
         11    1    6    6    0    0 -0.43588365552E+02  0.19487283404E+02 -0.44133334896E+02  0.65018851690E+02  0.00000000000E+00 0. -1.
        -12    1    6    6    0    0 -0.38596490382E+01  0.11223173190E+03 -0.13765897430E+03  0.17765374115E+03  0.00000000000E+00 0.  1.
</event>
<event>
12    1  0.2689284E-002  0.2016367E+03  0.7818608E-02  0.1148365E+00
          2   -1    0    0  502    0  0.00000000000E+00  0.00000000000E+00  0.21484110241E+03  0.21484110241E+03  0.00000000000E+00 0.  1.
         -2   -1    0    0    0  501 -0.00000000000E+00 -0.00000000000E+00 -0.21358177876E+03  0.21358177876E+03  0.00000000000E+00 0. -1.
          6    2    1    2  502    0 -0.79411111695E+02 -0.75150223806E+02 -0.71675657358E+02  0.21462827888E+03  0.17021814661E+03 0.  0.
         24    2    3    3    0    0  0.13042503605E+02 -0.30640670049E+02 -0.71552818696E+02  0.11191081957E+03  0.79342725635E+02 0.  0.
         -6    2    1    2    0  501  0.79411111695E+02  0.75150223806E+02  0.72934981011E+02  0.21379460229E+03  0.16862662813E+03 0.  0.
        -24    2    5    5    0    0  0.74098475097E+02 -0.94129555142E+01  0.76525044742E+02  0.12885854421E+03  0.71897525695E+02 0.  0.
          5    1    3    3  502    0 -0.92453615300E+02 -0.44509553757E+02 -0.12283866266E+00  0.10271745931E+03  0.47000000000E+01 0. -1.
        -11    1    4    4    0    0  0.26375987031E+01  0.21938527365E+02  0.50776504488E+00  0.22102346826E+02  0.00000000000E+00 0.  1.
         12    1    4    4    0    0  0.10404904902E+02 -0.52579197415E+02 -0.72060583741E+02  0.89808472740E+02  0.00000000000E+00 0. -1.
         -5    1    5    5    0  501  0.53126365979E+01  0.84563179320E+02 -0.35900637310E+01  0.84936058079E+02  0.47000000000E+01 0.  1.
         11    1    6    6    0    0  0.14859800355E+02  0.46382238638E+01 -0.13212051864E+02  0.20417764365E+02  0.00000000000E+00 0. -1.
        -12    1    6    6    0    0  0.59238674742E+02 -0.14051179378E+02  0.89737096606E+02  0.10844077985E+03  0.00000000000E+00 0.  1.
</event>
<event>
12    1  0.2689284E-002  0.2103448E+03  0.7818608E-02  0.1141293E+00
          1   -1    0    0  502    0  0.00000000000E+00  0.00000000000E+00  0.22602730477E+03  0.22602730477E+03  0.00000000000E+00 0. -1.
         -1   -1    0    0    0  501 -0.00000000000E+00 -0.00000000000E+00 -0.33199813523E+03  0.33199813523E+03  0.00000000000E+00 0.  1.
          6    2    1    2  502    0 -0.44662455573E+02 -0.11343627840E+03  0.12566306753E+03  0.24554164345E+03  0.17215390770E+03 0.  0.
         24    2    3    3    0    0 -0.26738355923E+02 -0.96620266125E+02  0.10780682551E+02  0.12796569356E+03  0.78794543641E+02 0.  0.
         -6    2    1    2    0  501  0.44662455573E+02  0.11343627840E+03 -0.23163389798E+03  0.31248379655E+03  0.17067318540E+03 0.  0.
        -24    2    5    5    0    0  0.12901067646E+01  0.50105268875E+02 -0.21381611354E+03  0.23354368728E+03  0.79455151591E+02 0.  0.
          5    1    3    3  502    0 -0.17924099650E+02 -0.16816012272E+02  0.11488238497E+03  0.11757594990E+03  0.47000000000E+01 0. -1.
        -13    1    4    4    0    0  0.28183497055E+02 -0.35775426837E+02  0.36078035668E+01  0.45685959749E+02  0.00000000000E+00 0.  1.
         14    1    4    4    0    0 -0.54921852978E+02 -0.60844839288E+02  0.71728789847E+01  0.82279733807E+02  0.00000000000E+00 0. -1.
         -5    1    5    5    0  501  0.43372348808E+02  0.63331009522E+02 -0.17817784437E+02  0.78940109263E+02  0.47000000000E+01 0.  1.
         11    1    6    6    0    0 -0.36154114433E+02  0.13763151972E+02 -0.12138884924E+03  0.12740407004E+03  0.00000000000E+00 0. -1.
        -12    1    6    6    0    0  0.37444221198E+02  0.36342116903E+02 -0.92427264304E+02  0.10613961724E+03  0.00000000000E+00 0.  1.
</event>
<event>
12    1  0.2689284E-002  0.1809549E+03  0.7818608E-02  0.1166882E+00
          2   -1    0    0  502    0  0.00000000000E+00  0.00000000000E+00  0.24319094243E+03  0.24319094243E+03  0.00000000000E+00 0.  1.
         -2   -1    0    0    0  501 -0.00000000000E+00 -0.00000000000E+00 -0.14138565182E+03  0.14138565182E+03  0.00000000000E+00 0. -1.
          6    2    1    2  502    0 -0.54423100585E+02  0.15539596604E+02  0.90330910788E+01  0.18159399364E+03  0.17231201018E+03 0.  0.
         24    2    3    3    0    0 -0.36483260733E+02  0.42597850155E+02  0.66466678706E+02  0.11545252460E+03  0.75933266145E+02 0.  0.
         -6    2    1    2    0  501  0.54423100585E+02 -0.15539596604E+02  0.92772199522E+02  0.20298260061E+03  0.17144066672E+03 0.  0.
        -24    2    5    5    0    0  0.28573558597E+02  0.44474521644E+02  0.98390422151E+02  0.13722891147E+03  0.79728712799E+02 0.  0.
          5    1    3    3  502    0 -0.17939839852E+02 -0.27058253551E+02 -0.57433587627E+02  0.66141469041E+02  0.47000000000E+01 0. -1.
        -11    1    4    4    0    0  0.23276652561E+02  0.51810181095E+01  0.15230364243E+02  0.28295043702E+02  0.00000000000E+00 0.  1.
         12    1    4    4    0    0 -0.59759913294E+02  0.37416832045E+02  0.51236314463E+02  0.87157480901E+02  0.00000000000E+00 0. -1.
         -5    1    5    5    0  501  0.25849541988E+02 -0.60014118247E+02 -0.56182226289E+01  0.65753689140E+02  0.47000000000E+01 0.  1.
         13    1    6    6    0    0  0.55705219731E+02  0.29320558719E+02  0.53400409987E+02  0.82549200212E+02  0.00000000000E+00 0. -1.
        -14    1    6    6    0    0 -0.27131661134E+02  0.15153962924E+02  0.44990012164E+02  0.54679711253E+02  0.00000000000E+00 0.  1.
</event>
<event>
12    1  0.2689284E-002  0.1991695E+03  0.7818608E-02  0.1150442E+00
         -1   -1    0    0    0  501 -0.00000000000E+00  0.00000000000E+00  0.51069707677E+03  0.51069707677E+03  0.00000000000E+00 0.  1.
          1   -1    0    0  502    0  0.00000000000E+00 -0.00000000000E+00 -0.78383601237E+02  0.78383601237E+02  0.00000000000E+00 0. -1.
          6    2    1    2  502    0 -0.50970205175E+02 -0.90713810494E+02  0.18441507909E+03  0.26847817961E+03  0.16505954774E+03 0.  0.
         24    2    3    3    0    0 -0.67440338624E+02 -0.35433045737E+02  0.17215929481E+03  0.20932141756E+03  0.91503732475E+02 0.  0.
         -6    2    1    2    0  501  0.50970205175E+02  0.90713810494E+02  0.24789839644E+03  0.32060249840E+03  0.17465792220E+03 0.  0.
        -24    2    5    5    0    0 -0.26527376558E+02  0.72344249124E+02  0.87482465486E+02  0.14144146227E+03  0.80094403016E+02 0.  0.
          5    1    3    3  502    0  0.16470133450E+02 -0.55280764757E+02  0.12255784283E+02  0.59156762052E+02  0.47000000000E+01 0. -1.
        -11    1    4    4    0    0  0.20269059736E+02 -0.66260280742E+01  0.12024628429E+02  0.24481231985E+02  0.00000000000E+00 0.  1.
         12    1    4    4    0    0 -0.87709398361E+02 -0.28807017663E+02  0.16013466638E+03  0.18484018558E+03  0.00000000000E+00 0. -1.
         -5    1    5    5    0  501  0.77497581733E+02  0.18369561370E+02  0.16041593096E+03  0.17916103612E+03  0.47000000000E+01 0.  1.
         11    1    6    6    0    0 -0.36915652936E+02  0.69952542020E+01  0.57754972090E+02  0.68900913014E+02  0.00000000000E+00 0. -1.
        -12    1    6    6    0    0  0.10388276378E+02  0.65348994922E+02  0.29727493396E+02  0.72540549261E+02  0.00000000000E+00 0.  1.
</event>
<event>
12    1  0.2689284E-002  0.1784761E+03  0.7818608E-02  0.1169286E+00
         -1   -1    0    0    0  501 -0.00000000000E+00  0.00000000000E+00  0.29091381342E+02  0.29091381342E+02  0.00000000000E+00 0.  1.
          1   -1    0    0  502    0  0.00000000000E+00 -0.00000000000E+00 -0.11660377268E+04  0.11660377268E+04  0.00000000000E+00 0. -1.
          6    2    1    2  502    0  0.97005678138E+01  0.23532454641E+02 -0.40454588272E+03  0.43984852376E+03  0.17076731301E+03 0.  0.
         24    2    3    3    0    0 -0.53369984435E+02  0.33793135804E+02 -0.30702832351E+03  0.32316544662E+03  0.78607780662E+02 0.  0.
         -6    2    1    2    0  501 -0.97005678138E+01 -0.23532454641E+02 -0.73240046278E+03  0.75528058442E+03  0.18273052806E+03 0.  0.
        -24    2    5    5    0    0 -0.69101920993E+02  0.68863571872E+01 -0.54086016651E+03  0.55239243797E+03  0.88233714732E+02 0.  0.
          5    1    3    3  502    0  0.63070552249E+02 -0.10260681163E+02 -0.97517559206E+02  0.11668307715E+03  0.47000000000E+01 0. -1.
        -13    1    4    4    0    0 -0.63835798675E+02  0.15642508239E+02 -0.13809320262E+03  0.15293603194E+03  0.00000000000E+00 0.  1.
         14    1    4    4    0    0  0.10465814239E+02  0.18150627565E+02 -0.16893512089E+03  0.17022941467E+03  0.00000000000E+00 0. -1.
         -5    1    5    5    0  501  0.59401353179E+02 -0.30418811829E+02 -0.19154029627E+03  0.20288814644E+03  0.47000000000E+01 0.  1.
         11    1    6    6    0    0  0.63396748288E+01 -0.13615002757E+02 -0.27154256079E+03  0.27195757407E+03  0.00000000000E+00 0. -1.
        -12    1    6    6    0    0 -0.75441595822E+02  0.20501359944E+02 -0.26931760572E+03  0.28043486390E+03  0.00000000000E+00 0.  1.
</event>
<event>
12    1  0.2689284E-002  0.1788224E+03  0.7818608E-02  0.1168948E+00
          2   -1    0    0  502    0  0.00000000000E+00  0.00000000000E+00  0.56885417561E+03  0.56885417561E+03  0.00000000000E+00 0.  1.
         -2   -1    0    0    0  501 -0.00000000000E+00 -0.00000000000E+00 -0.73062762002E+02  0.73062762002E+02  0.00000000000E+00 0. -1.
          6    2    1    2  502    0 -0.92478528610E+01  0.44612402082E+02  0.93660469926E+02  0.20177823499E+03  0.17281893208E+03 0.  0.
         24    2    3    3    0    0  0.63232521555E+00  0.66181344063E+02  0.12485387406E+03  0.16230728822E+03  0.79842318383E+02 0.  0.
         -6    2    1    2    0  501  0.92478528610E+01 -0.44612402082E+02  0.40213094368E+03  0.44013870263E+03  0.17302309812E+03 0.  0.
        -24    2    5    5    0    0 -0.59173053141E+02 -0.26317867969E+02  0.22492846179E+03  0.24924889162E+03  0.85662807914E+02 0.  0.
          5    1    3    3  502    0 -0.98801780766E+01 -0.21568941981E+02 -0.31193404134E+02  0.39470946764E+02  0.47000000000E+01 0. -1.
        -11    1    4    4    0    0 -0.35856358908E+02  0.34401600983E+02  0.89539097792E+02  0.10240311840E+03  0.00000000000E+00 0.  1.
         12    1    4    4    0    0  0.36488684123E+02  0.31779743080E+02  0.35314776268E+02  0.59904169822E+02  0.00000000000E+00 0. -1.
         -5    1    5    5    0  501  0.68420906002E+02 -0.18294534113E+02  0.17720248189E+03  0.19088981100E+03  0.47000000000E+01 0.  1.
         11    1    6    6    0    0 -0.35047098825E+02  0.29930443248E+02  0.91439225015E+02  0.10239757048E+03  0.00000000000E+00 0. -1.
        -12    1    6    6    0    0 -0.24125954316E+02 -0.56248311217E+02  0.13348923678E+03  0.14685132114E+03  0.00000000000E+00 0.  1.
</event>
<event>
12    1  0.2689284E-002  0.2102801E+03  0.7818608E-02  0.1141344E+00
          2   -1    0    0  502    0  0.00000000000E+00  0.00000000000E+00  0.16568165754E+04  0.16568165754E+04  0.00000000000E+00 0.  1.
         -2   -1    0    0    0  501 -0.00000000000E+00 -0.00000000000E+00 -0.27339331190E+02  0.27339331190E+02  0.00000000000E+00 0. -1.
          6    2    1    2  502    0  0.17578306217E+02 -0.11255536821E+03  0.67246809135E+03  0.70356360866E+03  0.17265778226E+03 0.  0.
         24    2    3    3    0    0  0.63637347219E+02 -0.63649123324E+02  0.27043363435E+03  0.29592767959E+03  0.79611042573E+02 0.  0.
         -6    2    1    2    0  501 -0.17578306217E+02  0.11255536821E+03  0.95700915284E+03  0.98059229792E+03  0.18087849057E+03 0.  0.
        -24    2    5    5    0    0 -0.71227560861E+02  0.11630843911E+03  0.64602861400E+03  0.66496068733E+03  0.78858906609E+02 0.  0.
          5    1    3    3  502    0 -0.46059041002E+02 -0.48906244890E+02  0.40203445701E+03  0.40763592907E+03  0.47000000000E+01 0. -1.
        -13    1    4    4    0    0  0.62109916230E+02 -0.73517858975E+01  0.12046816008E+03  0.13573602338E+03  0.00000000000E+00 0.  1.
         14    1    4    4    0    0  0.15274309891E+01 -0.56297337427E+02  0.14996547427E+03  0.16019165621E+03  0.00000000000E+00 0. -1.
         -5    1    5    5    0  501  0.53649254644E+02 -0.37530708962E+01  0.31098053883E+03  0.31563161058E+03  0.47000000000E+01 0.  1.
         11    1    6    6    0    0 -0.58783818475E+02  0.22811319347E+02  0.24399328037E+03  0.25200915553E+03  0.00000000000E+00 0. -1.
        -12    1    6    6    0    0 -0.12443742386E+02  0.93497119763E+02  0.40203533364E+03  0.41295153181E+03  0.00000000000E+00 0.  1.
</event>
<event>
12    1  0.2689284E-002  0.2003893E+03  0.7818608E-02  0.1149411E+00
         -1   -1    0    0    0  501 -0.00000000000E+00  0.00000000000E+00  0.10595358155E+04  0.10595358155E+04  0.00000000000E+00 0. -1.
          1   -1    0    0  502    0  0.00000000000E+00 -0.00000000000E+00 -0.39610886873E+02  0.39610886873E+02  0.00000000000E+00 0.  1.
          6    2    1    2  502    0  0.97402779730E+02  0.36675981173E+02  0.39606026743E+03  0.44393029639E+03  0.17139995192E+03 0.  0.
         24    2    3    3    0    0  0.81039464382E+02 -0.82973324604E+01  0.12853193482E+03  0.17211444736E+03  0.80415696297E+02 0.  0.
         -6    2    1    2    0  501 -0.97402779730E+02 -0.36675981173E+02  0.62386466117E+03  0.65521640596E+03  0.17108183447E+03 0.  0.
        -24    2    5    5    0    0 -0.56754720206E+02 -0.89497348298E+02  0.44697306707E+03  0.46612624854E+03  0.79106784020E+02 0.  0.
          5    1    3    3  502    0  0.16363315347E+02  0.44973313634E+02  0.26752833261E+03  0.27181584902E+03  0.47000000000E+01 0. -1.
        -11    1    4    4    0    0  0.74742869828E+02  0.25893028463E+02  0.97151582683E+02  0.12528118586E+03  0.00000000000E+00 0.  1.
         12    1    4    4    0    0  0.62965945544E+01 -0.34190360923E+02  0.31380352132E+02  0.46833261503E+02  0.00000000000E+00 0. -1.
         -5    1    5    5    0  501 -0.40648059524E+02  0.52821367125E+02  0.17689159410E+03  0.18909015742E+03  0.47000000000E+01 0.  1.
         11    1    6    6    0    0 -0.40593103554E+02 -0.92857525213E+02  0.43236612784E+03  0.44408421335E+03  0.00000000000E+00 0. -1.
        -12    1    6    6    0    0 -0.16161616651E+02  0.33601769149E+01  0.14606939225E+02  0.22042035187E+02  0.00000000000E+00 0.  1.
</event>
<event>
12    1  0.2689284E-002  0.2724490E+03  0.7818608E-02  0.1099886E+00
         -2   -1    0    0    0  501 -0.00000000000E+00  0.00000000000E+00  0.21440648871E+03  0.21440648871E+03  0.00000000000E+00 0.  1.
          2   -1    0    0  502    0  0.00000000000E+00 -0.00000000000E+00 -0.35386752577E+03  0.35386752577E+03  0.00000000000E+00 0. -1.
          6    2    1    2  502    0  0.20850706594E+03 -0.32835465525E+02 -0.11165047735E+03  0.29484295965E+03  0.17295426396E+03 0.  0.
         24    2    3    3    0    0  0.14502985129E+03  0.22941141757E+02 -0.16285977158E+02  0.16734054949E+03  0.78598172382E+02 0.  0.
         -6    2    1    2    0  501 -0.20850706594E+03  0.32835465525E+02 -0.27810559707E+02  0.27343105483E+03  0.17157432841E+03 0.  0.
        -24    2    5    5    0    0 -0.15594406999E+03  0.84183430301E+02 -0.40332538225E+02  0.19874255521E+03  0.80414468269E+02 0.  0.
          5    1    3    3  502    0  0.63477214647E+02 -0.55776607282E+02 -0.95364500191E+02  0.12750241016E+03  0.47000000000E+01 0. -1.
        -13    1    4    4    0    0  0.92045005962E+02 -0.12939520469E+02 -0.37054751685E+02  0.10006382431E+03  0.00000000000E+00 0.  1.
         14    1    4    4    0    0  0.52984845329E+02  0.35880662226E+02  0.20768774527E+02  0.67276725186E+02  0.00000000000E+00 0. -1.
         -5    1    5    5    0  501 -0.52562995946E+02 -0.51347964776E+02  0.12521978518E+02  0.74688499620E+02  0.47000000000E+01 0.  1.
         13    1    6    6    0    0 -0.87158356987E+02  0.25002034497E+01 -0.26059992655E+02  0.91005238460E+02  0.00000000000E+00 0. -1.
        -14    1    6    6    0    0 -0.68785713005E+02  0.81683226851E+02 -0.14272545570E+02  0.10773731675E+03  0.00000000000E+00 0.  1.
</event>
<event>
12    1  0.2689284E-002  0.1756266E+03  0.7818608E-02  0.1172104E+00
          2   -1    0    0  502    0  0.00000000000E+00  0.00000000000E+00  0.12414241346E+04  0.12414241346E+04  0.00000000000E+00 0.  1.
         -2   -1    0    0    0  501 -0.00000000000E+00 -0.00000000000E+00 -0.49408680434E+02  0.49408680434E+02  0.00000000000E+00 0. -1.
          6    2    1    2  502    0 -0.48171027247E+02 -0.34916727856E+02  0.12911657666E+03  0.21228756554E+03  0.15765561952E+03 0.  0.
         24    2    3    3    0    0 -0.50786685267E+02 -0.76720377897E+00  0.12110607916E+02  0.90281342819E+02  0.73649019241E+02 0.  0.
         -6    2    1    2    0  501  0.48171027247E+02  0.34916727856E+02  0.10628988775E+04  0.10785452495E+04  0.17310749737E+03 0.  0.
        -24    2    5    5    0    0 -0.34282843459E+02  0.47479347567E+02  0.65854739834E+03  0.66565462364E+03  0.77342099255E+02 0.  0.
          5    1    3    3  502    0  0.26156580203E+01 -0.34149524077E+02  0.11700596874E+03  0.12200622272E+03  0.47000000000E+01 0. -1.
        -13    1    4    4    0    0 -0.18612570918E+02 -0.27238481064E+01  0.42189732295E+02  0.46193296655E+02  0.00000000000E+00 0.  1.
         14    1    4    4    0    0 -0.32174114349E+02  0.19566443274E+01 -0.30079124380E+02  0.44088046165E+02  0.00000000000E+00 0. -1.
         -5    1    5    5    0  501  0.82453870706E+02 -0.12562619712E+02  0.40435147916E+03  0.41289062584E+03  0.47000000000E+01 0.  1.
         13    1    6    6    0    0  0.78166292706E+01  0.14073527780E+02  0.24389255170E+02  0.29223272319E+02  0.00000000000E+00 0. -1.
        -14    1    6    6    0    0 -0.42099472730E+02  0.33405819788E+02  0.63415814317E+03  0.63643135132E+03  0.00000000000E+00 0.  1.
</event>
<event>
12    1  0.2689284E-002  0.2148642E+03  0.7818608E-02  0.1137771E+00
         -2   -1    0    0    0  501 -0.00000000000E+00  0.00000000000E+00  0.37086766087E+03  0.37086766087E+03  0.00000000000E+00 0.  1.
          2   -1    0    0  502    0  0.00000000000E+00 -0.00000000000E+00 -0.16618479937E+03  0.16618479937E+03  0.00000000000E+00 0. -1.
          6    2    1    2  502    0  0.90797510501E+02 -0.89893589280E+02  0.23704655523E+03  0.32029597839E+03  0.17341683632E+03 0.  0.
         24    2    3    3    0    0 -0.71531155029E+01  0.37315769992E+01  0.10541718186E+03  0.13132937068E+03  0.77907186088E+02 0.  0.
         -6    2    1    2    0  501 -0.90797510501E+02  0.89893589280E+02 -0.32363693728E+02  0.21675648186E+03  0.17207823351E+03 0.  0.
        -24    2    5    5    0    0 -0.18668798509E+02  0.34998523558E+02 -0.50736339180E+02  0.12415160383E+03  0.10614152783E+03 0.  0.
          5    1    3    3  502    0  0.97950626004E+02 -0.93625166279E+02  0.13162937337E+03  0.18896660771E+03  0.47000000000E+01 0. -1.
        -13    1    4    4    0    0  0.31779320091E+02  0.18154843287E+02  0.44656413290E+02  0.57738364786E+02  0.00000000000E+00 0.  1.
         14    1    4    4    0    0 -0.38932435594E+02 -0.14423266288E+02  0.60760768571E+02  0.73591005898E+02  0.00000000000E+00 0. -1.
         -5    1    5    5    0  501 -0.72128711992E+02  0.54895065722E+02  0.18372645452E+02  0.92604878031E+02  0.47000000000E+01 0.  1.
         13    1    6    6    0    0  0.81786702871E+00  0.62993931292E+02  0.19332491617E-01  0.62999243327E+02  0.00000000000E+00 0. -1.
        -14    1    6    6    0    0 -0.19486665538E+02 -0.27995407734E+02 -0.50755671671E+02  0.61152360500E+02  0.00000000000E+00 0.  1.
</event>
<event>
12    1  0.2689284E-002  0.1977697E+03  0.7818608E-02  0.1151634E+00
          2   -1    0    0  502    0  0.00000000000E+00  0.00000000000E+00  0.22147565432E+04  0.22147565432E+04  0.00000000000E+00 0.  1.
         -2   -1    0    0    0  501 -0.00000000000E+00 -0.00000000000E+00 -0.28786598649E+02  0.28786598649E+02  0.00000000000E+00 0. -1.
          6    2    1    2  502    0  0.84190764811E+02  0.46640689544E+02  0.17947603221E+04  0.18057668704E+04  0.17425825063E+03 0.  0.
         24    2    3    3    0    0  0.42768078205E+02  0.61149476182E+01  0.15975119457E+04  0.16001283850E+04  0.80622147408E+02 0.  0.
         -6    2    1    2    0  501 -0.84190764811E+02 -0.46640689544E+02  0.39120962253E+03  0.43777627145E+03  0.17128822577E+03 0.  0.
        -24    2    5    5    0    0 -0.12153480797E+03 -0.58159306607E+02  0.30006317612E+03  0.33849374132E+03  0.79918012693E+02 0.  0.
          5    1    3    3  502    0  0.41422686607E+02  0.40525741925E+02  0.19724837634E+03  0.20563848544E+03  0.47000000000E+01 0. -1.
        -11    1    4    4    0    0 -0.18427462761E+02  0.12122061032E+02  0.19036514865E+03  0.19163873713E+03  0.00000000000E+00 0.  1.
         12    1    4    4    0    0  0.61195540966E+02 -0.60071134140E+01  0.14071467971E+04  0.14084896479E+04  0.00000000000E+00 0. -1.
         -5    1    5    5    0  501  0.37344043155E+02  0.11518617063E+02  0.91146446404E+02  0.99282530136E+02  0.47000000000E+01 0.  1.
         11    1    6    6    0    0 -0.11602898813E+03 -0.20292559262E+02  0.21317861939E+03  0.24355623131E+03  0.00000000000E+00 0. -1.
        -12    1    6    6    0    0 -0.55058198396E+01 -0.37866747345E+02  0.86884556735E+02  0.94937510004E+02  0.00000000000E+00 0.  1.
</event>
<event>
12    1  0.2689284E-002  0.1889010E+03  0.7818608E-02  0.1159456E+00
          2   -1    0    0  502    0  0.00000000000E+00  0.00000000000E+00  0.27401484350E+03  0.27401484350E+03  0.00000000000E+00 0. -1.
         -2   -1    0    0    0  501 -0.00000000000E+00 -0.00000000000E+00 -0.14470555941E+03  0.14470555941E+03  0.00000000000E+00 0.  1.
          6    2    1    2  502    0 -0.23659266755E+01  0.74225612298E+02  0.13082259743E+03  0.22961822656E+03  0.17347892910E+03 0.  0.
         24    2    3    3    0    0  0.28011026011E+02  0.10147944643E+03  0.12719286307E+03  0.18837752215E+03  0.90693830041E+02 0.  0.
         -6    2    1    2    0  501  0.23659266755E+01 -0.74225612298E+02 -0.15133133441E+01  0.18910217634E+03  0.17390314503E+03 0.  0.
        -24    2    5    5    0    0  0.21655312714E+02  0.23323824468E+02 -0.19665791034E+02  0.87911388851E+02  0.79553224926E+02 0.  0.
          5    1    3    3  502    0 -0.30376952686E+02 -0.27253834129E+02  0.36297343569E+01  0.41240704416E+02  0.47000000000E+01 0. -1.
        -13    1    4    4    0    0  0.16854372623E+02  0.11597853843E+03  0.93058020383E+02  0.14964921119E+03  0.00000000000E+00 0.  1.
         14    1    4    4    0    0  0.11156653388E+02 -0.14499092003E+02  0.34134842691E+02  0.38728310953E+02  0.00000000000E+00 0. -1.
         -5    1    5    5    0  501 -0.19289386038E+02 -0.97549436766E+02  0.18152477690E+02  0.10119078749E+03  0.47000000000E+01 0.  1.
         13    1    6    6    0    0  0.95688984128E+01 -0.24413255644E+02  0.12545873190E+02  0.29068364283E+02  0.00000000000E+00 0. -1.
        -14    1    6    6    0    0  0.12086414301E+02  0.47737080112E+02 -0.32211664224E+02  0.58843024568E+02  0.00000000000E+00 0.  1.
</event>
<event>
12    1  0.2689284E-002  0.1744531E+03  0.7818608E-02  0.1173282E+00
          2   -1    0    0  502    0  0.00000000000E+00  0.00000000000E+00  0.17874049459E+04  0.17874049459E+04  0.00000000000E+00 0.  1.
         -2   -1    0    0    0  501 -0.00000000000E+00 -0.00000000000E+00 -0.23789701183E+02  0.23789701183E+02  0.00000000000E+00 0. -1.
          6    2    1    2  502    0  0.31742808937E+02  0.21927555079E+01  0.13668279049E+04  0.13779927650E+04  0.17214274537E+03 0.  0.
         24    2    3    3    0    0  0.44502854960E+02  0.30247897817E+02  0.13070658545E+04  0.13105872574E+04  0.79513344682E+02 0.  0.
         -6    2    1    2    0  501 -0.31742808937E+02 -0.21927555079E+01  0.39678733982E+03  0.43320188205E+03  0.17091302898E+03 0.  0.
        -24    2    5    5    0    0  0.93817727719E+01  0.58729725354E+02  0.22050211775E+03  0.24214861875E+03  0.80483360593E+02 0.  0.
          5    1    3    3  502    0 -0.12760046023E+02 -0.28055142310E+02  0.59762050415E+02  0.67405507596E+02  0.47000000000E+01 0. -1.
        -13    1    4    4    0    0  0.13859766620E+02 -0.27051365629E+02  0.34945349891E+03  0.35077288580E+03  0.00000000000E+00 0.  1.
         14    1    4    4    0    0  0.30643088340E+02  0.57299263446E+02  0.95761235556E+03  0.95981437163E+03  0.00000000000E+00 0. -1.
         -5    1    5    5    0  501 -0.41124581709E+02 -0.60922480862E+02  0.17628522208E+03  0.19105326330E+03  0.47000000000E+01 0.  1.
         11    1    6    6    0    0 -0.31391366948E+02  0.38324568065E+02  0.15192430055E+03  0.15979732017E+03  0.00000000000E+00 0. -1.
        -12    1    6    6    0    0  0.40773139719E+02  0.20405157289E+02  0.68577817198E+02  0.82351298582E+02  0.00000000000E+00 0.  1.
</event>
<event>
12    1  0.2689284E-002  0.2555874E+03  0.7818608E-02  0.1109824E+00
          2   -1    0    0  502    0  0.00000000000E+00  0.00000000000E+00  0.22388494680E+04  0.22388494680E+04  0.00000000000E+00 0. -1.
         -2   -1    0    0    0  501 -0.00000000000E+00 -0.00000000000E+00 -0.42502619067E+02  0.42502619067E+02  0.00000000000E+00 0.  1.
          6    2    1    2  502    0  0.16533266885E+03 -0.88731797226E+02  0.17333067432E+04  0.17518758035E+04  0.17177992186E+03 0.  0.
         24    2    3    3    0    0  0.14902158828E+03 -0.79329842394E+01  0.10372268082E+04  0.10509165569E+04  0.79471955977E+02 0.  0.
         -6    2    1    2    0  501 -0.16533266885E+03  0.88731797226E+02  0.46304010566E+03  0.52947628352E+03  0.17530194560E+03 0.  0.
        -24    2    5    5    0    0 -0.15347206086E+03  0.12347882292E+03  0.43076640917E+03  0.48036710615E+03  0.79951011414E+02 0.  0.
          5    1    3    3  502    0  0.16311080570E+02 -0.80798812986E+02  0.69607993502E+03  0.70095924665E+03  0.47000000000E+01 0. -1.
        -11    1    4    4    0    0  0.10391949251E+03  0.27628664405E+02  0.77851188581E+03  0.78590289500E+03  0.00000000000E+00 0.  1.
         12    1    4    4    0    0  0.45102095771E+02 -0.35561648644E+02  0.25871492241E+03  0.26501366186E+03  0.00000000000E+00 0. -1.
         -5    1    5    5    0  501 -0.11860607993E+02 -0.34747025698E+02  0.32273696493E+02  0.49109177372E+02  0.47000000000E+01 0.  1.
         11    1    6    6    0    0 -0.41728782411E+02  0.11211519931E+02  0.16873352786E+03  0.17417804938E+03  0.00000000000E+00 0. -1.
        -12    1    6    6    0    0 -0.11174327845E+03  0.11226730299E+03  0.26203288131E+03  0.30618905677E+03  0.00000000000E+00 0.  1.
</event>
<event>
12    1  0.3331028E-002  0.1639127E+03  0.7818608E-02  0.1184349E+00
         -1   -1    0    0    0  501 -0.00000000000E+00  0.00000000000E+00  0.79539506789E+01  0.79539506789E+01  0.00000000000E+00 0.  1.
          1   -1    0    0  502    0  0.00000000000E+00 -0.00000000000E+00 -0.34736614920E+04  0.34736614920E+04  0.00000000000E+00 0. -1.
          6    2    1    2  502    0 -0.10532802975E+02 -0.12992856880E+02 -0.15192107627E+04  0.15287550530E+04  0.16973778690E+03 0.  0.
         24    2    3    3    0    0  0.59649049055E+01  0.47103513183E+02 -0.54137845749E+03  0.54892759106E+03  0.77308116958E+02 0.  0.
         -6    2    1    2    0  501  0.10532802975E+02  0.12992856880E+02 -0.19464967786E+04  0.19528603897E+04  0.15663408992E+03 0.  0.
        -24    2    5    5    0    0  0.39621163792E+02  0.52864197319E+02 -0.10726192490E+04  0.10775776449E+04  0.79354064127E+02 0.  0.
          5    1    3    3  502    0 -0.16497707881E+02 -0.60096370063E+02 -0.97783230520E+03  0.97982746193E+03  0.47000000000E+01 0. -1.
        -13    1    4    4    0    0 -0.28923693699E+02  0.83303252144E+01 -0.32330683987E+03  0.32470492309E+03  0.00000000000E+00 0.  1.
         14    1    4    4    0    0  0.34888598605E+02  0.38773187968E+02 -0.21807161762E+03  0.22422266797E+03  0.00000000000E+00 0. -1.
         -5    1    5    5    0  501 -0.29088360817E+02 -0.39871340439E+02 -0.87387752966E+03  0.87528274482E+03  0.47000000000E+01 0.  1.
         11    1    6    6    0    0 -0.13302174955E+02  0.47473715621E+02 -0.58123300146E+03  0.58332024097E+03  0.00000000000E+00 0. -1.
        -12    1    6    6    0    0  0.52923338747E+02  0.53904816988E+01 -0.49138624749E+03  0.49425740389E+03  0.00000000000E+00 0.  1.
</event>
<event>
12    1  0.2689284E-002  0.3915613E+03  0.7818608E-02  0.1046742E+00
          1   -1    0    0  502    0  0.00000000000E+00  0.00000000000E+00  0.14846958714E+04  0.14846958714E+04  0.00000000000E+00 0. -1.
         -1   -1    0    0    0  501 -0.00000000000E+00 -0.00000000000E+00 -0.10735339443E+03  0.10735339443E+03  0.00000000000E+00 0.  1.
          6    2    1    2  502    0 -0.30043589237E+03  0.18352178779E+03  0.84294933850E+03  0.92919955425E+03  0.17001838821E+03 0.  0.
         24    2    3    3    0    0 -0.15991362359E+03  0.16362753345E+03  0.44786247367E+03  0.50936862383E+03  0.80803854538E+02 0.  0.
         -6    2    1    2    0  501  0.30043589237E+03 -0.18352178779E+03  0.53439313849E+03  0.66284971158E+03  0.17277656573E+03 0.  0.
        -24    2    5    5    0    0  0.11364733880E+03 -0.47140139107E+02  0.12750211273E+03  0.19479809617E+03  0.80941949519E+02 0.  0.
          5    1    3    3  502    0 -0.14052226878E+03  0.19894254344E+02  0.39508686483E+03  0.41983093042E+03  0.47000000000E+01 0. -1.
        -11    1    4    4    0    0 -0.22751679853E+02  0.66166927417E+02  0.90665680762E+02  0.11452496186E+03  0.00000000000E+00 0.  1.
         12    1    4    4    0    0 -0.13716194373E+03  0.97460606033E+02  0.35719679290E+03  0.39484366197E+03  0.00000000000E+00 0. -1.
         -5    1    5    5    0  501  0.18678855357E+03 -0.13638164869E+03  0.40689102576E+03  0.46805161541E+03  0.47000000000E+01 0.  1.
         13    1    6    6    0    0  0.59450058834E+02 -0.64842749776E+02  0.60225118827E+02  0.10661124064E+03  0.00000000000E+00 0. -1.
        -14    1    6    6    0    0  0.54197279964E+02  0.17702610668E+02  0.67276993899E+02  0.88186855529E+02  0.00000000000E+00 0.  1.
</event>
<event>
12    1  0.2689284E-002  0.1755225E+03  0.7818608E-02  0.1172208E+00
         -1   -1    0    0    0  501 -0.00000000000E+00  0.00000000000E+00  0.71551055225E+02  0.71551055225E+02  0.00000000000E+00 0.  1.
          1   -1    0    0  502    0  0.00000000000E+00 -0.00000000000E+00 -0.45223595976E+03  0.45223595976E+03  0.00000000000E+00 0. -1.
          6    2    1    2  502    0  0.10039172393E+02  0.35232504433E+02 -0.13320133525E+03  0.22047670674E+03  0.17182918306E+03 0.  0.
         24    2    3    3    0    0  0.41149799243E+01  0.77464739994E+02 -0.42538195752E+02  0.12017440049E+03  0.81330618050E+02 0.  0.
         -6    2    1    2    0  501 -0.10039172393E+02 -0.35232504433E+02 -0.24748356929E+03  0.30331030824E+03  0.17148443564E+03 0.  0.
        -24    2    5    5    0    0 -0.64917655795E+02  0.11586529915E+02 -0.13781849408E+03  0.17196272114E+03  0.78922052949E+02 0.  0.
          5    1    3    3  502    0  0.59241924690E+01 -0.42232235561E+02 -0.90663139493E+02  0.10030230625E+03  0.47000000000E+01 0. -1.
        -11    1    4    4    0    0  0.69189664279E+01 -0.85570822740E+01  0.13541342331E+02  0.17448888377E+02  0.00000000000E+00 0.  1.
         12    1    4    4    0    0 -0.28039865036E+01  0.86021822268E+02 -0.56079538083E+02  0.10272551211E+03  0.00000000000E+00 0. -1.
         -5    1    5    5    0  501  0.54878483402E+02 -0.46819034348E+02 -0.10966507521E+03  0.13134758711E+03  0.47000000000E+01 0.  1.
         11    1    6    6    0    0 -0.14664310540E+02  0.32975273016E+01 -0.11529802982E+03  0.11627360565E+03  0.00000000000E+00 0. -1.
        -12    1    6    6    0    0 -0.50253345255E+02  0.82890026131E+01 -0.22520464258E+02  0.55689115490E+02  0.00000000000E+00 0.  1.
</event>
<event>
12    1  0.2689284E-002  0.1973951E+03  0.7818608E-02  0.1151956E+00
         -2   -1    0    0    0  501 -0.00000000000E+00  0.00000000000E+00  0.18993060069E+04  0.18993060069E+04  0.00000000000E+00 0.  1.
          2   -1    0    0  502    0  0.00000000000E+00 -0.00000000000E+00 -0.30549070467E+02  0.30549070467E+02  0.00000000000E+00 0. -1.
          6    2    1    2  502    0 -0.65403074629E+02  0.71421485989E+02  0.14875340038E+04  0.15005802677E+04  0.17206143236E+03 0.  0.
         24    2    3    3    0    0 -0.59005631591E+02  0.29968003791E+02  0.13937528623E+04  0.13977390748E+04  0.82144592747E+02 0.  0.
         -6    2    1    2    0  501  0.65403074629E+02 -0.71421485989E+02  0.38122293271E+03  0.42927480974E+03  0.17195158338E+03 0.  0.
        -24    2    5    5    0    0  0.37405792953E+02 -0.11331018637E+03  0.31597212946E+03  0.34670200354E+03  0.78265579793E+02 0.  0.
          5    1    3    3  502    0 -0.63974430377E+01  0.41453482198E+02  0.93781141462E+02  0.10284119290E+03  0.47000000000E+01 0. -1.
        -11    1    4    4    0    0  0.25048466785E+01  0.40495293377E+02  0.70432573854E+03  0.70549336567E+03  0.00000000000E+00 0.  1.
         12    1    4    4    0    0 -0.61510478270E+02 -0.10527289586E+02  0.68942712376E+03  0.69224570908E+03  0.00000000000E+00 0. -1.
         -5    1    5    5    0  501  0.27997281676E+02  0.41888700377E+02  0.65250803246E+02  0.82572806206E+02  0.47000000000E+01 0.  1.
         11    1    6    6    0    0  0.44053247243E+02 -0.10136954719E+03  0.31401133132E+03  0.33289576430E+03  0.00000000000E+00 0. -1.
        -12    1    6    6    0    0 -0.66474542903E+01 -0.11940639175E+02  0.19607981346E+01  0.13806239234E+02  0.00000000000E+00 0.  1.
</event>
<event>
12    1  0.2689284E-002  0.1735985E+03  0.7818608E-02  0.1174146E+00
         -2   -1    0    0    0  501 -0.00000000000E+00  0.00000000000E+00  0.21732232112E+02  0.21732232112E+02  0.00000000000E+00 0.  1.
          2   -1    0    0  502    0  0.00000000000E+00 -0.00000000000E+00 -0.14830954362E+04  0.14830954362E+04  0.00000000000E+00 0. -1.
          6    2    1    2  502    0 -0.29860873583E+02 -0.14278612189E+02 -0.92767244447E+03  0.94402394205E+03  0.17178325993E+03 0.  0.
         24    2    3    3    0    0  0.25568138544E+02  0.34583054575E+02 -0.35791891902E+03  0.36947976826E+03  0.80991537782E+02 0.  0.
         -6    2    1    2    0  501  0.29860873583E+02  0.14278612189E+02 -0.53369075964E+03  0.56080372629E+03  0.16905455319E+03 0.  0.
        -24    2    5    5    0    0  0.51482918136E+02  0.62859834851E+02 -0.25050117568E+03  0.27262656122E+03  0.70516332615E+02 0.  0.
          5    1    3    3  502    0 -0.55429012127E+02 -0.48861666764E+02 -0.56975352545E+03  0.57454417379E+03  0.47000000000E+01 0. -1.
        -13    1    4    4    0    0 -0.11811642498E+02  0.33379124126E+02 -0.63579368668E+02  0.72773738025E+02  0.00000000000E+00 0.  1.
         14    1    4    4    0    0  0.37379781043E+02  0.12039304487E+01 -0.29433955035E+03  0.29670603024E+03  0.00000000000E+00 0. -1.
         -5    1    5    5    0  501 -0.21622044553E+02 -0.48581222662E+02 -0.28318958396E+03  0.28817716507E+03  0.47000000000E+01 0.  1.
         13    1    6    6    0    0 -0.11474799195E+02 -0.36609025435E+01 -0.60684734033E+02  0.61868490919E+02  0.00000000000E+00 0. -1.
        -14    1    6    6    0    0  0.62957717331E+02  0.66520737395E+02 -0.18981644165E+03  0.21075807030E+03  0.00000000000E+00 0.  1.
</event>
<event>
12    1  0.2689284E-002  0.2067232E+03  0.7818608E-02  0.1144187E+00
         -1   -1    0    0    0  501 -0.00000000000E+00  0.00000000000E+00  0.34500823785E+03  0.34500823785E+03  0.00000000000E+00 0. -1.
          1   -1    0    0  502    0  0.00000000000E+00 -0.00000000000E+00 -0.18388950695E+03  0.18388950695E+03  0.00000000000E+00 0.  1.
          6    2    1    2  502    0  0.10276725356E+03  0.34227922866E+02 -0.68804379447E+02  0.22357545587E+03  0.18308272099E+03 0.  0.
         24    2    3    3    0    0  0.11354389352E+03  0.70569957326E+02 -0.13009964903E+02  0.15595899240E+03  0.79256630590E+02 0.  0.
         -6    2    1    2    0  501 -0.10276725356E+03 -0.34227922866E+02  0.22992311035E+03  0.30532228894E+03  0.16918748282E+03 0.  0.
        -24    2    5    5    0    0 -0.11947830029E+03  0.19528353427E+02  0.16177724575E+03  0.21680706321E+03  0.78593922086E+02 0.  0.
          5    1    3    3  502    0 -0.10776639952E+02 -0.36342034461E+02 -0.55794414543E+02  0.67616463466E+02  0.47000000000E+01 0. -1.
        -11    1    4    4    0    0  0.37633247524E+02  0.35403513728E+02 -0.42861032675E+02  0.67132244305E+02  0.00000000000E+00 0.  1.
         12    1    4    4    0    0  0.75910645992E+02  0.35166443598E+02  0.29851067772E+02  0.88826748097E+02  0.00000000000E+00 0. -1.
         -5    1    5    5    0  501  0.16711046726E+02 -0.53756276292E+02  0.68145864601E+02  0.88515225728E+02  0.47000000000E+01 0.  1.
         13    1    6    6    0    0 -0.71534441838E+02 -0.27796341704E+02  0.92191475645E+02  0.11995449622E+03  0.00000000000E+00 0. -1.
        -14    1    6    6    0    0 -0.47943858452E+02  0.47324695131E+02  0.69585770101E+02  0.96852566992E+02  0.00000000000E+00 0.  1.
</event>
<event>
12    1  0.2689284E-002  0.2868701E+03  0.7818608E-02  0.1091995E+00
         -2   -1    0    0    0  501 -0.00000000000E+00  0.00000000000E+00  0.23650762925E+02  0.23650762925E+02  0.00000000000E+00 0. -1.
          2   -1    0    0  502    0  0.00000000000E+00 -0.00000000000E+00 -0.41812977414E+04  0.41812977414E+04  0.00000000000E+00 0.  1.
          6    2    1    2  502    0 -0.22151472674E+03  0.57072192842E+02 -0.29440482579E+04  0.29580549473E+04  0.17419218361E+03 0.  0.
         24    2    3    3    0    0 -0.35442920985E+02  0.32649887747E+02 -0.12914081143E+04  0.12947868691E+04  0.80099330058E+02 0.  0.
         -6    2    1    2    0  501  0.22151472674E+03 -0.57072192842E+02 -0.12135987206E+04  0.12468935571E+04  0.17203394636E+03 0.  0.
        -24    2    5    5    0    0  0.21505575123E+03 -0.93707424590E+02 -0.10587988393E+04  0.10876172191E+04  0.82620673976E+02 0.  0.
          5    1    3    3  502    0 -0.18607180576E+03  0.24422305095E+02 -0.16526401436E+04  0.16632680782E+04  0.47000000000E+01 0. -1.
        -11    1    4    4    0    0 -0.17657162994E+02 -0.18013907606E+02 -0.14919343214E+03  0.15131079428E+03  0.00000000000E+00 0.  1.
         12    1    4    4    0    0 -0.17785757991E+02  0.50663795353E+02 -0.11422146822E+04  0.11434760748E+04  0.00000000000E+00 0. -1.
         -5    1    5    5    0  501  0.64589755128E+01  0.36635231748E+02 -0.15479988131E+03  0.15927633793E+03  0.47000000000E+01 0.  1.
         11    1    6    6    0    0  0.13596023563E+03 -0.77866605947E+02 -0.52908173056E+03  0.55179332328E+03  0.00000000000E+00 0. -1.
        -12    1    6    6    0    0  0.79095515599E+02 -0.15840818643E+02 -0.52971710870E+03  0.53582389586E+03  0.00000000000E+00 0.  1.
</event>
<event>
12    1  0.2689284E-002  0.2001202E+03  0.7818608E-02  0.1149638E+00
         -2   -1    0    0    0  501 -0.00000000000E+00  0.00000000000E+00  0.65065350495E+02  0.65065350495E+02  0.00000000000E+00 0. -1.
          2   -1    0    0  502    0  0.00000000000E+00 -0.00000000000E+00 -0.69292806945E+03  0.69292806945E+03  0.00000000000E+00 0.  1.
          6    2    1    2  502    0 -0.10144797931E+03 -0.34741852073E+01 -0.18762583614E+03  0.27451832175E+03  0.17278047378E+03 0.  0.
         24    2    3    3    0    0 -0.13576618935E+03  0.94527030503E+01 -0.12069519687E+03  0.19805496808E+03  0.78336633007E+02 0.  0.
         -6    2    1    2    0  501  0.10144797931E+03  0.34741852073E+01 -0.44023688282E+03  0.48347509820E+03  0.17215079180E+03 0.  0.
        -24    2    5    5    0    0  0.95663670713E+02  0.45369271885E+02 -0.41409817141E+03  0.43353534702E+03  0.72565093712E+02 0.  0.
          5    1    3    3  502    0  0.34318210040E+02 -0.12926888258E+02 -0.66930639270E+02  0.76463353663E+02  0.47000000000E+01 0. -1.
        -13    1    4    4    0    0 -0.49829618020E+02  0.12597105923E+02 -0.95489169315E+02  0.10844288527E+03  0.00000000000E+00 0.  1.
         14    1    4    4    0    0 -0.85936571325E+02 -0.31444028730E+01 -0.25206027552E+02  0.89612082810E+02  0.00000000000E+00 0. -1.
         -5    1    5    5    0  501  0.57843085930E+01 -0.41895086677E+02 -0.26138711404E+02  0.49939751175E+02  0.47000000000E+01 0.  1.
         13    1    6    6    0    0 -0.11538217659E+02  0.43265167532E+01 -0.25229019412E+02  0.28077618033E+02  0.00000000000E+00 0. -1.
        -14    1    6    6    0    0  0.10720188837E+03  0.41042755131E+02 -0.38886915200E+03  0.40545772899E+03  0.00000000000E+00 0.  1.
</event>
<event>
12    1  0.2689284E-002  0.3244745E+03  0.7818608E-02  0.1073608E+00
          2   -1    0    0  502    0  0.00000000000E+00  0.00000000000E+00  0.31629397115E+04  0.31629397115E+04  0.00000000000E+00 0.  1.
         -2   -1    0    0    0  501 -0.00000000000E+00 -0.00000000000E+00 -0.55975392300E+02  0.55975392300E+02  0.00000000000E+00 0. -1.
          6    2    1    2  502    0  0.97547374852E+02  0.25922399916E+03  0.25823226272E+04  0.26028124488E+04  0.17184272108E+03 0.  0.
         24    2    3    3    0    0  0.15238959349E+02  0.12032236433E+03  0.77656501947E+03  0.78984500090E+03  0.78052538300E+02 0.  0.
         -6    2    1    2    0  501 -0.97547374852E+02 -0.25922399916E+03  0.52464169200E+03  0.61610265496E+03  0.16619568101E+03 0.  0.
        -24    2    5    5    0    0 -0.76343082221E+02 -0.94065908559E+02  0.17052711521E+03  0.22476387537E+03  0.82235280106E+02 0.  0.
          5    1    3    3  502    0  0.82308415503E+02  0.13890163483E+03  0.18057576077E+04  0.18129674479E+04  0.47000000000E+01 0. -1.
        -13    1    4    4    0    0 -0.10296222118E+02  0.69524410930E+02  0.60581422528E+03  0.60987747249E+03  0.00000000000E+00 0.  1.
         14    1    4    4    0    0  0.25535181467E+02  0.50797953400E+02  0.17075079419E+03  0.17996752840E+03  0.00000000000E+00 0. -1.
         -5    1    5    5    0  501 -0.21204292631E+02 -0.16515809060E+03  0.35411457679E+03  0.39133877959E+03  0.47000000000E+01 0.  1.
         11    1    6    6    0    0 -0.64017027829E+02 -0.14454110322E+02  0.82884061639E+02  0.10572071146E+03  0.00000000000E+00 0. -1.
        -12    1    6    6    0    0 -0.12326054391E+02 -0.79611798237E+02  0.87643053569E+02  0.11904316391E+03  0.00000000000E+00 0.  1.
</event>
<event>
12    1  0.2689284E-002  0.2923082E+03  0.7818608E-02  0.1089150E+00
          2   -1    0    0  502    0  0.00000000000E+00  0.00000000000E+00  0.48112902888E+02  0.48112902888E+02  0.00000000000E+00 0. -1.
         -2   -1    0    0    0  501 -0.00000000000E+00 -0.00000000000E+00 -0.17829864182E+04  0.17829864182E+04  0.00000000000E+00 0.  1.
          6    2    1    2  502    0  0.23166473438E+03  0.46457500869E+02 -0.80818828833E+03  0.85924359188E+03  0.17118525713E+03 0.  0.
         24    2    3    3    0    0  0.82370307094E+02  0.63570662008E+02 -0.49413393792E+03  0.51105698773E+03  0.78643496499E+02 0.  0.
         -6    2    1    2    0  501 -0.23166473438E+03 -0.46457500869E+02 -0.92668522696E+03  0.97185572918E+03  0.17300635807E+03 0.  0.
        -24    2    5    5    0    0 -0.60823763364E+02 -0.41776483573E+02 -0.22582744174E+03  0.25044580798E+03  0.79248119999E+02 0.  0.
          5    1    3    3  502    0  0.14929442729E+03 -0.17113161139E+02 -0.31405435040E+03  0.34818660415E+03  0.47000000000E+01 0. -1.
        -13    1    4    4    0    0  0.95526852010E+02  0.58270300823E+02 -0.46932222674E+03  0.48247710818E+03  0.00000000000E+00 0.  1.
         14    1    4    4    0    0 -0.13156544916E+02  0.53003611859E+01 -0.24811711184E+02  0.28579879543E+02  0.00000000000E+00 0. -1.
         -5    1    5    5    0  501 -0.17084097102E+03 -0.46810172963E+01 -0.70085778522E+03  0.72140992120E+03  0.47000000000E+01 0.  1.
         13    1    6    6    0    0 -0.17724267203E+02  0.18439109705E+02 -0.22539183816E+02  0.34090544462E+02  0.00000000000E+00 0. -1.
        -14    1    6    6    0    0 -0.43099496161E+02 -0.60215593278E+02 -0.20328825792E+03  0.21635526352E+03  0.00000000000E+00 0.  1.
</event>
<event>
12    1  0.2689284E-002  0.1776238E+03  0.7818608E-02  0.1170123E+00
         -3   -1    0    0    0  501 -0.00000000000E+00  0.00000000000E+00  0.36782466685E+03  0.36782466685E+03  0.00000000000E+00 0. -1.
          3   -1    0    0  502    0  0.00000000000E+00 -0.00000000000E+00 -0.92023552466E+02  0.92023552466E+02  0.00000000000E+00 0.  1.
          6    2    1    2  502    0 -0.36095682081E+02  0.15856933976E+01  0.19672083783E+03  0.26406818354E+03  0.17241666054E+03 0.  0.
         24    2    3    3    0    0 -0.60255944118E+02 -0.61856364613E+01  0.21197860658E+03  0.23408483254E+03  0.78687599281E+02 0.  0.
         -6    2    1    2    0  501  0.36095682081E+02 -0.15856933976E+01  0.79080276556E+02  0.19578003578E+03  0.17541584758E+03 0.  0.
        -24    2    5    5    0    0  0.40934900782E+02  0.63501424231E+02  0.70558384417E+02  0.12979167647E+03  0.78481186845E+02 0.  0.
          5    1    3    3  502    0  0.24160262038E+02  0.77713298588E+01 -0.15257768747E+02  0.29983350991E+02  0.47000000000E+01 0. -1.
        -11    1    4    4    0    0 -0.28963779788E+02  0.18394784151E+02  0.23831037521E+02  0.41775435041E+02  0.00000000000E+00 0.  1.
         12    1    4    4    0    0 -0.31292164331E+02 -0.24580420612E+02  0.18814756906E+03  0.19230939750E+03  0.00000000000E+00 0. -1.
         -5    1    5    5    0  501 -0.48392187010E+01 -0.65087117629E+02  0.85218921390E+01  0.65988359311E+02  0.47000000000E+01 0.  1.
         11    1    6    6    0    0  0.87146361326E+01 -0.16940793501E+02  0.26338112291E+02  0.32505869108E+02  0.00000000000E+00 0. -1.
        -12    1    6    6    0    0  0.32220264649E+02  0.80442217733E+02  0.44220272126E+02  0.97285807365E+02  0.00000000000E+00 0.  1.
</event>
<event>
12    1  0.2689284E-002  0.3483560E+03  0.7818608E-02  0.1063292E+00
          2   -1    0    0  502    0  0.00000000000E+00  0.00000000000E+00  0.69485260327E+03  0.69485260327E+03  0.00000000000E+00 0. -1.
         -2   -1    0    0    0  501 -0.00000000000E+00 -0.00000000000E+00 -0.44644181629E+03  0.44644181629E+03  0.00000000000E+00 0.  1.
          6    2    1    2  502    0 -0.51448769666E+02 -0.29703625002E+03 -0.32088976547E+03  0.47445539579E+03  0.17680546168E+03 0.  0.
         24    2    3    3    0    0  0.23643791251E+02 -0.12571139452E+03 -0.20652105395E+03  0.25515334155E+03  0.78037801112E+02 0.  0.
         -6    2    1    2    0  501  0.51448769666E+02  0.29703625002E+03  0.56930055245E+03  0.66683902377E+03  0.17231846935E+03 0.  0.
        -24    2    5    5    0    0  0.51845467133E+02  0.31136657472E+03  0.56335077557E+03  0.65062158193E+03  0.79418198287E+02 0.  0.
          5    1    3    3  502    0 -0.75092560917E+02 -0.17132485550E+03 -0.11436871152E+03  0.21930205424E+03  0.47000000000E+01 0. -1.
        -11    1    4    4    0    0 -0.16654654236E+00 -0.82306196315E+02 -0.63946621255E+02  0.10422815387E+03  0.00000000000E+00 0.  1.
         12    1    4    4    0    0  0.23810337793E+02 -0.43405198200E+02 -0.14257443269E+03  0.15092518767E+03  0.00000000000E+00 0. -1.
         -5    1    5    5    0  501 -0.39669746678E+00 -0.14330324703E+02  0.59497768791E+01  0.16217441841E+02  0.47000000000E+01 0.  1.
         11    1    6    6    0    0  0.38408179701E+02  0.23344518050E+03  0.34441007616E+03  0.41783985106E+03  0.00000000000E+00 0. -1.
        -12    1    6    6    0    0  0.13437287432E+02  0.77921394217E+02  0.21894069941E+03  0.23278173088E+03  0.00000000000E+00 0.  1.
</event>
<event>
12    1  0.2689284E-002  0.1855761E+03  0.7818608E-02  0.1162513E+00
          2   -1    0    0  502    0  0.00000000000E+00  0.00000000000E+00  0.13649350719E+04  0.13649350719E+04  0.00000000000E+00 0.  1.
         -2   -1    0    0    0  501 -0.00000000000E+00 -0.00000000000E+00 -0.21820060975E+03  0.21820060975E+03  0.00000000000E+00 0. -1.
          6    2    1    2  502    0  0.65585024256E+02 -0.26549251210E+02 -0.17079014636E+03  0.25269872531E+03  0.17228207548E+03 0.  0.
         24    2    3    3    0    0  0.15366583798E+02 -0.44642028946E+01 -0.90221422375E+01  0.81816841306E+02  0.79727883865E+02 0.  0.
         -6    2    1    2    0  501 -0.65585024256E+02  0.26549251210E+02  0.13175246085E+04  0.13304369563E+04  0.17083659625E+03 0.  0.
        -24    2    5    5    0    0 -0.12367173493E+01  0.87881660082E+01  0.15298224671E+03  0.16397342790E+03  0.58352000118E+02 0.  0.
          5    1    3    3  502    0  0.50218440458E+02 -0.22085048316E+02 -0.16176800413E+03  0.17088188400E+03  0.47000000000E+01 0. -1.
        -13    1    4    4    0    0 -0.14014486503E+01 -0.14245939753E+02 -0.41544409611E+02  0.43941424962E+02  0.00000000000E+00 0.  1.
         14    1    4    4    0    0  0.16768032448E+02  0.97817368581E+01  0.32522267373E+02  0.37875416344E+02  0.00000000000E+00 0. -1.
         -5    1    5    5    0  501 -0.64348306907E+02  0.17761085202E+02  0.11645423618E+04  0.11664635284E+04  0.47000000000E+01 0.  1.
         13    1    6    6    0    0  0.22826841670E+02  0.85125447835E+01  0.12367570219E+03  0.12605239955E+03  0.00000000000E+00 0. -1.
        -14    1    6    6    0    0 -0.24063559019E+02  0.27562122469E+00  0.29306544516E+02  0.37921028351E+02  0.00000000000E+00 0.  1.
</event>
<event>
12    1  0.2689284E-002  0.1748740E+03  0.7818608E-02  0.1172858E+00
         -1   -1    0    0    0  501 -0.00000000000E+00  0.00000000000E+00  0.49332528016E+03  0.49332528016E+03  0.00000000000E+00 0.  1.
          1   -1    0    0  502    0  0.00000000000E+00 -0.00000000000E+00 -0.11722590250E+03  0.11722590250E+03  0.00000000000E+00 0. -1.
          6    2    1    2  502    0 -0.46548745562E+00 -0.32558787925E+02  0.39758040863E+03  0.43432415870E+03  0.17177602321E+03 0.  0.
         24    2    3    3    0    0  0.37349119328E+02  0.36040745753E+02  0.19825585358E+03  0.22010882602E+03  0.80303298466E+02 0.  0.
         -6    2    1    2    0  501  0.46548745562E+00  0.32558787925E+02 -0.21481030970E+02  0.17622702396E+03  0.17185528195E+03 0.  0.
        -24    2    5    5    0    0 -0.54942393457E-01  0.36509110148E+02  0.51991080524E+02  0.10249699575E+03  0.80434094397E+02 0.  0.
          5    1    3    3  502    0 -0.37814606784E+02 -0.68599533678E+02  0.19932455506E+03  0.21421533268E+03  0.47000000000E+01 0. -1.
        -13    1    4    4    0    0  0.37844500348E+02 -0.15728142443E+02  0.11483471673E+03  0.12192863830E+03  0.00000000000E+00 0.  1.
         14    1    4    4    0    0 -0.49538101993E+00  0.51768888196E+02  0.83421136843E+02  0.98180187715E+02  0.00000000000E+00 0. -1.
         -5    1    5    5    0  501  0.52042984907E+00 -0.39503222235E+01 -0.73472111493E+02  0.73730028212E+02  0.47000000000E+01 0.  1.
         11    1    6    6    0    0 -0.28684282062E+02 -0.12614469437E+02  0.15743032334E+02  0.35067876235E+02  0.00000000000E+00 0. -1.
        -12    1    6    6    0    0  0.28629339669E+02  0.49123579585E+02  0.36248048190E+02  0.67429119516E+02  0.00000000000E+00 0.  1.
</event>
<event>
12    1  0.2689284E-002  0.2051933E+03  0.7818608E-02  0.1145430E+00
          2   -1    0    0  502    0  0.00000000000E+00  0.00000000000E+00  0.53094119232E+03  0.53094119232E+03  0.00000000000E+00 0.  1.
         -2   -1    0    0    0  501 -0.00000000000E+00 -0.00000000000E+00 -0.81955528447E+02  0.81955528447E+02  0.00000000000E+00 0. -1.
          6    2    1    2  502    0  0.11924221605E+03  0.33977157316E+02  0.26952179458E+03  0.33391130427E+03  0.15323709753E+03 0.  0.
         24    2    3    3    0    0  0.98938777248E+02  0.71991337046E+02  0.16369469918E+03  0.21954884711E+03  0.80212888459E+02 0.  0.
         -6    2    1    2    0  501 -0.11924221605E+03 -0.33977157316E+02  0.17946386930E+03  0.27898541650E+03  0.17393225384E+03 0.  0.
        -24    2    5    5    0    0 -0.66762104215E+02  0.45596590593E+02  0.59891266369E+02  0.12599574082E+03  0.75840195697E+02 0.  0.
          5    1    3    3  502    0  0.20303438802E+02 -0.38014179730E+02  0.10582709539E+03  0.11436245716E+03  0.47000000000E+01 0. -1.
        -11    1    4    4    0    0  0.29327499248E+02  0.55160370828E+02  0.12098829148E+03  0.13616510345E+03  0.00000000000E+00 0.  1.
         12    1    4    4    0    0  0.69611278000E+02  0.16830966218E+02  0.42706407704E+02  0.83383743665E+02  0.00000000000E+00 0. -1.
         -5    1    5    5    0  501 -0.52480111834E+02 -0.79573747909E+02  0.11957260293E+03  0.15298967568E+03  0.47000000000E+01 0.  1.
         13    1    6    6    0    0 -0.54646044426E+02 -0.77472774185E+01  0.38332892521E+02  0.67198371467E+02  0.00000000000E+00 0. -1.
        -14    1    6    6    0    0 -0.12116059789E+02  0.53343868012E+02  0.21558373848E+02  0.58797369348E+02  0.00000000000E+00 0.  1.
</event>
<event>
12    1  0.2689284E-002  0.2325017E+03  0.7818608E-02  0.1124891E+00
          2   -1    0    0  502    0  0.00000000000E+00  0.00000000000E+00  0.18348277929E+03  0.18348277929E+03  0.00000000000E+00 0. -1.
         -2   -1    0    0    0  501 -0.00000000000E+00 -0.00000000000E+00 -0.33915699001E+03  0.33915699001E+03  0.00000000000E+00 0.  1.
          6    2    1    2  502    0  0.14801772537E+03  0.48601576637E+02 -0.17264719086E+03  0.28990031028E+03  0.17310048271E+03 0.  0.
         24    2    3    3    0    0  0.11452449037E+03 -0.31424201656E+00 -0.18165986191E+03  0.22975155847E+03  0.81667101991E+02 0.  0.
         -6    2    1    2    0  501 -0.14801772537E+03 -0.48601576637E+02  0.16972980130E+02  0.23273945902E+03  0.17207037355E+03 0.  0.
        -24    2    5    5    0    0 -0.37586125381E+02  0.29463820193E+02 -0.16389224514E+02  0.93367757600E+02  0.78537239305E+02 0.  0.
          5    1    3    3  502    0  0.33493234999E+02  0.48915818653E+02  0.90126710516E+01  0.60148751813E+02  0.47000000000E+01 0. -1.
        -11    1    4    4    0    0  0.30466045243E+02  0.37117806568E+02 -0.72818369694E+02  0.87226294442E+02  0.00000000000E+00 0.  1.
         12    1    4    4    0    0  0.84058445125E+02 -0.37432048585E+02 -0.10884149222E+03  0.14252526403E+03  0.00000000000E+00 0. -1.
         -5    1    5    5    0  501 -0.11043159999E+03 -0.78065396830E+02  0.33362204644E+02  0.13937170142E+03  0.47000000000E+01 0.  1.
         13    1    6    6    0    0  0.17832096023E+02  0.17076544326E+02 -0.25909370639E+02  0.35789488702E+02  0.00000000000E+00 0. -1.
        -14    1    6    6    0    0 -0.55418221405E+02  0.12387275867E+02  0.95201461246E+01  0.57578268898E+02  0.00000000000E+00 0.  1.
</event>
<event>
12    1  0.2689284E-002  0.2158100E+03  0.7818608E-02  0.1137046E+00
          2   -1    0    0  502    0  0.00000000000E+00  0.00000000000E+00  0.14303483652E+04  0.14303483652E+04  0.00000000000E+00 0. -1.
         -2   -1    0    0    0  501 -0.00000000000E+00 -0.00000000000E+00 -0.32934933865E+02  0.32934933865E+02  0.00000000000E+00 0.  1.
          6    2    1    2  502    0 -0.83854747851E+02  0.10015243482E+03  0.61923624944E+03  0.65560524188E+03  0.17117993930E+03 0.  0.
         24    2    3    3    0    0 -0.19429839734E+02  0.33668192920E+02  0.13391770217E+03  0.16151324080E+03  0.81495460682E+02 0.  0.
         -6    2    1    2    0  501  0.83854747851E+02 -0.10015243482E+03  0.77817718194E+03  0.80767805723E+03  0.17240066329E+03 0.  0.
        -24    2    5    5    0    0 -0.18089200630E+02 -0.25175453903E+02  0.38555201051E+03  0.39513626354E+03  0.80754512566E+02 0.  0.
          5    1    3    3  502    0 -0.64424908117E+02  0.66484241899E+02  0.48531854727E+03  0.49409200108E+03  0.47000000000E+01 0. -1.
        -13    1    4    4    0    0  0.11621249561E+02  0.24809940349E+02  0.12506660294E+03  0.12803219030E+03  0.00000000000E+00 0.  1.
         14    1    4    4    0    0 -0.31051089295E+02  0.88582525702E+01  0.88510992306E+01  0.33481050500E+02  0.00000000000E+00 0. -1.
         -5    1    5    5    0  501  0.10194394848E+03 -0.74976980916E+02  0.39262517143E+03  0.41254179369E+03  0.47000000000E+01 0.  1.
         11    1    6    6    0    0  0.12344985603E+02 -0.41711882698E+02  0.29492690818E+03  0.29811769655E+03  0.00000000000E+00 0. -1.
        -12    1    6    6    0    0 -0.30434186234E+02  0.16536428795E+02  0.90625102329E+02  0.97018566992E+02  0.00000000000E+00 0.  1.
</event>
<event>
12    1  0.2842573E-002  0.2329943E+03  0.7818608E-02  0.1124550E+00
          2   -1    0    0  502    0  0.00000000000E+00  0.00000000000E+00  0.41209422460E+03  0.41209422460E+03  0.00000000000E+00 0.  1.
         -2   -1    0    0    0  501 -0.00000000000E+00 -0.00000000000E+00 -0.22717457851E+03  0.22717457851E+03  0.00000000000E+00 0. -1.
          6    2    1    2  502    0  0.13953229279E+03 -0.71113714429E+02 -0.11465575961E+03  0.25991835351E+03  0.17287332405E+03 0.  0.
         24    2    3    3    0    0  0.49384400648E+02  0.18894534184E+02 -0.11538984606E+02  0.95957118572E+02  0.79238866660E+02 0.  0.
         -6    2    1    2    0  501 -0.13953229279E+03  0.71113714429E+02  0.29957540570E+03  0.37935044959E+03  0.17214795612E+03 0.  0.
        -24    2    5    5    0    0 -0.12800746476E+03  0.78379097705E+02  0.14382771749E+03  0.22293740718E+03  0.80532485431E+02 0.  0.
          5    1    3    3  502    0  0.90147892143E+02 -0.90008248613E+02 -0.10311677500E+03  0.16396123494E+03  0.47000000000E+01 0. -1.
        -11    1    4    4    0    0  0.76957399050E+01  0.71616565193E+01  0.32519950623E+02  0.34176906316E+02  0.00000000000E+00 0.  1.
         12    1    4    4    0    0  0.41688660743E+02  0.11732877665E+02 -0.44058935230E+02  0.61780212256E+02  0.00000000000E+00 0. -1.
         -5    1    5    5    0  501 -0.11524828030E+02 -0.72653832755E+01  0.15574768821E+03  0.15641304241E+03  0.47000000000E+01 0.  1.
         13    1    6    6    0    0 -0.49122585399E+02  0.62717125408E+02  0.33533098672E+02  0.86434570180E+02  0.00000000000E+00 0. -1.
        -14    1    6    6    0    0 -0.78884879362E+02  0.15661972296E+02  0.11029461882E+03  0.13650283700E+03  0.00000000000E+00 0.  1.
</event>
<event>
12    1  0.2689284E-002  0.2170199E+03  0.7818608E-02  0.1136125E+00
         -2   -1    0    0    0  501 -0.00000000000E+00  0.00000000000E+00  0.84529399029E+02  0.84529399029E+02  0.00000000000E+00 0. -1.
          2   -1    0    0  502    0  0.00000000000E+00 -0.00000000000E+00 -0.58557546137E+03  0.58557546137E+03  0.00000000000E+00 0.  1.
          6    2    1    2  502    0  0.27750828696E+02  0.12982817255E+03 -0.17693314066E+03  0.28014498437E+03  0.17190233601E+03 0.  0.
         24    2    3    3    0    0  0.26911033749E+02  0.19825724617E+02 -0.13725348609E+03  0.16310734601E+03  0.81536640750E+02 0.  0.
         -6    2    1    2    0  501 -0.27750828696E+02 -0.12982817255E+03 -0.32411292168E+03  0.38995987602E+03  0.17144694813E+03 0.  0.
        -24    2    5    5    0    0 -0.21201950308E+02 -0.10047583925E+03 -0.99366784241E+02  0.16316180819E+03  0.78759766833E+02 0.  0.
          5    1    3    3  502    0  0.83979494696E+00  0.11000244793E+03 -0.39679654562E+02  0.11703763836E+03  0.47000000000E+01 0. -1.
        -13    1    4    4    0    0 -0.20980069764E+02 -0.61316522750E+01 -0.84483748706E+02  0.87265481620E+02  0.00000000000E+00 0.  1.
         14    1    4    4    0    0  0.47891103513E+02  0.25957376892E+02 -0.52769737388E+02  0.75841864394E+02  0.00000000000E+00 0. -1.
         -5    1    5    5    0  501 -0.65488783881E+01 -0.29352333304E+02 -0.22474613744E+03  0.22679806783E+03  0.47000000000E+01 0.  1.
         13    1    6    6    0    0 -0.39032804384E+01  0.16097772242E+01 -0.46894146479E+02  0.47083839636E+02  0.00000000000E+00 0. -1.
        -14    1    6    6    0    0 -0.17298669870E+02 -0.10208561647E+03 -0.52472637762E+02  0.11607796855E+03  0.00000000000E+00 0.  1.
</event>
<event>
12    1  0.2689284E-002  0.1914869E+03  0.7818608E-02  0.1157127E+00
         -3   -1    0    0    0  501 -0.00000000000E+00  0.00000000000E+00  0.56586573780E+02  0.56586573780E+02  0.00000000000E+00 0. -1.
          3   -1    0    0  502    0  0.00000000000E+00 -0.00000000000E+00 -0.66185779171E+03  0.66185779171E+03  0.00000000000E+00 0.  1.
          6    2    1    2  502    0  0.42062778990E+02 -0.47188783900E+02 -0.36491497821E+03  0.41600787798E+03  0.18948233299E+03 0.  0.
         24    2    3    3    0    0 -0.52241857785E+01 -0.38718769446E+02 -0.35631545025E+03  0.36697890631E+03  0.78653559126E+02 0.  0.
         -6    2    1    2    0  501 -0.42062778990E+02  0.47188783900E+02 -0.24035623972E+03  0.30243648751E+03  0.17233876031E+03 0.  0.
        -24    2    5    5    0    0 -0.57098984164E+02  0.41280890270E+02 -0.61605859967E+02  0.12289602150E+03  0.79647625356E+02 0.  0.
          5    1    3    3  502    0  0.47286964768E+02 -0.84700144533E+01 -0.85995279592E+01  0.49028971669E+02  0.47000000000E+01 0. -1.
        -11    1    4    4    0    0 -0.71000054505E+01 -0.57155288143E+02 -0.16490378121E+03  0.17467224765E+03  0.00000000000E+00 0.  1.
         12    1    4    4    0    0  0.18758196720E+01  0.18436518696E+02 -0.19141166904E+03  0.19230665866E+03  0.00000000000E+00 0. -1.
         -5    1    5    5    0  501  0.15036205175E+02  0.59078936292E+01 -0.17875037975E+03  0.17954046601E+03  0.47000000000E+01 0.  1.
         13    1    6    6    0    0  0.23933862126E+01  0.41937304976E+02 -0.78925471503E+01  0.42740591325E+02  0.00000000000E+00 0. -1.
        -14    1    6    6    0    0 -0.59492370377E+02 -0.65641470599E+00 -0.53713312816E+02  0.80155430178E+02  0.00000000000E+00 0.  1.
</event>
<event>
12    1  0.2689284E-002  0.2143493E+03  0.7818608E-02  0.1138167E+00
         -2   -1    0    0    0  501 -0.00000000000E+00  0.00000000000E+00  0.15330887353E+02  0.15330887353E+02  0.00000000000E+00 0. -1.
          2   -1    0    0  502    0  0.00000000000E+00 -0.00000000000E+00 -0.31657751821E+04  0.31657751821E+04  0.00000000000E+00 0.  1.
          6    2    1    2  502    0  0.38381731104E+02  0.12206959464E+03 -0.12086223654E+04  0.12275008434E+04  0.17209344838E+03 0.  0.
         24    2    3    3    0    0 -0.30236900226E+02  0.27743225183E+02 -0.69076451729E+03  0.69664792452E+03  0.80490718202E+02 0.  0.
         -6    2    1    2    0  501 -0.38381731104E+02 -0.12206959464E+03 -0.19418219293E+04  0.19536052260E+04  0.17183373093E+03 0.  0.
        -24    2    5    5    0    0 -0.57818506375E+02 -0.14958331332E+03 -0.16953341550E+04  0.17047817830E+04  0.80030514606E+02 0.  0.
          5    1    3    3  502    0  0.68618631330E+02  0.94326369458E+02 -0.51785784816E+03  0.53085291884E+03  0.47000000000E+01 0. -1.
        -11    1    4    4    0    0  0.15716645163E+02  0.22405888073E+02 -0.48390842021E+03  0.48468174703E+03  0.00000000000E+00 0.  1.
         12    1    4    4    0    0 -0.45953545389E+02  0.53373371098E+01 -0.20685609708E+03  0.21196617749E+03  0.00000000000E+00 0. -1.
         -5    1    5    5    0  501  0.19436775270E+02  0.27513718676E+02 -0.24648777429E+03  0.24882344308E+03  0.47000000000E+01 0.  1.
         13    1    6    6    0    0 -0.29669298810E+02 -0.41274437843E+02 -0.24962215180E+03  0.25474509844E+03  0.00000000000E+00 0. -1.
        -14    1    6    6    0    0 -0.28149207564E+02 -0.10830887547E+03 -0.14457120032E+04  0.14500366845E+04  0.00000000000E+00 0.  1.
</event>
<event>
12    1  0.2689284E-002  0.2518222E+03  0.7818608E-02  0.1112159E+00
          2   -1    0    0  502    0  0.00000000000E+00  0.00000000000E+00  0.63132535252E+03  0.63132535252E+03  0.00000000000E+00 0.  1.
         -2   -1    0    0    0  501 -0.00000000000E+00 -0.00000000000E+00 -0.12227045829E+03  0.12227045829E+03  0.00000000000E+00 0. -1.
          6    2    1    2  502    0 -0.13439880439E+03 -0.12767155747E+03  0.96114518028E+02  0.27041009575E+03  0.17181546526E+03 0.  0.
         24    2    3    3    0    0 -0.12924775013E+03 -0.80714096275E+02  0.12727383278E+03  0.21362515570E+03  0.78850062690E+02 0.  0.
         -6    2    1    2    0  501  0.13439880439E+03  0.12767155747E+03  0.41294037620E+03  0.48318571506E+03  0.16907281194E+03 0.  0.
        -24    2    5    5    0    0  0.11622305432E+02  0.91658779441E+02  0.22806892913E+03  0.25830679026E+03  0.78552858826E+02 0.  0.
          5    1    3    3  502    0 -0.51510542592E+01 -0.46957461191E+02 -0.31159314747E+02  0.56784940054E+02  0.47000000000E+01 0. -1.
        -13    1    4    4    0    0 -0.11137314588E+03 -0.45041800087E+02  0.57361041341E+02  0.13312787252E+03  0.00000000000E+00 0.  1.
         14    1    4    4    0    0 -0.17874604248E+02 -0.35672296188E+02  0.69912791434E+02  0.80497283174E+02  0.00000000000E+00 0. -1.
         -5    1    5    5    0  501  0.12277649896E+03  0.36012778025E+02  0.18487144707E+03  0.22487892480E+03  0.47000000000E+01 0.  1.
         13    1    6    6    0    0 -0.89576147592E+01  0.19757956400E+02  0.39650049832E+01  0.22053048945E+02  0.00000000000E+00 0. -1.
        -14    1    6    6    0    0  0.20579920191E+02  0.71900823042E+02  0.22410392415E+03  0.23625374132E+03  0.00000000000E+00 0.  1.
</event>
<event>
12    1  0.2689284E-002  0.1773049E+03  0.7818608E-02  0.1170437E+00
          2   -1    0    0  502    0  0.00000000000E+00  0.00000000000E+00  0.31628273753E+03  0.31628273753E+03  0.00000000000E+00 0. -1.
         -2   -1    0    0    0  501 -0.00000000000E+00 -0.00000000000E+00 -0.10194660069E+03  0.10194660069E+03  0.00000000000E+00 0.  1.
          6    2    1    2  502    0 -0.40992388395E+02  0.16236032368E+02  0.14053953982E+03  0.22664233257E+03  0.17225388241E+03 0.  0.
         24    2    3    3    0    0  0.75804420184E+00  0.69227155443E+02  0.10895725473E+03  0.15200528762E+03  0.80255532048E+02 0.  0.
         -6    2    1    2    0  501  0.40992388395E+02 -0.16236032368E+02  0.73796597028E+02  0.19158700565E+03  0.17121816010E+03 0.  0.
        -24    2    5    5    0    0  0.38823787885E+02  0.57352456652E+02  0.61832801607E+02  0.11685287058E+03  0.70955670796E+02 0.  0.
          5    1    3    3  502    0 -0.41750432597E+02 -0.52991123075E+02  0.31582285091E+02  0.74637044947E+02  0.47000000000E+01 0. -1.
        -11    1    4    4    0    0 -0.12104897954E+02  0.19567400308E+02 -0.79456999952E+01  0.24342264843E+02  0.00000000000E+00 0.  1.
         12    1    4    4    0    0  0.12862942155E+02  0.49659755136E+02  0.11690295472E+03  0.12766302278E+03  0.00000000000E+00 0. -1.
         -5    1    5    5    0  501  0.21686005102E+01 -0.73588489020E+02  0.11963795421E+02  0.74734135075E+02  0.47000000000E+01 0.  1.
         13    1    6    6    0    0  0.49358237075E+02  0.64907585611E+02  0.38531466673E+02  0.90188159761E+02  0.00000000000E+00 0. -1.
        -14    1    6    6    0    0 -0.10534449190E+02 -0.75551289591E+01  0.23301334933E+02  0.26664710818E+02  0.00000000000E+00 0.  1.
</event>
<event>
12    1  0.2689284E-002  0.1884037E+03  0.7818608E-02  0.1159909E+00
          2   -1    0    0  502    0  0.00000000000E+00  0.00000000000E+00  0.54474982998E+03  0.54474982998E+03  0.00000000000E+00 0.  1.
         -2   -1    0    0    0  501 -0.00000000000E+00 -0.00000000000E+00 -0.83830471984E+02  0.83830471984E+02  0.00000000000E+00 0. -1.
          6    2    1    2  502    0  0.68034815585E+02 -0.34216827415E+02  0.82195666419E+02  0.20560926261E+03  0.17239348561E+03 0.  0.
         24    2    3    3    0    0  0.12093714532E+02 -0.52941418066E+02 -0.99241464474E+01  0.96118774416E+02  0.78684677254E+02 0.  0.
         -6    2    1    2    0  501 -0.68034815585E+02  0.34216827415E+02  0.37872369157E+03  0.42297103935E+03  0.17225950819E+03 0.  0.
        -24    2    5    5    0    0 -0.43692234731E+01  0.56216172917E+02  0.11694469418E+03  0.15262383242E+03  0.80241040083E+02 0.  0.
          5    1    3    3  502    0  0.55941101053E+02  0.18724590651E+02  0.92119812867E+02  0.10949048819E+03  0.47000000000E+01 0. -1.
        -13    1    4    4    0    0 -0.48886492616E+01 -0.58752911189E+02  0.19117445995E+02  0.61978062298E+02  0.00000000000E+00 0.  1.
         14    1    4    4    0    0  0.16982363794E+02  0.58114931228E+01 -0.29041592443E+02  0.34140712119E+02  0.00000000000E+00 0. -1.
         -5    1    5    5    0  501 -0.63665592112E+02 -0.21999345502E+02  0.26177899739E+03  0.27034720693E+03  0.47000000000E+01 0.  1.
         13    1    6    6    0    0  0.22800701412E+02 -0.80434991026E+01  0.13042945644E+02  0.27471590667E+02  0.00000000000E+00 0. -1.
        -14    1    6    6    0    0 -0.27169924885E+02  0.64259672020E+02  0.10390174854E+03  0.12515224175E+03  0.00000000000E+00 0.  1.
</event>
<event>
12    1  0.2689284E-002  0.1785869E+03  0.7818608E-02  0.1169178E+00
         -4   -1    0    0    0  501 -0.00000000000E+00  0.00000000000E+00  0.45755936681E+02  0.45755936681E+02  0.00000000000E+00 0.  1.
          4   -1    0    0  502    0  0.00000000000E+00 -0.00000000000E+00 -0.76235081695E+03  0.76235081695E+03  0.00000000000E+00 0. -1.
          6    2    1    2  502    0  0.20094121566E+02  0.45364859641E+02 -0.47619846339E+03  0.50851363804E+03  0.17134584713E+03 0.  0.
         24    2    3    3    0    0 -0.23878713064E+02  0.70628085704E+02 -0.20226165944E+03  0.22988251392E+03  0.79860327419E+02 0.  0.
         -6    2    1    2    0  501 -0.20094121566E+02 -0.45364859641E+02 -0.24039641688E+03  0.29959311559E+03  0.17176685783E+03 0.  0.
        -24    2    5    5    0    0  0.54626062640E+02 -0.17532670625E+02 -0.12418624156E+03  0.15858023844E+03  0.80212643471E+02 0.  0.
          5    1    3    3  502    0  0.43972834630E+02 -0.25263226063E+02 -0.27393680395E+03  0.27863112413E+03  0.47000000000E+01 0. -1.
        -13    1    4    4    0    0 -0.50956765542E+02  0.45169565808E+02 -0.15823978534E+03  0.17226929876E+03  0.00000000000E+00 0.  1.
         14    1    4    4    0    0  0.27078052478E+02  0.25458519896E+02 -0.44021874102E+02  0.57613215157E+02  0.00000000000E+00 0. -1.
         -5    1    5    5    0  501 -0.74720184206E+02 -0.27832189016E+02 -0.11621017533E+03  0.14101287715E+03  0.47000000000E+01 0.  1.
         11    1    6    6    0    0  0.53674254252E+02 -0.16579224730E+02 -0.28697570517E+02  0.63082064136E+02  0.00000000000E+00 0. -1.
        -12    1    6    6    0    0  0.95180838841E+00 -0.95344589441E+00 -0.95488671039E+02  0.95498174302E+02  0.00000000000E+00 0.  1.
</event>
<event>
12    1  0.2689284E-002  0.1908699E+03  0.7818608E-02  0.1157679E+00
         -3   -1    0    0    0  501 -0.00000000000E+00  0.00000000000E+00  0.24972528377E+03  0.24972528377E+03  0.00000000000E+00 0. -1.
          3   -1    0    0  502    0  0.00000000000E+00 -0.00000000000E+00 -0.14846742137E+03  0.14846742137E+03  0.00000000000E+00 0.  1.
          6    2    1    2  502    0  0.38347097642E+02 -0.74724785898E+02  0.76994684867E+02  0.20622178000E+03  0.17188643787E+03 0.  0.
         24    2    3    3    0    0 -0.19564549491E+02 -0.58116722717E+02 -0.10470789626E+02  0.99911451881E+02  0.78181428264E+02 0.  0.
         -6    2    1    2    0  501 -0.38347097642E+02  0.74724785898E+02  0.24263177540E+02  0.19197092514E+03  0.17090886691E+03 0.  0.
        -24    2    5    5    0    0 -0.30263494000E+02 -0.11116270059E+02 -0.29660368437E+02  0.90167829182E+02  0.78810211486E+02 0.  0.
          5    1    3    3  502    0  0.57911647133E+02 -0.16608063181E+02  0.87465474494E+02  0.10631032812E+03  0.47000000000E+01 0. -1.
        -13    1    4    4    0    0 -0.45998088972E+02 -0.40465833440E+02  0.10042418312E+02  0.62081865554E+02  0.00000000000E+00 0.  1.
         14    1    4    4    0    0  0.26433539481E+02 -0.17650889277E+02 -0.20513207938E+02  0.37829586327E+02  0.00000000000E+00 0. -1.
         -5    1    5    5    0  501 -0.80836036418E+01  0.85841055956E+02  0.53923545977E+02  0.10180309596E+03  0.47000000000E+01 0.  1.
         11    1    6    6    0    0 -0.46328803238E+02 -0.30593300011E+02 -0.64847016429E+01  0.55895969179E+02  0.00000000000E+00 0. -1.
        -12    1    6    6    0    0  0.16065309238E+02  0.19477029953E+02 -0.23175666795E+02  0.34271860003E+02  0.00000000000E+00 0.  1.
</event>
<event>
12    1  0.2689284E-002  0.2062134E+03  0.7818608E-02  0.1144600E+00
         -2   -1    0    0    0  501 -0.00000000000E+00  0.00000000000E+00  0.23663965366E+03  0.23663965366E+03  0.00000000000E+00 0. -1.
          2   -1    0    0  502    0  0.00000000000E+00 -0.00000000000E+00 -0.18167482876E+03  0.18167482876E+03  0.00000000000E+00 0.  1.
          6    2    1    2  502    0  0.61828114757E+01  0.11376992668E+03  0.49325221686E+02  0.21227496290E+03  0.17217972879E+03 0.  0.
         24    2    3    3    0    0 -0.11331444490E+02  0.39613929323E+02 -0.36088111479E+02  0.97717603517E+02  0.80924120115E+02 0.  0.
         -6    2    1    2    0  501 -0.61828114757E+01 -0.11376992668E+03  0.56396032192E+01  0.20603951952E+03  0.17157696554E+03 0.  0.
        -24    2    5    5    0    0 -0.16438536237E+02 -0.14267598421E+03  0.11204147724E+02  0.17451501781E+03  0.98505312394E+02 0.  0.
          5    1    3    3  502    0  0.17514255965E+02  0.74155997359E+02  0.85413333165E+02  0.11455735938E+03  0.47000000000E+01 0. -1.
        -13    1    4    4    0    0  0.70019959513E+01 -0.21746104907E+02  0.24485458825E+01  0.22976431465E+02  0.00000000000E+00 0.  1.
         14    1    4    4    0    0 -0.18333440441E+02  0.61360034230E+02 -0.38536657362E+02  0.74741172052E+02  0.00000000000E+00 0. -1.
         -5    1    5    5    0  501  0.10255724762E+02  0.28906057533E+02 -0.55645445048E+01  0.31524501709E+02  0.47000000000E+01 0.  1.
         11    1    6    6    0    0 -0.27355105650E+02 -0.14244925513E+03  0.34225810619E+02  0.14903522471E+03  0.00000000000E+00 0. -1.
        -12    1    6    6    0    0  0.10916569413E+02 -0.22672908266E+00 -0.23021662895E+02  0.25479793097E+02  0.00000000000E+00 0.  1.
</event>
<event>
12    1  0.2689284E-002  0.2038892E+03  0.7818608E-02  0.1146499E+00
         -2   -1    0    0    0  501 -0.00000000000E+00  0.00000000000E+00  0.72419861906E+02  0.72419861906E+02  0.00000000000E+00 0. -1.
          2   -1    0    0  502    0  0.00000000000E+00 -0.00000000000E+00 -0.72640928990E+03  0.72640928990E+03  0.00000000000E+00 0.  1.
          6    2    1    2  502    0 -0.46706648249E+02  0.98422242943E+02 -0.50920103650E+03  0.54829084550E+03  0.17166451817E+03 0.  0.
         24    2    3    3    0    0 -0.68286163005E+02  0.10954881789E+02 -0.35376375483E+03  0.36857147188E+03  0.76896854019E+02 0.  0.
         -6    2    1    2    0  501  0.46706648249E+02 -0.98422242943E+02 -0.14478839150E+03  0.25053830631E+03  0.17302403219E+03 0.  0.
        -24    2    5    5    0    0  0.83405512124E+02 -0.10293280518E+03 -0.87349755985E+02  0.18206613217E+03  0.89254998610E+02 0.  0.
          5    1    3    3  502    0  0.21579514756E+02  0.87467361154E+02 -0.15543728167E+03  0.17971937362E+03  0.47000000000E+01 0. -1.
        -13    1    4    4    0    0 -0.56872636081E+02  0.38773065818E+02 -0.29024568700E+03  0.29829583669E+03  0.00000000000E+00 0.  1.
         14    1    4    4    0    0 -0.11413526924E+02 -0.27818184029E+02 -0.63518067835E+02  0.70275635187E+02  0.00000000000E+00 0. -1.
         -5    1    5    5    0  501 -0.36698863875E+02  0.45105622353E+01 -0.57438635517E+02  0.68472174140E+02  0.47000000000E+01 0.  1.
         11    1    6    6    0    0  0.81927064565E+02 -0.34500730357E+02 -0.33587717041E+02  0.95028832674E+02  0.00000000000E+00 0. -1.
        -12    1    6    6    0    0  0.14784475595E+01 -0.68432074821E+02 -0.53762038944E+02  0.87037299492E+02  0.00000000000E+00 0.  1.
</event>
<event>
12    1  0.2689284E-002  0.1911765E+03  0.7818608E-02  0.1157404E+00
          4   -1    0    0  502    0  0.00000000000E+00  0.00000000000E+00  0.11396338255E+03  0.11396338255E+03  0.00000000000E+00 0.  1.
         -4   -1    0    0    0  501 -0.00000000000E+00 -0.00000000000E+00 -0.35334784296E+03  0.35334784296E+03  0.00000000000E+00 0. -1.
          6    2    1    2  502    0  0.71269563122E+02 -0.47160143928E+02 -0.19139025876E+03  0.27138281812E+03  0.17238031505E+03 0.  0.
         24    2    3    3    0    0  0.11063550661E+02  0.33676618980E+02 -0.87241727089E+02  0.12637125712E+03  0.84273713936E+02 0.  0.
         -6    2    1    2    0  501 -0.71269563122E+02  0.47160143928E+02 -0.47994201649E+02  0.19592840739E+03  0.16964983828E+03 0.  0.
        -24    2    5    5    0    0 -0.56246072952E+02 -0.24794490531E+02 -0.65067395668E+02  0.12031915775E+03  0.80402402076E+02 0.  0.
          5    1    3    3  502    0  0.60206012461E+02 -0.80836762908E+02 -0.10414853167E+03  0.14501156100E+03  0.47000000000E+01 0. -1.
        -13    1    4    4    0    0  0.46395953065E+02  0.29997737214E+02 -0.45605026711E+02  0.71639843384E+02  0.00000000000E+00 0.  1.
         14    1    4    4    0    0 -0.35332402405E+02  0.36788817663E+01 -0.41636700377E+02  0.54731413731E+02  0.00000000000E+00 0. -1.
         -5    1    5    5    0  501 -0.15023490170E+02  0.71954634459E+02  0.17073194019E+02  0.75609249640E+02  0.47000000000E+01 0.  1.
         13    1    6    6    0    0 -0.58434524093E+02  0.12884595273E+02 -0.23806707004E+02  0.64400044252E+02  0.00000000000E+00 0. -1.
        -14    1    6    6    0    0  0.21884511409E+01 -0.37679085805E+02 -0.41260688664E+02  0.55919113499E+02  0.00000000000E+00 0.  1.
</event>
<event>
12    1  0.2689284E-002  0.2062783E+03  0.7818608E-02  0.1144548E+00
          2   -1    0    0  502    0  0.00000000000E+00  0.00000000000E+00  0.83281027310E+02  0.83281027310E+02  0.00000000000E+00 0.  1.
         -2   -1    0    0    0  501 -0.00000000000E+00 -0.00000000000E+00 -0.68191097184E+03  0.68191097184E+03  0.00000000000E+00 0. -1.
          6    2    1    2  502    0  0.10270074377E+03 -0.51101033772E+02 -0.10773901829E+03  0.23272330736E+03  0.17144586114E+03 0.  0.
         24    2    3    3    0    0  0.63685303254E+02 -0.98302872840E+02 -0.54876208409E+02  0.15168760610E+03  0.79236727183E+02 0.  0.
         -6    2    1    2    0  501 -0.10270074377E+03  0.51101033772E+02 -0.49089092625E+03  0.53246869180E+03  0.17143584179E+03 0.  0.
        -24    2    5    5    0    0 -0.20929534348E+02  0.77916829004E+02 -0.33956260150E+03  0.35831941837E+03  0.81123163109E+02 0.  0.
          5    1    3    3  502    0  0.39015440520E+02  0.47201839068E+02 -0.52862809878E+02  0.81035701259E+02  0.47000000000E+01 0. -1.
        -11    1    4    4    0    0  0.21452331712E+02  0.10137948520E+02 -0.18427621264E+01  0.23798661902E+02  0.00000000000E+00 0.  1.
         12    1    4    4    0    0  0.42232971542E+02 -0.10844082136E+03 -0.53033446283E+02  0.12788894419E+03  0.00000000000E+00 0. -1.
         -5    1    5    5    0  501 -0.81771209426E+02 -0.26815795232E+02 -0.15132832475E+03  0.17414927343E+03  0.47000000000E+01 0.  1.
         13    1    6    6    0    0 -0.27243351169E+02  0.15883426060E+02 -0.33652356454E+02  0.46119025372E+02  0.00000000000E+00 0. -1.
        -14    1    6    6    0    0  0.63138168214E+01  0.62033402945E+02 -0.30591024505E+03  0.31220039300E+03  0.00000000000E+00 0.  1.
</event>
<event>
12    1  0.2689284E-002  0.1755278E+03  0.7818608E-02  0.1172203E+00
         -1   -1    0    0    0  501 -0.00000000000E+00  0.00000000000E+00  0.18297582874E+04  0.18297582874E+04  0.00000000000E+00 0.  1.
          1   -1    0    0  502    0  0.00000000000E+00 -0.00000000000E+00 -0.29849457598E+02  0.29849457598E+02  0.00000000000E+00 0. -1.
          6    2    1    2  502    0 -0.21690429285E+02  0.26698212078E+02  0.28794814760E+03  0.33756640633E+03  0.17278215684E+03 0.  0.
         24    2    3    3    0    0 -0.20470265885E+02 -0.19262803060E+02  0.57283256572E+02  0.10231699471E+03  0.79983176705E+02 0.  0.
         -6    2    1    2    0  501  0.21690429285E+02 -0.26698212078E+02  0.15119606822E+04  0.15220413387E+04  0.17146854774E+03 0.  0.
        -24    2    5    5    0    0  0.73315461527E+02  0.12670177127E+02  0.87722566048E+03  0.88397735143E+03  0.79720813753E+02 0.  0.
          5    1    3    3  502    0 -0.12201634002E+01  0.45961015137E+02  0.23066489103E+03  0.23524941162E+03  0.47000000000E+01 0. -1.
        -11    1    4    4    0    0  0.84180601431E+01 -0.39001000785E+02  0.54048447201E+02  0.67180178949E+02  0.00000000000E+00 0.  1.
         12    1    4    4    0    0 -0.28888326028E+02  0.19738197725E+02  0.32348093701E+01  0.35136815760E+02  0.00000000000E+00 0. -1.
         -5    1    5    5    0  501 -0.51625032242E+02 -0.39368389205E+02  0.63473502172E+03  0.63806398725E+03  0.47000000000E+01 0.  1.
         11    1    6    6    0    0  0.85910786716E+02 -0.53059323669E+01  0.74295801854E+03  0.74792742530E+03  0.00000000000E+00 0. -1.
        -12    1    6    6    0    0 -0.12595325189E+02  0.17976109494E+02  0.13426764194E+03  0.13604992613E+03  0.00000000000E+00 0.  1.
</event>
<event>
12    1  0.2689284E-002  0.2045703E+03  0.7818608E-02  0.1145939E+00
          2   -1    0    0  502    0  0.00000000000E+00  0.00000000000E+00  0.42984739572E+02  0.42984739572E+02  0.00000000000E+00 0.  1.
         -2   -1    0    0    0  501 -0.00000000000E+00 -0.00000000000E+00 -0.10236671080E+04  0.10236671080E+04  0.00000000000E+00 0. -1.
          6    2    1    2  502    0 -0.82122257048E+02 -0.73968620287E+02 -0.37390498070E+03  0.42653065647E+03  0.17293942414E+03 0.  0.
         24    2    3    3    0    0 -0.23665426979E+01  0.89308785665E+01 -0.22150221633E+03  0.23552805578E+03  0.79529064522E+02 0.  0.
         -6    2    1    2    0  501  0.82122257048E+02  0.73968620287E+02 -0.60677738775E+03  0.64012119113E+03  0.17135028204E+03 0.  0.
        -24    2    5    5    0    0  0.35583720536E+02  0.30332189718E+02 -0.13485868556E+03  0.16388666389E+03  0.80534033989E+02 0.  0.
          5    1    3    3  502    0 -0.79755714350E+02 -0.82899498854E+02 -0.15240276437E+03  0.19100260069E+03  0.47000000000E+01 0. -1.
        -11    1    4    4    0    0  0.13842300526E+02  0.41278327291E+02 -0.11000503017E+03  0.11830729585E+03  0.00000000000E+00 0.  1.
         12    1    4    4    0    0 -0.16208843224E+02 -0.32347448725E+02 -0.11149718616E+03  0.11722075993E+03  0.00000000000E+00 0. -1.
         -5    1    5    5    0  501  0.46538536512E+02  0.43636430569E+02 -0.47191870219E+03  0.47623452724E+03  0.47000000000E+01 0.  1.
         13    1    6    6    0    0 -0.18269512748E+02 -0.29681970137E+01 -0.73213502981E+02  0.75516900813E+02  0.00000000000E+00 0. -1.
        -14    1    6    6    0    0  0.53853233283E+02  0.33300386732E+02 -0.61645182575E+02  0.88369763077E+02  0.00000000000E+00 0.  1.
</event>
<event>
12    1  0.2689284E-002  0.1821422E+03  0.7818608E-02  0.1165746E+00
          1   -1    0    0  502    0  0.00000000000E+00  0.00000000000E+00  0.23959669439E+03  0.23959669439E+03  0.00000000000E+00 0. -1.
         -1   -1    0    0    0  501 -0.00000000000E+00 -0.00000000000E+00 -0.14273510335E+03  0.14273510335E+03  0.00000000000E+00 0.  1.
          6    2    1    2  502    0  0.44469109685E+00 -0.50891792472E+02  0.81460613827E+02  0.19940702130E+03  0.17474883761E+03 0.  0.
         24    2    3    3    0    0  0.33351683287E+02  0.36816130445E+02  0.42698077961E+02  0.97917248100E+02  0.72779800597E+02 0.  0.
         -6    2    1    2    0  501 -0.44469109685E+00  0.50891792472E+02  0.15400977208E+02  0.18292477644E+03  0.17502603077E+03 0.  0.
        -24    2    5    5    0    0  0.18063075508E+02 -0.34608984905E+02  0.20409190923E+02  0.95174605153E+02  0.84365952013E+02 0.  0.
          5    1    3    3  502    0 -0.32906992190E+02 -0.87707922917E+02  0.38762535866E+02  0.10148977320E+03  0.47000000000E+01 0. -1.
        -13    1    4    4    0    0  0.18302512381E+02  0.30195230343E+02 -0.14673223315E+02  0.38236597356E+02  0.00000000000E+00 0.  1.
         14    1    4    4    0    0  0.15049170906E+02  0.66209001024E+01  0.57371301276E+02  0.59680650744E+02  0.00000000000E+00 0. -1.
         -5    1    5    5    0  501 -0.18507766605E+02  0.85500777377E+02 -0.50082137150E+01  0.87750171290E+02  0.47000000000E+01 0.  1.
         11    1    6    6    0    0 -0.18071631282E+02 -0.19351456948E+02  0.42563216835E+02  0.50126741072E+02  0.00000000000E+00 0. -1.
        -12    1    6    6    0    0  0.36134706790E+02 -0.15257527957E+02 -0.22154025912E+02  0.45047864081E+02  0.00000000000E+00 0.  1.
</event>
<event>
12    1  0.2689284E-002  0.1877199E+03  0.7818608E-02  0.1160534E+00
         -1   -1    0    0    0  501 -0.00000000000E+00  0.00000000000E+00  0.16908819610E+03  0.16908819610E+03  0.00000000000E+00 0. -1.
          1   -1    0    0  502    0  0.00000000000E+00 -0.00000000000E+00 -0.26073573642E+03  0.26073573642E+03  0.00000000000E+00 0.  1.
          6    2    1    2  502    0 -0.47901732404E+02 -0.66522374234E+02  0.50918732339E+02  0.19202226975E+03  0.16601214575E+03 0.  0.
         24    2    3    3    0    0 -0.64234065217E+02 -0.95942962486E+02  0.13788468251E+02  0.14169272952E+03  0.80966910266E+02 0.  0.
         -6    2    1    2    0  501  0.47901732404E+02  0.66522374234E+02 -0.14256627266E+03  0.23780166276E+03  0.17176928268E+03 0.  0.
        -24    2    5    5    0    0  0.23226831114E+02  0.11059064976E+03 -0.11593040306E+03  0.18050922686E+03  0.79836990999E+02 0.  0.
          5    1    3    3  502    0  0.16332332813E+02  0.29420588252E+02  0.37130264088E+02  0.50329540227E+02  0.47000000000E+01 0. -1.
        -13    1    4    4    0    0 -0.62839372267E+02 -0.32196256597E+02 -0.14262304628E+02  0.72033318534E+02  0.00000000000E+00 0.  1.
         14    1    4    4    0    0 -0.13946929500E+01 -0.63746705889E+02  0.28050772879E+02  0.69659410988E+02  0.00000000000E+00 0. -1.
         -5    1    5    5    0  501  0.24674901290E+02 -0.44068275527E+02 -0.26635869604E+02  0.57292435898E+02  0.47000000000E+01 0.  1.
         11    1    6    6    0    0 -0.49281097678E+01  0.50385467956E+01 -0.54947832850E+02  0.55397992334E+02  0.00000000000E+00 0. -1.
        -12    1    6    6    0    0  0.28154940882E+02  0.10555210297E+03 -0.60982570205E+02  0.12511123453E+03  0.00000000000E+00 0.  1.
</event>
<event>
12    1  0.2689284E-002  0.2865992E+03  0.7818608E-02  0.1092138E+00
         -2   -1    0    0    0  501 -0.00000000000E+00  0.00000000000E+00  0.62861633923E+02  0.62861633923E+02  0.00000000000E+00 0. -1.
          2   -1    0    0  502    0  0.00000000000E+00 -0.00000000000E+00 -0.25394428732E+04  0.25394428732E+04  0.00000000000E+00 0.  1.
          6    2    1    2  502    0  0.19886565857E+03 -0.11412109930E+03 -0.21457307231E+04  0.21648382178E+04  0.17260648199E+03 0.  0.
         24    2    3    3    0    0  0.17928662906E+03 -0.10042945123E+03 -0.21108134937E+04  0.21222694201E+04  0.79146171440E+02 0.  0.
         -6    2    1    2    0  501 -0.19886565857E+03  0.11412109930E+03 -0.33085051613E+03  0.43746628930E+03  0.17129948857E+03 0.  0.
        -24    2    5    5    0    0 -0.38953702773E+02  0.28211684652E+00 -0.11564215111E+03  0.14614537019E+03  0.80423202909E+02 0.  0.
          5    1    3    3  502    0  0.19579029516E+02 -0.13691648069E+02 -0.34917229440E+02  0.42568797674E+02  0.47000000000E+01 0. -1.
        -13    1    4    4    0    0  0.10977508706E+03 -0.52002729993E+02 -0.15877605315E+04  0.15924001881E+04  0.00000000000E+00 0.  1.
         14    1    4    4    0    0  0.69511541999E+02 -0.48426721234E+02 -0.52305296212E+03  0.52986923197E+03  0.00000000000E+00 0. -1.
         -5    1    5    5    0  501 -0.15991195580E+03  0.11383898245E+03 -0.21520836502E+03  0.29132091911E+03  0.47000000000E+01 0.  1.
         11    1    6    6    0    0 -0.22419381673E+02  0.26290318127E+02 -0.98100401055E+01  0.35917215770E+02  0.00000000000E+00 0. -1.
        -12    1    6    6    0    0 -0.16534321100E+02 -0.26008201281E+02 -0.10583211100E+03  0.11022815442E+03  0.00000000000E+00 0.  1.
</event>
<event>
12    1  0.2689284E-002  0.2147940E+03  0.7818608E-02  0.1137825E+00
          1   -1    0    0  502    0  0.00000000000E+00  0.00000000000E+00  0.23247983334E+04  0.23247983334E+04  0.00000000000E+00 0.  1.
         -1   -1    0    0    0  501 -0.00000000000E+00 -0.00000000000E+00 -0.20516837742E+02  0.20516837742E+02  0.00000000000E+00 0. -1.
          6    2    1    2  502    0  0.12462665810E+03 -0.27769317706E+02  0.93895874486E+03  0.96316871725E+03  0.17247467763E+03 0.  0.
         24    2    3    3    0    0  0.14259000783E+03  0.43041941126E+00  0.88018048465E+03  0.89538316584E+03  0.81616374074E+02 0.  0.
         -6    2    1    2    0  501 -0.12462665810E+03  0.27769317706E+02  0.13653227508E+04  0.13821464539E+04  0.17297302462E+03 0.  0.
        -24    2    5    5    0    0 -0.15127715468E+03  0.17767166482E+02  0.92398722675E+03  0.93986890893E+03  0.80004506333E+02 0.  0.
          5    1    3    3  502    0 -0.17963349723E+02 -0.28199737117E+02  0.58778260214E+02  0.67785551414E+02  0.47000000000E+01 0. -1.
        -11    1    4    4    0    0  0.88933686080E+02  0.34547065316E+02  0.63328415904E+03  0.64043073500E+03  0.00000000000E+00 0.  1.
         12    1    4    4    0    0  0.53656321746E+02 -0.34116645905E+02  0.24689632561E+03  0.25495243084E+03  0.00000000000E+00 0. -1.
         -5    1    5    5    0  501  0.26650496574E+02  0.10002151224E+02  0.44133552405E+03  0.44227754497E+03  0.47000000000E+01 0.  1.
         11    1    6    6    0    0 -0.35557971447E+01  0.14942827989E+02  0.22047337494E+03  0.22100778461E+03  0.00000000000E+00 0. -1.
        -12    1    6    6    0    0 -0.14772135753E+03  0.28243384928E+01  0.70351385181E+03  0.71886112431E+03  0.00000000000E+00 0.  1.
</event>
<event>
12    1  0.2689284E-002  0.2120119E+03  0.7818608E-02  0.1139983E+00
          2   -1    0    0  502    0  0.00000000000E+00  0.00000000000E+00  0.46038575647E+03  0.46038575647E+03  0.00000000000E+00 0. -1.
         -2   -1    0    0    0  501 -0.00000000000E+00 -0.00000000000E+00 -0.13509183304E+03  0.13509183304E+03  0.00000000000E+00 0.  1.
          6    2    1    2  502    0  0.89213206714E+02 -0.85759143528E+02  0.55305342372E+01  0.21147745400E+03  0.17140157464E+03 0.  0.
         24    2    3    3    0    0  0.43797735650E+02  0.87763240931E+01  0.42735391991E+02  0.10009607723E+03  0.78725125824E+02 0.  0.
         -6    2    1    2    0  501 -0.89213206714E+02  0.85759143528E+02  0.31976338920E+03  0.38400013551E+03  0.17289838648E+03 0.  0.
        -24    2    5    5    0    0 -0.84221102414E+02 -0.10394570541E+02  0.16040114283E+03  0.19775064315E+03  0.78584661718E+02 0.  0.
          5    1    3    3  502    0  0.45415471064E+02 -0.94535467621E+02 -0.37204857753E+02  0.11138137677E+03  0.47000000000E+01 0. -1.
        -11    1    4    4    0    0  0.41872614092E+02 -0.22010040451E+02 -0.10600053185E+00  0.47305062389E+02  0.00000000000E+00 0.  1.
         12    1    4    4    0    0  0.19251215581E+01  0.30786364544E+02  0.42841392523E+02  0.52791014843E+02  0.00000000000E+00 0. -1.
         -5    1    5    5    0  501 -0.49921043005E+01  0.96153714070E+02  0.15936224637E+03  0.18624949235E+03  0.47000000000E+01 0.  1.
         13    1    6    6    0    0 -0.46558067072E+02 -0.15333288566E+02  0.21105448389E+02  0.53368560965E+02  0.00000000000E+00 0. -1.
        -14    1    6    6    0    0 -0.37663035341E+02  0.49387180247E+01  0.13929569444E+03  0.14438208219E+03  0.00000000000E+00 0.  1.
</event>
<event>
12    1  0.2689284E-002  0.2932207E+03  0.7818608E-02  0.1088679E+00
          2   -1    0    0  502    0  0.00000000000E+00  0.00000000000E+00  0.15563946117E+04  0.15563946117E+04  0.00000000000E+00 0. -1.
         -2   -1    0    0    0  501 -0.00000000000E+00 -0.00000000000E+00 -0.55906965543E+02  0.55906965543E+02  0.00000000000E+00 0.  1.
          6    2    1    2  502    0  0.10023502375E+03 -0.21560102258E+03  0.83913211865E+03  0.88901527823E+03  0.17226314596E+03 0.  0.
         24    2    3    3    0    0  0.11731815321E+03 -0.13970894359E+03  0.71793850784E+03  0.74492703351E+03  0.78730211619E+02 0.  0.
         -6    2    1    2    0  501 -0.10023502375E+03  0.21560102258E+03  0.66135552746E+03  0.72328629897E+03  0.17094173172E+03 0.  0.
        -24    2    5    5    0    0 -0.12424503976E+03  0.19285584138E+03  0.47188865935E+03  0.53089708864E+03  0.80886379861E+02 0.  0.
          5    1    3    3  502    0 -0.17083129459E+02 -0.75892078994E+02  0.12119361080E+03  0.14408824472E+03  0.47000000000E+01 0. -1.
        -13    1    4    4    0    0  0.56898115318E+02 -0.57735258674E+02  0.17965652572E+03  0.19709698844E+03  0.00000000000E+00 0.  1.
         14    1    4    4    0    0  0.60420037888E+02 -0.81973684911E+02  0.53828198213E+03  0.54783004507E+03  0.00000000000E+00 0. -1.
         -5    1    5    5    0  501  0.24010016014E+02  0.22745181202E+02  0.18946686811E+03  0.19238921033E+03  0.47000000000E+01 0.  1.
         11    1    6    6    0    0 -0.76911559864E+02  0.58613697014E+02  0.24074869500E+03  0.25944341900E+03  0.00000000000E+00 0. -1.
        -12    1    6    6    0    0 -0.47333479897E+02  0.13424214436E+03  0.23113996435E+03  0.27145366964E+03  0.00000000000E+00 0.  1.
</event>
<event>
12    1  0.2689284E-002  0.1858908E+03  0.7818608E-02  0.1162221E+00
         -2   -1    0    0    0  501 -0.00000000000E+00  0.00000000000E+00  0.10584187643E+03  0.10584187643E+03  0.00000000000E+00 0.  1.
          2   -1    0    0  502    0  0.00000000000E+00 -0.00000000000E+00 -0.51646631460E+03  0.51646631460E+03  0.00000000000E+00 0. -1.
          6    2    1    2  502    0 -0.22917320925E+02  0.66472046829E+02 -0.16775614812E+02  0.18690505594E+03  0.17236108051E+03 0.  0.
         24    2    3    3    0    0  0.23087795927E+02 -0.21639788084E+02 -0.20369657530E+02  0.87330092361E+02  0.78805427064E+02 0.  0.
         -6    2    1    2    0  501  0.22917320925E+02 -0.66472046829E+02 -0.39384882335E+03  0.43540313509E+03  0.17180005174E+03 0.  0.
        -24    2    5    5    0    0  0.18140187245E+01  0.23359108519E+02 -0.12036107707E+03  0.14672923047E+03  0.80583742704E+02 0.  0.
          5    1    3    3  502    0 -0.46005116852E+02  0.88111834913E+02  0.35940427185E+01  0.99574963577E+02  0.47000000000E+01 0. -1.
        -13    1    4    4    0    0  0.49787369914E+01 -0.92395953169E+01  0.30324147231E+02  0.32089123530E+02  0.00000000000E+00 0.  1.
         14    1    4    4    0    0  0.18109058935E+02 -0.12400192767E+02 -0.50693804761E+02  0.55240968831E+02  0.00000000000E+00 0. -1.
         -5    1    5    5    0  501  0.21103302201E+02 -0.89831155348E+02 -0.27348774629E+03  0.28867390461E+03  0.47000000000E+01 0.  1.
         13    1    6    6    0    0  0.26512292230E+02  0.37356229082E+02 -0.10475684819E+03  0.11433453867E+03  0.00000000000E+00 0. -1.
        -14    1    6    6    0    0 -0.24698273505E+02 -0.13997120563E+02 -0.15604228878E+02  0.32394691804E+02  0.00000000000E+00 0.  1.
</event>
<event>
12    1  0.2689284E-002  0.2418604E+03  0.7818608E-02  0.1118560E+00
          2   -1    0    0  502    0  0.00000000000E+00  0.00000000000E+00  0.62207624018E+03  0.62207624018E+03  0.00000000000E+00 0. -1.
         -2   -1    0    0    0  501 -0.00000000000E+00 -0.00000000000E+00 -0.97543553990E+02  0.97543553990E+02  0.00000000000E+00 0.  1.
          6    2    1    2  502    0 -0.16837134967E+03 -0.31973832847E+02  0.19438531306E+03  0.31056567013E+03  0.17115533342E+03 0.  0.
         24    2    3    3    0    0 -0.15486736728E+03 -0.59604411167E+02  0.96142169180E+02  0.20751416982E+03  0.79260498992E+02 0.  0.
         -6    2    1    2    0  501  0.16837134967E+03  0.31973832847E+02  0.33014737314E+03  0.40905412404E+03  0.17016683293E+03 0.  0.
        -24    2    5    5    0    0  0.17391271321E+03  0.22780932202E+02  0.20040082015E+03  0.27877951353E+03  0.82419207464E+02 0.  0.
          5    1    3    3  502    0 -0.13503982387E+02  0.27630578320E+02  0.98243143876E+02  0.10305150032E+03  0.47000000000E+01 0. -1.
        -13    1    4    4    0    0 -0.13515536136E+03 -0.25364345470E+02  0.48950318824E+02  0.14596730949E+03  0.00000000000E+00 0.  1.
         14    1    4    4    0    0 -0.19712005921E+02 -0.34240065697E+02  0.47191850357E+02  0.61546860330E+02  0.00000000000E+00 0. -1.
         -5    1    5    5    0  501 -0.55413635397E+01  0.91929006446E+01  0.12974655298E+03  0.13027461051E+03  0.47000000000E+01 0.  1.
         11    1    6    6    0    0  0.63848494145E+02  0.10051914509E+02  0.13611725268E+03  0.15068370073E+03  0.00000000000E+00 0. -1.
        -12    1    6    6    0    0  0.11006421906E+03  0.12729017693E+02  0.64283567479E+02  0.12809581280E+03  0.00000000000E+00 0.  1.
</event>
<event>
12    1  0.2689284E-002  0.2563404E+03  0.7818608E-02  0.1109362E+00
          1   -1    0    0  502    0  0.00000000000E+00  0.00000000000E+00  0.37260137435E+03  0.37260137435E+03  0.00000000000E+00 0. -1.
         -1   -1    0    0    0  501 -0.00000000000E+00 -0.00000000000E+00 -0.19592808022E+03  0.19592808022E+03  0.00000000000E+00 0.  1.
          6    2    1    2  502    0 -0.62444063516E+02 -0.17704775198E+03 -0.26628715974E+01  0.25230241194E+03  0.16853560051E+03 0.  0.
         24    2    3    3    0    0 -0.40625874219E+02 -0.72366516569E+02 -0.62085658084E+02  0.12987957100E+03  0.78273237103E+02 0.  0.
         -6    2    1    2    0  501  0.62444063516E+02  0.17704775198E+03  0.17933616572E+03  0.31622704262E+03  0.18053507859E+03 0.  0.
        -24    2    5    5    0    0  0.15423022067E+02  0.22337556315E+02  0.11375428273E+03  0.14167247706E+03  0.79963853614E+02 0.  0.
          5    1    3    3  502    0 -0.21818189297E+02 -0.10468123541E+03  0.59422786486E+02  0.12242284095E+03  0.47000000000E+01 0. -1.
        -13    1    4    4    0    0 -0.42806969345E+02 -0.60711381674E+02 -0.82366937040E+01  0.74740562029E+02  0.00000000000E+00 0.  1.
         14    1    4    4    0    0  0.21810951254E+01 -0.11655134895E+02 -0.53848964380E+02  0.55139008969E+02  0.00000000000E+00 0. -1.
         -5    1    5    5    0  501  0.47021041449E+02  0.15471019567E+03  0.65581882990E+02  0.17455456556E+03  0.47000000000E+01 0.  1.
         13    1    6    6    0    0  0.19108381525E+02  0.39567774892E+02  0.23726854707E+02  0.49936987181E+02  0.00000000000E+00 0. -1.
        -14    1    6    6    0    0 -0.36853594583E+01 -0.17230218577E+02  0.90027428025E+02  0.91735489879E+02  0.00000000000E+00 0.  1.
</event>
<event>
12    1  0.2689284E-002  0.2906386E+03  0.7818608E-02  0.1090016E+00
         -2   -1    0    0    0  501 -0.00000000000E+00  0.00000000000E+00  0.66727710528E+03  0.66727710528E+03  0.00000000000E+00 0.  1.
          2   -1    0    0  502    0  0.00000000000E+00 -0.00000000000E+00 -0.15717242882E+03  0.15717242882E+03  0.00000000000E+00 0. -1.
          6    2    1    2  502    0  0.88320479553E+02  0.21583746312E+03  0.43612852141E+03  0.52350847992E+03  0.17165874218E+03 0.  0.
         24    2    3    3    0    0 -0.12583650552E+02  0.12157877579E+03  0.21172916683E+03  0.25998712605E+03  0.88455178720E+02 0.  0.
         -6    2    1    2    0  501 -0.88320479553E+02 -0.21583746312E+03  0.73976155047E+02  0.30094105418E+03  0.17523335579E+03 0.  0.
        -24    2    5    5    0    0 -0.69916466335E+02 -0.10567483642E+03  0.10729365487E+03  0.18429347462E+03  0.79979204144E+02 0.  0.
          5    1    3    3  502    0  0.10090413011E+03  0.94258687326E+02  0.22439935458E+03  0.26352135387E+03  0.47000000000E+01 0. -1.
        -11    1    4    4    0    0  0.18370994145E+02  0.64783134808E+02  0.17041269084E+03  0.18323436681E+03  0.00000000000E+00 0.  1.
         12    1    4    4    0    0 -0.30954644698E+02  0.56795640983E+02  0.41316475993E+02  0.76752759244E+02  0.00000000000E+00 0. -1.
         -5    1    5    5    0  501 -0.18404013218E+02 -0.11016262669E+03 -0.33317499821E+02  0.11664757956E+03  0.47000000000E+01 0.  1.
         13    1    6    6    0    0 -0.94625862161E+01 -0.29215661234E+02 -0.95232154836E+01  0.32152558723E+02  0.00000000000E+00 0. -1.
        -14    1    6    6    0    0 -0.60453880119E+02 -0.76459175190E+02  0.11681687035E+03  0.15214091590E+03  0.00000000000E+00 0.  1.
</event>
<event>
12    1  0.2689284E-002  0.3168726E+03  0.7818608E-02  0.1077098E+00
         -1   -1    0    0    0  501 -0.00000000000E+00  0.00000000000E+00  0.10336567189E+03  0.10336567189E+03  0.00000000000E+00 0.  1.
          1   -1    0    0  502    0  0.00000000000E+00 -0.00000000000E+00 -0.10632955593E+04  0.10632955593E+04  0.00000000000E+00 0. -1.
          6    2    1    2  502    0  0.10698655154E+03  0.24323010703E+03 -0.30693295791E+03  0.44035319209E+03  0.17057574844E+03 0.  0.
         24    2    3    3    0    0  0.57760232907E+02  0.16509083282E+03 -0.28641058942E+03  0.34563131379E+03  0.82696745741E+02 0.  0.
         -6    2    1    2    0  501 -0.10698655154E+03 -0.24323010703E+03 -0.65299692950E+03  0.72630803909E+03  0.17467504271E+03 0.  0.
        -24    2    5    5    0    0 -0.88567929502E+02 -0.24083858688E+03 -0.46188706049E+03  0.53424024627E+03  0.78901717492E+02 0.  0.
          5    1    3    3  502    0  0.49226318633E+02  0.78139274205E+02 -0.20522368496E+02  0.94721878297E+02  0.47000000000E+01 0. -1.
        -13    1    4    4    0    0  0.59918865862E+02  0.49513583873E+02 -0.12167520532E+03  0.14438393631E+03  0.00000000000E+00 0.  1.
         14    1    4    4    0    0 -0.21586329542E+01  0.11557724895E+03 -0.16473538410E+03  0.20124737748E+03  0.00000000000E+00 0. -1.
         -5    1    5    5    0  501 -0.18418622038E+02 -0.23915201423E+01 -0.19110986901E+03  0.19206779282E+03  0.47000000000E+01 0.  1.
         13    1    6    6    0    0  0.14307935263E+02 -0.25793644965E+02 -0.62681615555E+02  0.69274916533E+02  0.00000000000E+00 0. -1.
        -14    1    6    6    0    0 -0.10287586477E+03 -0.21504494192E+03 -0.39920544493E+03  0.46496532974E+03  0.00000000000E+00 0.  1.
</event>
<event>
12    1  0.2689284E-002  0.1729649E+03  0.7818608E-02  0.1174791E+00
          1   -1    0    0  502    0  0.00000000000E+00  0.00000000000E+00  0.35428554649E+03  0.35428554649E+03  0.00000000000E+00 0. -1.
         -1   -1    0    0    0  501 -0.00000000000E+00 -0.00000000000E+00 -0.13173251337E+03  0.13173251337E+03  0.00000000000E+00 0.  1.
          6    2    1    2  502    0  0.13635190282E+01  0.32444078258E+01 -0.33361751239E+02  0.17838433314E+03  0.17520153681E+03 0.  0.
         24    2    3    3    0    0  0.47055827275E+02  0.47942100259E+01 -0.70720241007E+02  0.11915650457E+03  0.83424725129E+02 0.  0.
         -6    2    1    2    0  501 -0.13635190282E+01 -0.32444078258E+01  0.25591478435E+03  0.30763372672E+03  0.17068610839E+03 0.  0.
        -24    2    5    5    0    0  0.13938900825E+02 -0.67209246855E+02  0.16095111805E+03  0.19202294606E+03  0.79095977105E+02 0.  0.
          5    1    3    3  502    0 -0.45692308247E+02 -0.15498022002E+01  0.37358489767E+02  0.59227828573E+02  0.47000000000E+01 0. -1.
        -13    1    4    4    0    0 -0.22596268182E+01  0.12551884548E+01 -0.69654805646E+02  0.69702750024E+02  0.00000000000E+00 0.  1.
         14    1    4    4    0    0  0.49315454094E+02  0.35390215711E+01 -0.10654353612E+01  0.49453754546E+02  0.00000000000E+00 0. -1.
         -5    1    5    5    0  501 -0.15302419853E+02  0.63964839029E+02  0.94963666306E+02  0.11561078066E+03  0.47000000000E+01 0.  1.
         13    1    6    6    0    0  0.26218663967E+02 -0.75077611450E+02  0.15836587533E+03  0.17721122016E+03  0.00000000000E+00 0. -1.
        -14    1    6    6    0    0 -0.12279763142E+02  0.78683645947E+01  0.25852427136E+01  0.14811725899E+02  0.00000000000E+00 0.  1.
</event>
<event>
12    1  0.2689284E-002  0.2128450E+03  0.7818608E-02  0.1139333E+00
         -1   -1    0    0    0  501 -0.00000000000E+00  0.00000000000E+00  0.44948137611E+03  0.44948137611E+03  0.00000000000E+00 0. -1.
          1   -1    0    0  502    0  0.00000000000E+00 -0.00000000000E+00 -0.10434535074E+03  0.10434535074E+03  0.00000000000E+00 0.  1.
          6    2    1    2  502    0  0.10005728437E+03 -0.79047280271E+02  0.12264795394E+03  0.24694454785E+03  0.17227639546E+03 0.  0.
         24    2    3    3    0    0 -0.10073428999E+02 -0.66754171981E+02  0.49163578886E+02  0.11389591796E+03  0.77444361907E+02 0.  0.
         -6    2    1    2    0  501 -0.10005728437E+03  0.79047280271E+02  0.22248807143E+03  0.30688217899E+03  0.16856985846E+03 0.  0.
        -24    2    5    5    0    0 -0.71903225711E+02  0.10086986894E+03  0.98350657054E+02  0.17764958232E+03  0.80880887892E+02 0.  0.
          5    1    3    3  502    0  0.11013071337E+03 -0.12293108290E+02  0.73484375050E+02  0.13304862988E+03  0.47000000000E+01 0. -1.
        -13    1    4    4    0    0 -0.19992581148E+02  0.50132326485E+01 -0.74849233181E+01  0.21928517497E+02  0.00000000000E+00 0.  1.
         14    1    4    4    0    0  0.99191521491E+01 -0.71767404630E+02  0.56648502204E+02  0.91967400467E+02  0.00000000000E+00 0. -1.
         -5    1    5    5    0  501 -0.28154058656E+02 -0.21822588669E+02  0.12413741438E+03  0.12923259668E+03  0.47000000000E+01 0.  1.
         11    1    6    6    0    0  0.98884850239E+01  0.51114239774E+02  0.30950141116E+02  0.60566978452E+02  0.00000000000E+00 0. -1.
        -12    1    6    6    0    0 -0.81791710735E+02  0.49755629166E+02  0.67400515938E+02  0.11708260386E+03  0.00000000000E+00 0.  1.
</event>
<event>
12    1  0.2689284E-002  0.1760490E+03  0.7818608E-02  0.1171683E+00
          1   -1    0    0  502    0  0.00000000000E+00  0.00000000000E+00  0.32626338071E+03  0.32626338071E+03  0.00000000000E+00 0.  1.
         -1   -1    0    0    0  501 -0.00000000000E+00 -0.00000000000E+00 -0.13241513877E+03  0.13241513877E+03  0.00000000000E+00 0. -1.
          6    2    1    2  502    0 -0.36837208338E+02  0.44749120621E+01 -0.24774173094E+02  0.17832828952E+03  0.17265634779E+03 0.  0.
         24    2    3    3    0    0 -0.82067244201E+02  0.31210490158E+02  0.67543929077E+01  0.11687352766E+03  0.76841866054E+02 0.  0.
         -6    2    1    2    0  501  0.36837208338E+02 -0.44749120621E+01  0.21862241504E+03  0.28035022996E+03  0.17153275584E+03 0.  0.
        -24    2    5    5    0    0 -0.30745347575E+02  0.39379268258E+02  0.13638093849E+03  0.16512722244E+03  0.78557215095E+02 0.  0.
          5    1    3    3  502    0  0.45230035863E+02 -0.26735578096E+02 -0.31528566001E+02  0.61454761853E+02  0.47000000000E+01 0. -1.
        -13    1    4    4    0    0 -0.63252873066E+02 -0.99889834361E+01 -0.16261062791E+02  0.66069114602E+02  0.00000000000E+00 0.  1.
         14    1    4    4    0    0 -0.18814371135E+02  0.41199473594E+02  0.23015455699E+02  0.50804413062E+02  0.00000000000E+00 0. -1.
         -5    1    5    5    0  501  0.67582555913E+02 -0.43854180320E+02  0.82241476550E+02  0.11522300751E+03  0.47000000000E+01 0.  1.
         11    1    6    6    0    0 -0.14616994066E+02 -0.20098227546E+02  0.15077537923E+02  0.29067635195E+02  0.00000000000E+00 0. -1.
        -12    1    6    6    0    0 -0.16128353509E+02  0.59477495804E+02  0.12130340056E+03  0.13605958725E+03  0.00000000000E+00 0.  1.
</event>
<event>
12    1  0.2689284E-002  0.1802869E+03  0.7818608E-02  0.1167526E+00
          2   -1    0    0  502    0  0.00000000000E+00  0.00000000000E+00  0.27079563951E+04  0.27079563951E+04  0.00000000000E+00 0. -1.
         -2   -1    0    0    0  501 -0.00000000000E+00 -0.00000000000E+00 -0.12229017398E+02  0.12229017398E+02  0.00000000000E+00 0.  1.
          6    2    1    2  502    0  0.49414527849E+02  0.75734312245E+01  0.11693169357E+04  0.11832647760E+04  0.17410996961E+03 0.  0.
         24    2    3    3    0    0 -0.21017338016E+02 -0.40174028373E+02  0.50743687889E+03  0.51592096112E+03  0.81403753019E+02 0.  0.
         -6    2    1    2    0  501 -0.49414527849E+02 -0.75734312245E+01  0.15264104420E+04  0.15369206365E+04  0.17232832936E+03 0.  0.
        -24    2    5    5    0    0 -0.82747836372E+02  0.29174669239E+02  0.12783850831E+04  0.12839380264E+04  0.80808844248E+02 0.  0.
          5    1    3    3  502    0  0.70431865864E+02  0.47747459598E+02  0.66188005679E+03  0.66734381484E+03  0.47000000000E+01 0. -1.
        -13    1    4    4    0    0 -0.38882432810E+02 -0.11518281387E+02  0.11327402928E+03  0.12031425558E+03  0.00000000000E+00 0.  1.
         14    1    4    4    0    0  0.17865094794E+02 -0.28655746986E+02  0.39416284961E+03  0.39560670553E+03  0.00000000000E+00 0. -1.
         -5    1    5    5    0  501  0.33333308524E+02 -0.36748100463E+02  0.24802535891E+03  0.25298261009E+03  0.47000000000E+01 0.  1.
         13    1    6    6    0    0 -0.23043442714E+02  0.25151656438E+02  0.91683745822E+03  0.91747181475E+03  0.00000000000E+00 0. -1.
        -14    1    6    6    0    0 -0.59704393658E+02  0.40230128010E+01  0.36154762486E+03  0.36646621167E+03  0.00000000000E+00 0.  1.
</event>
<event>
12    1  0.2689284E-002  0.1962640E+03  0.7818608E-02  0.1152930E+00
          2   -1    0    0  502    0  0.00000000000E+00  0.00000000000E+00  0.91820946568E+03  0.91820946568E+03  0.00000000000E+00 0.  1.
         -2   -1    0    0    0  501 -0.00000000000E+00 -0.00000000000E+00 -0.46934102799E+02  0.46934102799E+02  0.00000000000E+00 0. -1.
          6    2    1    2  502    0 -0.92041894836E+02  0.17084130352E+02  0.59363970183E+03  0.62536231096E+03  0.17293451497E+03 0.  0.
         24    2    3    3    0    0 -0.62425198680E+02  0.51329588826E+02  0.55191625295E+03  0.56361414254E+03  0.80732392980E+02 0.  0.
         -6    2    1    2    0  501  0.92041894836E+02 -0.17084130352E+02  0.27763566105E+03  0.33978125752E+03  0.17206442037E+03 0.  0.
        -24    2    5    5    0    0  0.51010509554E+02  0.17306462342E+02  0.57937710823E+02  0.11360529332E+03  0.81534033460E+02 0.  0.
          5    1    3    3  502    0 -0.29616696157E+02 -0.34245458474E+02  0.41723448878E+02  0.61748168423E+02  0.47000000000E+01 0. -1.
        -11    1    4    4    0    0 -0.76936098935E+02  0.51527219106E+02  0.38132178523E+03  0.39240351874E+03  0.00000000000E+00 0.  1.
         12    1    4    4    0    0  0.14510900255E+02 -0.19763027974E+00  0.17059446772E+03  0.17121062380E+03  0.00000000000E+00 0. -1.
         -5    1    5    5    0  501  0.41031385282E+02 -0.34390592694E+02  0.21969795023E+03  0.22617596419E+03  0.47000000000E+01 0.  1.
         13    1    6    6    0    0  0.18829313921E+02 -0.16394032478E+02  0.61992964723E+02  0.66831392615E+02  0.00000000000E+00 0. -1.
        -14    1    6    6    0    0  0.32181195633E+02  0.33700494819E+02 -0.40552539008E+01  0.46773900710E+02  0.00000000000E+00 0.  1.
</event>
<event>
12    1  0.2689284E-002  0.1807135E+03  0.7818608E-02  0.1167114E+00
         -2   -1    0    0    0  501 -0.00000000000E+00  0.00000000000E+00  0.75839117350E+01  0.75839117350E+01  0.00000000000E+00 0. -1.
          2   -1    0    0  502    0  0.00000000000E+00 -0.00000000000E+00 -0.43715646721E+04  0.43715646721E+04  0.00000000000E+00 0.  1.
          6    2    1    2  502    0 -0.40657049286E+02 -0.37916225644E+02 -0.19182000478E+04  0.19267257386E+04  0.17230790065E+03 0.  0.
         24    2    3    3    0    0 -0.72022067959E+02  0.20258365062E+02 -0.12008201138E+04  0.12062924613E+04  0.87034342500E+02 0.  0.
         -6    2    1    2    0  501  0.40657049286E+02  0.37916225644E+02 -0.24457807126E+04  0.24524228452E+04  0.17159219677E+03 0.  0.
        -24    2    5    5    0    0 -0.62147446459E+01 -0.24977337653E+02 -0.74041852583E+03  0.74525125358E+03  0.80730088083E+02 0.  0.
          5    1    3    3  502    0  0.31365018673E+02 -0.58174590706E+02 -0.71737993395E+03  0.72043327729E+03  0.47000000000E+01 0. -1.
        -11    1    4    4    0    0 -0.51531222706E+02  0.17651737397E+02 -0.28046385380E+03  0.28570443475E+03  0.00000000000E+00 0.  1.
         12    1    4    4    0    0 -0.20490845253E+02  0.26066276644E+01 -0.92035626002E+03  0.92058802654E+03  0.00000000000E+00 0. -1.
         -5    1    5    5    0  501  0.46871793932E+02  0.62893563297E+02 -0.17053621867E+04  0.17071715916E+04  0.47000000000E+01 0.  1.
         13    1    6    6    0    0 -0.41479509799E+02 -0.16275353880E+02 -0.29399228245E+03  0.29734979236E+03  0.00000000000E+00 0. -1.
        -14    1    6    6    0    0  0.35264765153E+02 -0.87019837728E+01 -0.44642624338E+03  0.44790146122E+03  0.00000000000E+00 0.  1.
</event>
<event>
12    1  0.2689284E-002  0.3078549E+03  0.7818608E-02  0.1081379E+00
          2   -1    0    0  502    0  0.00000000000E+00  0.00000000000E+00  0.58810228063E+03  0.58810228063E+03  0.00000000000E+00 0. -1.
         -2   -1    0    0    0  501 -0.00000000000E+00 -0.00000000000E+00 -0.16116831968E+03  0.16116831968E+03  0.00000000000E+00 0.  1.
          6    2    1    2  502    0  0.22944462595E+03  0.11135761488E+03  0.21094864023E+03  0.37415299080E+03  0.17448718274E+03 0.  0.
         24    2    3    3    0    0  0.10921865890E+03  0.10717498468E+03  0.62585106653E+02  0.18308858898E+03  0.78672377909E+02 0.  0.
         -6    2    1    2    0  501 -0.22944462595E+03 -0.11135761488E+03  0.21598532072E+03  0.37511760951E+03  0.17034731413E+03 0.  0.
        -24    2    5    5    0    0 -0.49717821427E+02 -0.79719155476E+02  0.10171727710E+03  0.15975282091E+03  0.79671537015E+02 0.  0.
          5    1    3    3  502    0  0.12022596705E+03  0.41826301991E+01  0.14836353358E+03  0.19106440182E+03  0.47000000000E+01 0. -1.
        -13    1    4    4    0    0  0.63820191347E+02  0.58986037968E+02 -0.68187715730E+01  0.87171469785E+02  0.00000000000E+00 0.  1.
         14    1    4    4    0    0  0.45398467553E+02  0.48188946715E+02  0.69403878226E+02  0.95917119193E+02  0.00000000000E+00 0. -1.
         -5    1    5    5    0  501 -0.17972680452E+03 -0.31638459406E+02  0.11426804362E+03  0.21536478861E+03  0.47000000000E+01 0.  1.
         11    1    6    6    0    0 -0.42336873045E+02 -0.17184728556E+02  0.81823238945E+02  0.93716424100E+02  0.00000000000E+00 0. -1.
        -12    1    6    6    0    0 -0.73809483823E+01 -0.62534426920E+02  0.19894038153E+02  0.66036396807E+02  0.00000000000E+00 0.  1.
</event>
<event>
12    1  0.2689284E-002  0.2359384E+03  0.7818608E-02  0.1122528E+00
         -1   -1    0    0    0  501 -0.00000000000E+00  0.00000000000E+00  0.98261629710E+02  0.98261629710E+02  0.00000000000E+00 0. -1.
          1   -1    0    0  502    0  0.00000000000E+00 -0.00000000000E+00 -0.57108846731E+03  0.57108846731E+03  0.00000000000E+00 0.  1.
          6    2    1    2  502    0  0.93572542705E+02  0.13026771099E+03 -0.20610233793E+03  0.31299819060E+03  0.17252303136E+03 0.  0.
         24    2    3    3    0    0  0.13464972819E+02  0.19802167351E+01 -0.99055821713E+02  0.12764460804E+03  0.79346476898E+02 0.  0.
         -6    2    1    2    0  501 -0.93572542705E+02 -0.13026771099E+03 -0.26672449967E+03  0.35635190641E+03  0.17354891301E+03 0.  0.
        -24    2    5    5    0    0 -0.62682199654E+02 -0.14871554945E+03 -0.14810175467E+03  0.23230360264E+03  0.77365762860E+02 0.  0.
          5    1    3    3  502    0  0.80107569886E+02  0.12828749425E+03 -0.10704651621E+03  0.18535358256E+03  0.47000000000E+01 0. -1.
        -13    1    4    4    0    0  0.12324272595E+01  0.31951173602E+02 -0.87687275816E+02  0.93335174032E+02  0.00000000000E+00 0.  1.
         14    1    4    4    0    0  0.12232545559E+02 -0.29970956867E+02 -0.11368545896E+02  0.34309434012E+02  0.00000000000E+00 0. -1.
         -5    1    5    5    0  501 -0.30890343051E+02  0.18447838461E+02 -0.11862274500E+03  0.12404830377E+03  0.47000000000E+01 0.  1.
         13    1    6    6    0    0  0.49301141342E+01 -0.35207473353E+01  0.70617811620E+01  0.93043237452E+01  0.00000000000E+00 0. -1.
        -14    1    6    6    0    0 -0.67612313788E+02 -0.14519480211E+03 -0.15516353584E+03  0.22299927890E+03  0.00000000000E+00 0.  1.
</event>
<event>
12    1  0.2689284E-002  0.3169602E+03  0.7818608E-02  0.1077057E+00
          1   -1    0    0  502    0  0.00000000000E+00  0.00000000000E+00  0.17404551225E+04  0.17404551225E+04  0.00000000000E+00 0.  1.
         -1   -1    0    0    0  501 -0.00000000000E+00 -0.00000000000E+00 -0.10621578840E+03  0.10621578840E+03  0.00000000000E+00 0. -1.
          6    2    1    2  502    0 -0.72829045216E+02  0.25646902519E+03  0.19289523981E+03  0.37083547488E+03  0.17096767290E+03 0.  0.
         24    2    3    3    0    0 -0.97084937717E+02  0.10481831571E+03  0.73733107883E+02  0.17639270774E+03  0.72563432290E+02 0.  0.
         -6    2    1    2    0  501  0.72829045216E+02 -0.25646902519E+03  0.14413440943E+04  0.14758354360E+04  0.17186333338E+03 0.  0.
        -24    2    5    5    0    0 -0.42855211510E+01 -0.45385317774E+02  0.44740229593E+03  0.45679403529E+03  0.80086100599E+02 0.  0.
          5    1    3    3  502    0  0.24255892501E+02  0.15165070948E+03  0.11916213193E+03  0.19444276714E+03  0.47000000000E+01 0. -1.
        -11    1    4    4    0    0 -0.68375134898E+02  0.10077902736E+03  0.81300749923E+02  0.14642876550E+03  0.00000000000E+00 0.  1.
         12    1    4    4    0    0 -0.28709802819E+02  0.40392883440E+01 -0.75676420396E+01  0.29963942235E+02  0.00000000000E+00 0. -1.
         -5    1    5    5    0  501  0.77114566367E+02 -0.21108370741E+03  0.99394179834E+03  0.10190414007E+04  0.47000000000E+01 0.  1.
         13    1    6    6    0    0 -0.65037628716E+01  0.20561098159E+02  0.58805047498E+02  0.62634585496E+02  0.00000000000E+00 0. -1.
        -14    1    6    6    0    0  0.22182417205E+01 -0.65946415933E+02  0.38859724843E+03  0.39415944979E+03  0.00000000000E+00 0.  1.
</event>
<event>
12    1  0.3383431E-002  0.1954216E+03  0.7818608E-02  0.1153660E+00
          2   -1    0    0  502    0  0.00000000000E+00  0.00000000000E+00  0.22321300923E+04  0.22321300923E+04  0.00000000000E+00 0.  1.
         -2   -1    0    0    0  501 -0.00000000000E+00 -0.00000000000E+00 -0.32061170203E+02  0.32061170203E+02  0.00000000000E+00 0. -1.
          6    2    1    2  502    0 -0.62035108563E+02  0.66241807877E+02  0.32625371417E+03  0.38019029906E+03  0.17282026989E+03 0.  0.
         24    2    3    3    0    0 -0.27944958886E+02  0.87013371343E+02  0.31619227190E+03  0.33875458048E+03  0.80155258501E+02 0.  0.
         -6    2    1    2    0  501  0.62035108563E+02 -0.66241807877E+02  0.18738152079E+04  0.18840009634E+04  0.17332012286E+03 0.  0.
        -24    2    5    5    0    0  0.31069054253E+02  0.21811367419E+02  0.55780934342E+03  0.56468076591E+03  0.79196476572E+02 0.  0.
          5    1    3    3  502    0 -0.34090149676E+02 -0.20771563467E+02  0.10061442267E+02  0.41435718581E+02  0.47000000000E+01 0. -1.
        -13    1    4    4    0    0 -0.53954002486E+02  0.37849998212E+02  0.16739754857E+03  0.17990440799E+03  0.00000000000E+00 0.  1.
         14    1    4    4    0    0  0.26009043600E+02  0.49163373132E+02  0.14879472333E+03  0.15885017248E+03  0.00000000000E+00 0. -1.
         -5    1    5    5    0  501  0.30966054309E+02 -0.88053175295E+02  0.13160058645E+04  0.13193201975E+04  0.47000000000E+01 0.  1.
         13    1    6    6    0    0 -0.11677046136E+02 -0.13969030434E+02  0.40839092567E+02  0.44713741729E+02  0.00000000000E+00 0. -1.
        -14    1    6    6    0    0  0.42746100389E+02  0.35780397852E+02  0.51697025086E+03  0.51996702418E+03  0.00000000000E+00 0.  1.
</event>
<event>
12    1  0.2689284E-002  0.1980451E+03  0.7818608E-02  0.1151399E+00
         -1   -1    0    0    0  501 -0.00000000000E+00  0.00000000000E+00  0.31780976536E+02  0.31780976536E+02  0.00000000000E+00 0. -1.
          1   -1    0    0  502    0  0.00000000000E+00 -0.00000000000E+00 -0.12345870817E+04  0.12345870817E+04  0.00000000000E+00 0.  1.
          6    2    1    2  502    0  0.18530389468E+02  0.96495707229E+02 -0.61426352819E+03  0.64547173134E+03  0.17221868959E+03 0.  0.
         24    2    3    3    0    0 -0.51032053839E+02  0.26466328398E+02 -0.36065604828E+03  0.37329184361E+03  0.77261104608E+02 0.  0.
         -6    2    1    2    0  501 -0.18530389468E+02 -0.96495707229E+02 -0.58854257695E+03  0.62089632687E+03  0.17168310049E+03 0.  0.
        -24    2    5    5    0    0 -0.13984981440E+02  0.83484795123E+01 -0.17902071960E+03  0.19811599872E+03  0.83284176686E+02 0.  0.
          5    1    3    3  502    0  0.69562443306E+02  0.70029378831E+02 -0.25360747991E+03  0.27217988773E+03  0.47000000000E+01 0. -1.
        -11    1    4    4    0    0 -0.26330166353E+02  0.23406985620E+00 -0.31006427947E+03  0.31118031726E+03  0.00000000000E+00 0.  1.
         12    1    4    4    0    0 -0.24701887485E+02  0.26232258542E+02 -0.50591768812E+02  0.62111526347E+02  0.00000000000E+00 0. -1.
         -5    1    5    5    0  501 -0.45454080280E+01 -0.10484418674E+03 -0.40952185735E+03  0.42278032815E+03  0.47000000000E+01 0.  1.
         13    1    6    6    0    0 -0.14421542782E+02  0.39998437283E+02 -0.14726093259E+03  0.15327634569E+03  0.00000000000E+00 0. -1.
        -14    1    6    6    0    0  0.43656134182E+00 -0.31649957771E+02 -0.31759787010E+02  0.44839653027E+02  0.00000000000E+00 0.  1.
</event>
<event>
12    1  0.2689284E-002  0.1875417E+03  0.7818608E-02  0.1160697E+00
          1   -1    0    0  502    0  0.00000000000E+00  0.00000000000E+00  0.32114889096E+04  0.32114889096E+04  0.00000000000E+00 0. -1.
         -1   -1    0    0    0  501 -0.00000000000E+00 -0.00000000000E+00 -0.12704466120E+02  0.12704466120E+02  0.00000000000E+00 0.  1.
          6    2    1    2  502    0 -0.45169420661E+01 -0.76271741862E+02  0.10065801075E+04  0.10240498103E+04  0.17215318684E+03 0.  0.
         24    2    3    3    0    0  0.57814576437E+01 -0.21355157456E+02  0.23690761261E+03  0.25233760507E+03  0.84021318819E+02 0.  0.
         -6    2    1    2    0  501  0.45169420661E+01  0.76271741862E+02  0.21922043360E+04  0.22001435655E+04  0.17039388634E+03 0.  0.
        -24    2    5    5    0    0  0.34723399502E+01  0.88217630540E+02  0.21769727708E+04  0.21801964848E+04  0.79068703762E+02 0.  0.
          5    1    3    3  502    0 -0.10298399710E+02 -0.54916584406E+02  0.76967249487E+03  0.77171220519E+03  0.47000000000E+01 0. -1.
        -13    1    4    4    0    0 -0.59166508542E+00  0.30602497528E+02  0.53833767755E+02  0.61926871980E+02  0.00000000000E+00 0.  1.
         14    1    4    4    0    0  0.63731227291E+01 -0.51957654984E+02  0.18307384486E+03  0.19041073309E+03  0.00000000000E+00 0. -1.
         -5    1    5    5    0  501  0.10446021159E+01 -0.11945888678E+02  0.15231565214E+02  0.19947080707E+02  0.47000000000E+01 0.  1.
         11    1    6    6    0    0 -0.78020936323E+01  0.26641049004E+02  0.15187360966E+04  0.15189897792E+04  0.00000000000E+00 0. -1.
        -12    1    6    6    0    0  0.11274433583E+02  0.61576581536E+02  0.65823667418E+03  0.66120670557E+03  0.00000000000E+00 0.  1.
</event>
<event>
12    1  0.2689284E-002  0.1919978E+03  0.7818608E-02  0.1156672E+00
         -1   -1    0    0    0  501 -0.00000000000E+00  0.00000000000E+00  0.27599777222E+03  0.27599777222E+03  0.00000000000E+00 0. -1.
          1   -1    0    0  502    0  0.00000000000E+00 -0.00000000000E+00 -0.13447054404E+03  0.13447054404E+03  0.00000000000E+00 0.  1.
          6    2    1    2  502    0  0.62168239609E+02  0.81281232192E+02  0.54750482982E+02  0.20153992046E+03  0.16477012906E+03 0.  0.
         24    2    3    3    0    0 -0.21199402756E+02  0.71018376957E+02  0.20293419859E+02  0.11062859449E+03  0.79585416291E+02 0.  0.
         -6    2    1    2    0  501 -0.62168239609E+02 -0.81281232192E+02  0.86776745203E+02  0.20892839580E+03  0.16015412059E+03 0.  0.
        -24    2    5    5    0    0 -0.69069893648E+02 -0.76779001481E+02  0.11743033392E+03  0.17684046332E+03  0.82565131053E+02 0.  0.
          5    1    3    3  502    0  0.83367642365E+02  0.10262855234E+02  0.34457063122E+02  0.90911325972E+02  0.47000000000E+01 0. -1.
        -13    1    4    4    0    0  0.49095398462E+01  0.56036325985E+02 -0.20553142267E+02  0.59888271543E+02  0.00000000000E+00 0.  1.
         14    1    4    4    0    0 -0.26108942602E+02  0.14982050972E+02  0.40846562126E+02  0.50740322946E+02  0.00000000000E+00 0. -1.
         -5    1    5    5    0  501  0.69016540389E+01 -0.45022307108E+01 -0.30653588717E+02  0.32087932483E+02  0.47000000000E+01 0.  1.
         13    1    6    6    0    0 -0.61430100682E+02 -0.84450151933E+02  0.64342377869E+02  0.12265980198E+03  0.00000000000E+00 0. -1.
        -14    1    6    6    0    0 -0.76397929652E+01  0.76711504524E+01  0.53087956051E+02  0.54180661343E+02  0.00000000000E+00 0.  1.
</event>
<event>
12    1  0.2689284E-002  0.2157243E+03  0.7818608E-02  0.1137111E+00
         -2   -1    0    0    0  501 -0.00000000000E+00  0.00000000000E+00  0.20771226409E+03  0.20771226409E+03  0.00000000000E+00 0. -1.
          2   -1    0    0  502    0  0.00000000000E+00 -0.00000000000E+00 -0.32078020553E+03  0.32078020553E+03  0.00000000000E+00 0.  1.
          6    2    1    2  502    0  0.89708360148E+02  0.91077374022E+02 -0.20132212947E+03  0.29384812521E+03  0.17167831237E+03 0.  0.
         24    2    3    3    0    0  0.74276528112E+02  0.36653703959E+02 -0.36234467319E+02  0.11927406214E+03  0.77800184030E+02 0.  0.
         -6    2    1    2    0  501 -0.89708360148E+02 -0.91077374022E+02  0.88254188033E+02  0.23464434441E+03  0.17585928670E+03 0.  0.
        -24    2    5    5    0    0 -0.56771107773E+02 -0.69659612788E+02 -0.17468609569E+02  0.12175952248E+03  0.80279565655E+02 0.  0.
          5    1    3    3  502    0  0.15431832036E+02  0.54423670063E+02 -0.16508766215E+03  0.17457406308E+03  0.47000000000E+01 0. -1.
        -11    1    4    4    0    0  0.12899989306E+02 -0.29570730746E+01 -0.43874427590E+02  0.45827059710E+02  0.00000000000E+00 0.  1.
         12    1    4    4    0    0  0.61376538806E+02  0.39610777033E+02  0.76399602717E+01  0.73447002430E+02  0.00000000000E+00 0. -1.
         -5    1    5    5    0  501 -0.32937252375E+02 -0.21417761234E+02  0.10572279760E+03  0.11288482193E+03  0.47000000000E+01 0.  1.
         13    1    6    6    0    0 -0.69416431395E+02 -0.40289244070E+02 -0.32292095762E+02  0.86513834640E+02  0.00000000000E+00 0. -1.
        -14    1    6    6    0    0  0.12645323622E+02 -0.29370368718E+02  0.14823486193E+02  0.35245687836E+02  0.00000000000E+00 0.  1.
</event>
<event>
12    1  0.2689284E-002  0.1961831E+03  0.7818608E-02  0.1153000E+00
          1   -1    0    0  502    0  0.00000000000E+00  0.00000000000E+00  0.74888629795E+03  0.74888629795E+03  0.00000000000E+00 0.  1.
         -1   -1    0    0    0  501 -0.00000000000E+00 -0.00000000000E+00 -0.65037803173E+02  0.65037803173E+02  0.00000000000E+00 0. -1.
          6    2    1    2  502    0  0.86362728770E+02  0.42206883605E+02  0.15586010008E+03  0.25075108022E+03  0.17130029624E+03 0.  0.
         24    2    3    3    0    0 -0.74799720550E+01  0.59085217157E+02  0.10055621884E+03  0.14042456518E+03  0.77849164983E+02 0.  0.
         -6    2    1    2    0  501 -0.86362728770E+02 -0.42206883605E+02  0.52798839470E+03  0.56317302090E+03  0.17074004976E+03 0.  0.
        -24    2    5    5    0    0 -0.11656699994E+03 -0.58512457885E+02  0.34974427518E+03  0.38159321505E+03  0.79251186438E+02 0.  0.
          5    1    3    3  502    0  0.93842700825E+02 -0.16878333552E+02  0.55303881232E+02  0.11032651504E+03  0.47000000000E+01 0. -1.
        -13    1    4    4    0    0 -0.29586345214E+02  0.23297452232E+02  0.76331198560E+01  0.38423789797E+02  0.00000000000E+00 0.  1.
         14    1    4    4    0    0  0.22106373159E+02  0.35787764925E+02  0.92923098988E+02  0.10200077538E+03  0.00000000000E+00 0. -1.
         -5    1    5    5    0  501  0.30204271169E+02  0.16305574280E+02  0.17824411952E+03  0.18157980585E+03  0.47000000000E+01 0.  1.
         11    1    6    6    0    0 -0.11130115425E+02 -0.36079418716E+02  0.47357282822E+02  0.60566625798E+02  0.00000000000E+00 0. -1.
        -12    1    6    6    0    0 -0.10543688451E+03 -0.22433039169E+02  0.30238699236E+03  0.32102658926E+03  0.00000000000E+00 0.  1.
</event>
<event>
12    1  0.2689284E-002  0.2732107E+03  0.7818608E-02  0.1099456E+00
         -1   -1    0    0    0  501 -0.00000000000E+00  0.00000000000E+00  0.22535801310E+03  0.22535801310E+03  0.00000000000E+00 0. -1.
          1   -1    0    0  502    0  0.00000000000E+00 -0.00000000000E+00 -0.47510741035E+03  0.47510741035E+03  0.00000000000E+00 0.  1.
          6    2    1    2  502    0 -0.19507098120E+03  0.85487547434E+02 -0.31766924138E+03  0.41911406601E+03  0.17141191596E+03 0.  0.
         24    2    3    3    0    0 -0.73690739910E+02  0.83021319740E+02 -0.23586214136E+03  0.27264312394E+03  0.79877773056E+02 0.  0.
         -6    2    1    2    0  501  0.19507098120E+03 -0.85487547434E+02  0.67919844135E+02  0.28135135744E+03  0.17083522070E+03 0.  0.
        -24    2    5    5    0    0  0.46776823740E+02 -0.13481459080E+02 -0.19248239458E+02  0.94813429139E+02  0.79052328522E+02 0.  0.
          5    1    3    3  502    0 -0.12138024129E+03  0.24662276947E+01 -0.81807100027E+02  0.14647094207E+03  0.47000000000E+01 0. -1.
        -13    1    4    4    0    0 -0.54608819790E+02  0.18713414117E+02 -0.16617981423E+03  0.17592056652E+03  0.00000000000E+00 0.  1.
         14    1    4    4    0    0 -0.19081920120E+02  0.64307905622E+02 -0.69682327127E+02  0.96722557425E+02  0.00000000000E+00 0. -1.
         -5    1    5    5    0  501  0.14829415746E+03 -0.72006088355E+02  0.87168083594E+02  0.18653792830E+03  0.47000000000E+01 0.  1.
         13    1    6    6    0    0  0.10370226238E+02 -0.25021975143E+02  0.24652505544E+02  0.36624948626E+02  0.00000000000E+00 0. -1.
        -14    1    6    6    0    0  0.36406597501E+02  0.11540516063E+02 -0.43900745002E+02  0.58188480513E+02  0.00000000000E+00 0.  1.
</event>
<event>
12    1  0.2689284E-002  0.1886433E+03  0.7818608E-02  0.1159691E+00
         -1   -1    0    0    0  501 -0.00000000000E+00  0.00000000000E+00  0.25844325471E+02  0.25844325471E+02  0.00000000000E+00 0.  1.
          1   -1    0    0  502    0  0.00000000000E+00 -0.00000000000E+00 -0.15211165363E+04  0.15211165363E+04  0.00000000000E+00 0. -1.
          6    2    1    2  502    0  0.34418402614E+02 -0.46944002980E+02 -0.54925824228E+03  0.58419054210E+03  0.19027770999E+03 0.  0.
         24    2    3    3    0    0  0.22975290920E+02  0.44432686871E+02 -0.16960088013E+03  0.19349571633E+03  0.78574843569E+02 0.  0.
         -6    2    1    2    0  501 -0.34418402614E+02  0.46944002980E+02 -0.94601396853E+03  0.96277031965E+03  0.16910320483E+03 0.  0.
        -24    2    5    5    0    0  0.32381031167E+02 -0.18120890232E+02 -0.44073997469E+03  0.44894203750E+03  0.76943680069E+02 0.  0.
          5    1    3    3  502    0  0.11443111694E+02 -0.91376689850E+02 -0.37965736215E+03  0.39069482578E+03  0.47000000000E+01 0. -1.
        -11    1    4    4    0    0  0.38870947451E+02  0.11547946610E+02 -0.33558071295E+02  0.52635062227E+02  0.00000000000E+00 0.  1.
         12    1    4    4    0    0 -0.15895656531E+02  0.32884740261E+02 -0.13604280883E+03  0.14086065410E+03  0.00000000000E+00 0. -1.
         -5    1    5    5    0  501 -0.66799433781E+02  0.65064893211E+02 -0.50527399384E+03  0.51382828215E+03  0.47000000000E+01 0.  1.
         13    1    6    6    0    0  0.18456173688E+02 -0.41494611784E+02 -0.14481441311E+03  0.15176840053E+03  0.00000000000E+00 0. -1.
        -14    1    6    6    0    0  0.13924857479E+02  0.23373721552E+02 -0.29592556158E+03  0.29717363697E+03  0.00000000000E+00 0.  1.
</event>
<event>
12    1  0.2689284E-002  0.1792214E+03  0.7818608E-02  0.1168559E+00
          1   -1    0    0  502    0  0.00000000000E+00  0.00000000000E+00  0.14663143638E+03  0.14663143638E+03  0.00000000000E+00 0. -1.
         -1   -1    0    0    0  501 -0.00000000000E+00 -0.00000000000E+00 -0.24021592163E+03  0.24021592163E+03  0.00000000000E+00 0.  1.
          6    2    1    2  502    0 -0.13416195698E+02 -0.41837086117E+02  0.10722231921E+02  0.17909028751E+03  0.17328597388E+03 0.  0.
         24    2    3    3    0    0 -0.19958232698E+02 -0.59796428138E+02 -0.51394662317E+02  0.11392944986E+03  0.79778219838E+02 0.  0.
         -6    2    1    2    0  501  0.13416195698E+02  0.41837086117E+02 -0.10430671717E+03  0.20775707049E+03  0.17422047242E+03 0.  0.
        -24    2    5    5    0    0  0.69048034814E+02  0.33269152433E+01 -0.34358652237E+02  0.11032629213E+03  0.78820519377E+02 0.  0.
          5    1    3    3  502    0  0.65420369996E+01  0.17959342021E+02  0.62116894238E+02  0.65160837653E+02  0.47000000000E+01 0. -1.
        -11    1    4    4    0    0 -0.35427359683E+02 -0.68181670384E+01  0.33000297460E+01  0.36228102520E+02  0.00000000000E+00 0.  1.
         12    1    4    4    0    0  0.15469126985E+02 -0.52978261099E+02 -0.54694692063E+02  0.77701347342E+02  0.00000000000E+00 0. -1.
         -5    1    5    5    0  501 -0.55631839116E+02  0.38510170874E+02 -0.69948064933E+02  0.97430778361E+02  0.47000000000E+01 0.  1.
         13    1    6    6    0    0  0.50625465739E+02 -0.35495798422E+02 -0.18803199664E+02  0.64625457866E+02  0.00000000000E+00 0. -1.
        -14    1    6    6    0    0  0.18422569076E+02  0.38822713665E+02 -0.15555452573E+02  0.45700834264E+02  0.00000000000E+00 0.  1.
</event>
<event>
12    1  0.2689284E-002  0.1787000E+03  0.7818608E-02  0.1169067E+00
         -2   -1    0    0    0  501 -0.00000000000E+00  0.00000000000E+00  0.12280523408E+03  0.12280523408E+03  0.00000000000E+00 0.  1.
          2   -1    0    0  502    0  0.00000000000E+00 -0.00000000000E+00 -0.26283605852E+03  0.26283605852E+03  0.00000000000E+00 0. -1.
          6    2    1    2  502    0 -0.46740632953E+02  0.58552506129E+01 -0.49543803235E+02  0.18383610209E+03  0.17065214111E+03 0.  0.
         24    2    3    3    0    0 -0.85627801190E+02  0.37053091940E+02 -0.16214324500E+02  0.12368245457E+03  0.79557484196E+02 0.  0.
         -6    2    1    2    0  501  0.46740632953E+02 -0.58552506129E+01 -0.90487021204E+02  0.20180519051E+03  0.17412197789E+03 0.  0.
        -24    2    5    5    0    0  0.58902730932E+01  0.67244149165E+01 -0.12474932750E+03  0.14682341609E+03  0.76907787170E+02 0.  0.
          5    1    3    3  502    0  0.38887168237E+02 -0.31197841327E+02 -0.33329478735E+02  0.60153647518E+02  0.47000000000E+01 0. -1.
        -13    1    4    4    0    0 -0.13855097461E+02  0.21897528106E+02  0.27905469189E+02  0.38081237814E+02  0.00000000000E+00 0.  1.
         14    1    4    4    0    0 -0.71772703728E+02  0.15155563834E+02 -0.44119793689E+02  0.85601216760E+02  0.00000000000E+00 0. -1.
         -5    1    5    5    0  501  0.40850359859E+02 -0.12579665529E+02  0.34262306300E+02  0.54981774421E+02  0.47000000000E+01 0.  1.
         13    1    6    6    0    0  0.13662239282E+02  0.37956906547E+02 -0.42971634867E+02  0.58940181031E+02  0.00000000000E+00 0. -1.
        -14    1    6    6    0    0 -0.77719661885E+01 -0.31232491631E+02 -0.81777692636E+02  0.87883235061E+02  0.00000000000E+00 0.  1.
</event>
<event>
12    1  0.2689284E-002  0.1805448E+03  0.7818608E-02  0.1167277E+00
         -2   -1    0    0    0  501 -0.00000000000E+00  0.00000000000E+00  0.45695781209E+02  0.45695781209E+02  0.00000000000E+00 0. -1.
          2   -1    0    0  502    0  0.00000000000E+00 -0.00000000000E+00 -0.17068560041E+04  0.17068560041E+04  0.00000000000E+00 0.  1.
          6    2    1    2  502    0  0.49409999906E+02  0.29650089268E+02 -0.16129701991E+03  0.24181513009E+03  0.17069666846E+03 0.  0.
         24    2    3    3    0    0  0.43049956155E+02 -0.71853824189E+01 -0.17838043772E+03  0.20044805024E+03  0.80342465976E+02 0.  0.
         -6    2    1    2    0  501 -0.49409999906E+02 -0.29650089268E+02 -0.14998632030E+04  0.15107366552E+04  0.17150841925E+03 0.  0.
        -24    2    5    5    0    0 -0.56230642439E+02 -0.28523351137E+02 -0.47507286128E+03  0.48591221896E+03  0.80255805408E+02 0.  0.
          5    1    3    3  502    0  0.63600437512E+01  0.36835471686E+02  0.17083417813E+02  0.41367079847E+02  0.47000000000E+01 0. -1.
        -13    1    4    4    0    0  0.17378578442E+02 -0.27865675175E+02 -0.19521200612E+02  0.38204556207E+02  0.00000000000E+00 0.  1.
         14    1    4    4    0    0  0.25671377713E+02  0.20680292756E+02 -0.15885923711E+03  0.16224349404E+03  0.00000000000E+00 0. -1.
         -5    1    5    5    0  501  0.68206425335E+01 -0.11267381305E+01 -0.10247903417E+04  0.10248244362E+04  0.47000000000E+01 0.  1.
         13    1    6    6    0    0 -0.31161882409E+02 -0.40166352565E+02 -0.43031413621E+03  0.43330665194E+03  0.00000000000E+00 0. -1.
        -14    1    6    6    0    0 -0.25068760030E+02  0.11643001428E+02 -0.44758725072E+02  0.52605567022E+02  0.00000000000E+00 0.  1.
</event>
<event>
12    1  0.2689284E-002  0.1839185E+03  0.7818608E-02  0.1164064E+00
         -2   -1    0    0    0  501 -0.00000000000E+00  0.00000000000E+00  0.31869682667E+02  0.31869682667E+02  0.00000000000E+00 0.  1.
          2   -1    0    0  502    0  0.00000000000E+00 -0.00000000000E+00 -0.15622688591E+04  0.15622688591E+04  0.00000000000E+00 0. -1.
          6    2    1    2  502    0 -0.37952078119E+02 -0.22575748054E+02 -0.12337801551E+04  0.12483850331E+04  0.18520716795E+03 0.  0.
         24    2    3    3    0    0  0.92576892317E+00 -0.22972175810E+02 -0.11743970246E+04  0.11772507212E+04  0.78627674100E+02 0.  0.
         -6    2    1    2    0  501  0.37952078119E+02  0.22575748054E+02 -0.29661902132E+03  0.34575350868E+03  0.17208317849E+03 0.  0.
        -24    2    5    5    0    0  0.16643916338E+02  0.74664570265E+02 -0.13363357625E+03  0.17326110750E+03  0.79433372508E+02 0.  0.
          5    1    3    3  502    0 -0.38877847043E+02  0.39642775614E+00 -0.59383130466E+02  0.71134311900E+02  0.47000000000E+01 0. -1.
        -13    1    4    4    0    0  0.31338443588E+02 -0.36708415148E+02 -0.64551354239E+03  0.64731548661E+03  0.00000000000E+00 0.  1.
         14    1    4    4    0    0 -0.30412674665E+02  0.13736239338E+02 -0.52888348224E+03  0.52993523457E+03  0.00000000000E+00 0. -1.
         -5    1    5    5    0  501  0.21308161782E+02 -0.52088822210E+02 -0.16298544507E+03  0.17249240117E+03  0.47000000000E+01 0.  1.
         13    1    6    6    0    0 -0.28340206208E+02  0.22083019833E+02 -0.72552759404E+02  0.80961286737E+02  0.00000000000E+00 0. -1.
        -14    1    6    6    0    0  0.44984122546E+02  0.52581550431E+02 -0.61080816845E+02  0.92299820766E+02  0.00000000000E+00 0.  1.
</event>
<event>
12    1  0.2689284E-002  0.3043936E+03  0.7818608E-02  0.1083065E+00
          1   -1    0    0  502    0  0.00000000000E+00  0.00000000000E+00  0.13555958562E+03  0.13555958562E+03  0.00000000000E+00 0. -1.
         -1   -1    0    0    0  501 -0.00000000000E+00 -0.00000000000E+00 -0.74456269886E+03  0.74456269886E+03  0.00000000000E+00 0.  1.
          6    2    1    2  502    0  0.13519683712E+02 -0.25111640296E+03 -0.43079174509E+03  0.52765251025E+03  0.17202736485E+03 0.  0.
         24    2    3    3    0    0 -0.39753828443E+02 -0.82070012408E+02 -0.12226716166E+03  0.17180948611E+03  0.79078359127E+02 0.  0.
         -6    2    1    2    0  501 -0.13519683712E+02  0.25111640296E+03 -0.17821136815E+03  0.35246977423E+03  0.17097783576E+03 0.  0.
        -24    2    5    5    0    0  0.57477432547E+02  0.16021480052E+03 -0.95295788212E+02  0.21034034293E+03  0.78672327124E+02 0.  0.
          5    1    3    3  502    0  0.53273512155E+02 -0.16904639056E+03 -0.30852458342E+03  0.35584302415E+03  0.47000000000E+01 0. -1.
        -11    1    4    4    0    0 -0.32087869364E+02 -0.22660316555E+02 -0.10078802437E+03  0.10817276535E+03  0.00000000000E+00 0.  1.
         12    1    4    4    0    0 -0.76659590786E+01 -0.59409695853E+02 -0.21479137293E+02  0.63636720758E+02  0.00000000000E+00 0. -1.
         -5    1    5    5    0  501 -0.70997116259E+02  0.90901602447E+02 -0.82915579942E+02  0.14212943130E+03  0.47000000000E+01 0.  1.
         13    1    6    6    0    0 -0.71502114409E+01  0.96264698780E+02 -0.51848936365E+02  0.10957339986E+03  0.00000000000E+00 0. -1.
        -14    1    6    6    0    0  0.64627643988E+02  0.63950101737E+02 -0.43446851847E+02  0.10076694307E+03  0.00000000000E+00 0.  1.
</event>
<event>
12    1  0.2689284E-002  0.1938720E+03  0.7818608E-02  0.1155015E+00
          2   -1    0    0  502    0  0.00000000000E+00  0.00000000000E+00  0.68446691813E+03  0.68446691813E+03  0.00000000000E+00 0. -1.
         -2   -1    0    0    0  501 -0.00000000000E+00 -0.00000000000E+00 -0.13453610509E+03  0.13453610509E+03  0.00000000000E+00 0.  1.
          6    2    1    2  502    0  0.90197267163E+02  0.14005303406E+02  0.59089899208E+03  0.62238607485E+03  0.17283261208E+03 0.  0.
         24    2    3    3    0    0  0.30141484383E+02  0.56143226608E+02  0.46738757229E+03  0.47865207597E+03  0.81216353769E+02 0.  0.
         -6    2    1    2    0  501 -0.90197267163E+02 -0.14005303406E+02 -0.40968179035E+02  0.19661694837E+03  0.16925760594E+03 0.  0.
        -24    2    5    5    0    0 -0.78029511680E+02 -0.49790679426E+02 -0.76540259123E+02  0.14450063335E+03  0.80338691300E+02 0.  0.
          5    1    3    3  502    0  0.60055782779E+02 -0.42137923202E+02  0.12351141979E+03  0.14373399888E+03  0.47000000000E+01 0. -1.
        -11    1    4    4    0    0  0.18039368924E+02  0.26661478077E+02  0.46474987387E+02  0.56534747696E+02  0.00000000000E+00 0.  1.
         12    1    4    4    0    0  0.12102115459E+02  0.29481748530E+02  0.42091258491E+03  0.42211732827E+03  0.00000000000E+00 0. -1.
         -5    1    5    5    0  501 -0.12167755483E+02  0.35785376019E+02  0.35572080089E+02  0.52116315029E+02  0.47000000000E+01 0.  1.
         11    1    6    6    0    0 -0.23063105621E+02 -0.44491409994E+02  0.70281789409E-02  0.50113795042E+02  0.00000000000E+00 0. -1.
        -12    1    6    6    0    0 -0.54966406059E+02 -0.52992694319E+01 -0.76547287302E+02  0.94386838303E+02  0.00000000000E+00 0.  1.
</event>
<event>
12    1  0.2689284E-002  0.3341899E+03  0.7818608E-02  0.1069298E+00
         -1   -1    0    0    0  501 -0.00000000000E+00  0.00000000000E+00  0.63606893035E+02  0.63606893035E+02  0.00000000000E+00 0. -1.
          1   -1    0    0  502    0  0.00000000000E+00 -0.00000000000E+00 -0.17625880063E+04  0.17625880063E+04  0.00000000000E+00 0.  1.
          6    2    1    2  502    0 -0.21277093784E+03  0.19277038332E+03 -0.90544554494E+03  0.96507055721E+03  0.17058034141E+03 0.  0.
         24    2    3    3    0    0 -0.16235107787E+03  0.12095271971E+03 -0.43343141797E+03  0.48494623462E+03  0.79514926282E+02 0.  0.
         -6    2    1    2    0  501  0.21277093784E+03 -0.19277038332E+03 -0.79353556836E+03  0.86112434216E+03  0.17147752541E+03 0.  0.
        -24    2    5    5    0    0  0.16690891599E+03 -0.62281947999E+02 -0.44065253208E+03  0.48207410262E+03  0.80518066900E+02 0.  0.
          5    1    3    3  502    0 -0.50419859979E+02  0.71817663615E+02 -0.47201412697E+03  0.48012432259E+03  0.47000000000E+01 0. -1.
        -11    1    4    4    0    0 -0.10951265570E+03  0.12034352241E+03 -0.35318739102E+03  0.38886619591E+03  0.00000000000E+00 0.  1.
         12    1    4    4    0    0 -0.52838422164E+02  0.60919729942E+00 -0.80244026953E+02  0.96080038717E+02  0.00000000000E+00 0. -1.
         -5    1    5    5    0  501  0.45862021853E+02 -0.13048843532E+03 -0.35288303628E+03  0.37905023954E+03  0.47000000000E+01 0.  1.
         13    1    6    6    0    0  0.16634892543E+03 -0.71199877601E+02 -0.38133575052E+03  0.42208807396E+03  0.00000000000E+00 0. -1.
        -14    1    6    6    0    0  0.55999056292E+00  0.89179296017E+01 -0.59316781568E+02  0.59986028652E+02  0.00000000000E+00 0.  1.
</event>
<event>
12    1  0.2689284E-002  0.5910503E+03  0.7818608E-02  0.9924150E-01
         -2   -1    0    0    0  501 -0.00000000000E+00  0.00000000000E+00  0.26339930311E+03  0.26339930311E+03  0.00000000000E+00 0.  1.
          2   -1    0    0  502    0  0.00000000000E+00 -0.00000000000E+00 -0.20399540174E+04  0.20399540174E+04  0.00000000000E+00 0. -1.
          6    2    1    2  502    0  0.52631934735E+03 -0.20640600467E+03 -0.20703709084E+03  0.62621852053E+03  0.17224919246E+03 0.  0.
         24    2    3    3    0    0  0.50720870270E+03 -0.19848912664E+03 -0.15904905166E+03  0.57375104869E+03  0.85059176730E+02 0.  0.
         -6    2    1    2    0  501 -0.52631934735E+03  0.20640600467E+03 -0.15695176235E+04  0.16771348000E+04  0.17256903792E+03 0.  0.
        -24    2    5    5    0    0 -0.22112885593E+03  0.52776403053E+02 -0.51564836570E+03  0.56925132553E+03  0.80439510950E+02 0.  0.
          5    1    3    3  502    0  0.19110644651E+02 -0.79168780385E+01 -0.47988039181E+02  0.52467471840E+02  0.47000000000E+01 0. -1.
        -11    1    4    4    0    0  0.35579843526E+03 -0.11452012130E+03 -0.74717189107E+02  0.38116931024E+03  0.00000000000E+00 0.  1.
         12    1    4    4    0    0  0.15141026744E+03 -0.83969005337E+02 -0.84331862548E+02  0.19258173845E+03  0.00000000000E+00 0. -1.
         -5    1    5    5    0  501 -0.30519049142E+03  0.15362960162E+03 -0.10538692578E+04  0.11078834745E+04  0.47000000000E+01 0.  1.
         13    1    6    6    0    0 -0.52239388985E+02  0.27056619816E+02 -0.22063507579E+03  0.22834371265E+03  0.00000000000E+00 0. -1.
        -14    1    6    6    0    0 -0.16888946695E+03  0.25719783237E+02 -0.29501328990E+03  0.34090761287E+03  0.00000000000E+00 0.  1.
</event>
<event>
12    1  0.2689284E-002  0.2482700E+03  0.7818608E-02  0.1114403E+00
         -2   -1    0    0    0  501 -0.00000000000E+00  0.00000000000E+00  0.16820284786E+02  0.16820284786E+02  0.00000000000E+00 0.  1.
          2   -1    0    0  502    0  0.00000000000E+00 -0.00000000000E+00 -0.36718232747E+04  0.36718232747E+04  0.00000000000E+00 0. -1.
          6    2    1    2  502    0  0.13091569382E+03 -0.12114551627E+03 -0.19071132621E+04  0.19231581138E+04  0.17216556359E+03 0.  0.
         24    2    3    3    0    0  0.13086690932E+03 -0.29900978846E+02 -0.11656819558E+04  0.11761185969E+04  0.80126869644E+02 0.  0.
         -6    2    1    2    0  501 -0.13091569382E+03  0.12114551627E+03 -0.17478897278E+04  0.17654854456E+04  0.17322010060E+03 0.  0.
        -24    2    5    5    0    0 -0.72365598160E+02  0.66108034120E+02 -0.54507322591E+03  0.55997855418E+03  0.82849909921E+02 0.  0.
          5    1    3    3  502    0  0.48784507942E-01 -0.91244537423E+02 -0.74143130630E+03  0.74703951699E+03  0.47000000000E+01 0. -1.
        -13    1    4    4    0    0  0.90305480172E+02 -0.50405055665E+02 -0.62189944907E+03  0.63044006387E+03  0.00000000000E+00 0.  1.
         14    1    4    4    0    0  0.40561429144E+02  0.20504076819E+02 -0.54378250676E+03  0.54567853298E+03  0.00000000000E+00 0. -1.
         -5    1    5    5    0  501 -0.58550095664E+02  0.55037482149E+02 -0.12028165019E+04  0.12055068915E+04  0.47000000000E+01 0.  1.
         11    1    6    6    0    0  0.10684291990E+02 -0.10622667929E+02 -0.74923633051E+02  0.76423464714E+02  0.00000000000E+00 0. -1.
        -12    1    6    6    0    0 -0.83049890150E+02  0.76730702049E+02 -0.47014959286E+03  0.48355508947E+03  0.00000000000E+00 0.  1.
</event>
<event>
12    1  0.2896273E-002  0.2191189E+03  0.7818608E-02  0.1134542E+00
         -1   -1    0    0    0  501 -0.00000000000E+00  0.00000000000E+00  0.51793447543E+02  0.51793447543E+02  0.00000000000E+00 0. -1.
          1   -1    0    0  502    0  0.00000000000E+00 -0.00000000000E+00 -0.99628655639E+03  0.99628655639E+03  0.00000000000E+00 0.  1.
          6    2    1    2  502    0  0.10846534355E+03  0.85587115150E+02 -0.61301259002E+03  0.65143871998E+03  0.17175006646E+03 0.  0.
         24    2    3    3    0    0  0.14444250865E+03  0.78217208592E+02 -0.52116106124E+03  0.55240607248E+03  0.81006463505E+02 0.  0.
         -6    2    1    2    0  501 -0.10846534355E+03 -0.85587115150E+02 -0.33148051882E+03  0.39664128395E+03  0.16838969311E+03 0.  0.
        -24    2    5    5    0    0 -0.13744548871E+03 -0.45422935129E+02 -0.22146113543E+03  0.27589624309E+03  0.78225296702E+02 0.  0.
          5    1    3    3  502    0 -0.35977165102E+02  0.73699065576E+01 -0.91851528781E+02  0.99032647500E+02  0.47000000000E+01 0. -1.
        -11    1    4    4    0    0  0.16806502050E+02  0.41799677557E+02 -0.19776779225E+03  0.20283434425E+03  0.00000000000E+00 0.  1.
         12    1    4    4    0    0  0.12763600660E+03  0.36417531035E+02 -0.32339326899E+03  0.34957172823E+03  0.00000000000E+00 0. -1.
         -5    1    5    5    0  501  0.28980145161E+02 -0.40164180021E+02 -0.11001938339E+03  0.12074504086E+03  0.47000000000E+01 0.  1.
         13    1    6    6    0    0 -0.14060574572E+02 -0.11144005742E+02  0.22943887716E+01  0.18087366893E+02  0.00000000000E+00 0. -1.
        -14    1    6    6    0    0 -0.12338491414E+03 -0.34278929387E+02 -0.22375552420E+03  0.25780887620E+03  0.00000000000E+00 0.  1.
</event>
<event>
12    1  0.2689284E-002  0.1896618E+03  0.7818608E-02  0.1158767E+00
         -2   -1    0    0    0  501 -0.00000000000E+00  0.00000000000E+00  0.20220378636E+03  0.20220378636E+03  0.00000000000E+00 0. -1.
          2   -1    0    0  502    0  0.00000000000E+00 -0.00000000000E+00 -0.21912626957E+03  0.21912626957E+03  0.00000000000E+00 0.  1.
          6    2    1    2  502    0  0.54154320944E+02 -0.54496916505E+02  0.82864699174E+02  0.20807239361E+03  0.17471393255E+03 0.  0.
         24    2    3    3    0    0 -0.17294871513E+02 -0.27368307975E+02 -0.11246301994E+02  0.86746720131E+02  0.79689254501E+02 0.  0.
         -6    2    1    2    0  501 -0.54154320944E+02  0.54496916505E+02 -0.99787182391E+02  0.21325766232E+03  0.17210097148E+03 0.  0.
        -24    2    5    5    0    0 -0.89818964457E+02 -0.26254755362E+01 -0.74015001356E+02  0.14099958468E+03  0.79550757106E+02 0.  0.
          5    1    3    3  502    0  0.71449192457E+02 -0.27128608530E+02  0.94111001168E+02  0.12132567348E+03  0.47000000000E+01 0. -1.
        -11    1    4    4    0    0 -0.17232218270E+02  0.18466827926E+02  0.19194590229E+02  0.31723892797E+02  0.00000000000E+00 0.  1.
         12    1    4    4    0    0 -0.62653242467E-01 -0.45835135900E+02 -0.30440892223E+02  0.55022827334E+02  0.00000000000E+00 0. -1.
         -5    1    5    5    0  501  0.35664643512E+02  0.57122392041E+02 -0.25772181035E+02  0.72258077643E+02  0.47000000000E+01 0.  1.
         11    1    6    6    0    0 -0.14249605799E+02 -0.26497397022E+00  0.17321009912E+02  0.22430757031E+02  0.00000000000E+00 0. -1.
        -12    1    6    6    0    0 -0.75569358658E+02 -0.23605015659E+01 -0.91336011268E+02  0.11856882765E+03  0.00000000000E+00 0.  1.
</event>
<event>
12    1  0.2689284E-002  0.1828645E+03  0.7818608E-02  0.1165059E+00
          1   -1    0    0  502    0  0.00000000000E+00  0.00000000000E+00  0.17003979104E+04  0.17003979104E+04  0.00000000000E+00 0.  1.
         -1   -1    0    0    0  501 -0.00000000000E+00 -0.00000000000E+00 -0.22013645687E+02  0.22013645687E+02  0.00000000000E+00 0. -1.
          6    2    1    2  502    0  0.41278825196E+02 -0.43750708319E+02  0.55006081565E+03  0.57904973035E+03  0.17062714738E+03 0.  0.
         24    2    3    3    0    0 -0.13832341584E+02 -0.67790607687E+02  0.45212664841E+03  0.46403517224E+03  0.78251100367E+02 0.  0.
         -6    2    1    2    0  501 -0.41278825196E+02  0.43750708319E+02  0.11283234490E+04  0.11433618257E+04  0.17476954239E+03 0.  0.
        -24    2    5    5    0    0  0.26381232907E+02 -0.21772382590E+02  0.56986099053E+03  0.57699307085E+03  0.83722453368E+02 0.  0.
          5    1    3    3  502    0  0.55111166780E+02  0.24039899367E+02  0.97934167241E+02  0.11501455812E+03  0.47000000000E+01 0. -1.
        -13    1    4    4    0    0  0.20605160586E+02 -0.46884105179E+02  0.35807018079E+03  0.36171390122E+03  0.00000000000E+00 0.  1.
         14    1    4    4    0    0 -0.34437502170E+02 -0.20906502508E+02  0.94056467613E+02  0.10232127102E+03  0.00000000000E+00 0. -1.
         -5    1    5    5    0  501 -0.67660058103E+02  0.65523090910E+02  0.55846245850E+03  0.56636875484E+03  0.47000000000E+01 0.  1.
         13    1    6    6    0    0 -0.28110705642E+02 -0.32821602960E+01  0.11157239072E+03  0.11510596300E+03  0.00000000000E+00 0. -1.
        -14    1    6    6    0    0  0.54491938549E+02 -0.18490222294E+02  0.45828859981E+03  0.46188710785E+03  0.00000000000E+00 0.  1.
</event>
<event>
12    1  0.2689284E-002  0.2167252E+03  0.7818608E-02  0.1136348E+00
          1   -1    0    0  502    0  0.00000000000E+00  0.00000000000E+00  0.12586709256E+04  0.12586709256E+04  0.00000000000E+00 0. -1.
         -1   -1    0    0    0  501 -0.00000000000E+00 -0.00000000000E+00 -0.38803298072E+02  0.38803298072E+02  0.00000000000E+00 0.  1.
          6    2    1    2  502    0  0.12497412788E+03  0.43536512564E+02  0.73539660575E+03  0.76651131261E+03  0.17093116759E+03 0.  0.
         24    2    3    3    0    0  0.10273059312E+03  0.20986378496E+02  0.71848098039E+03  0.73029651224E+03  0.78256461484E+02 0.  0.
         -6    2    1    2    0  501 -0.12497412788E+03 -0.43536512564E+02  0.48447102177E+03  0.53096291105E+03  0.17232376913E+03 0.  0.
        -24    2    5    5    0    0 -0.55069013025E+02 -0.89734110577E+02  0.29637872361E+03  0.32499751160E+03  0.81842702398E+02 0.  0.
          5    1    3    3  502    0  0.22243534757E+02  0.22550134068E+02  0.16915625362E+02  0.36214800377E+02  0.47000000000E+01 0. -1.
        -13    1    4    4    0    0  0.49794498804E+02  0.47112016608E+02  0.30400011889E+03  0.31163296761E+03  0.00000000000E+00 0.  1.
         14    1    4    4    0    0  0.52936094320E+02 -0.26125638112E+02  0.41448086150E+03  0.41866354463E+03  0.00000000000E+00 0. -1.
         -5    1    5    5    0  501 -0.69905114856E+02  0.46197598014E+02  0.18809229816E+03  0.20596539945E+03  0.47000000000E+01 0.  1.
         13    1    6    6    0    0 -0.50289098844E+02 -0.33722540038E+02  0.23085697871E+03  0.23866534686E+03  0.00000000000E+00 0. -1.
        -14    1    6    6    0    0 -0.47799141803E+01 -0.56011570539E+02  0.65521744900E+02  0.86332164739E+02  0.00000000000E+00 0.  1.
</event>
<event>
12    1  0.2689284E-002  0.1729003E+03  0.7818608E-02  0.1174857E+00
          4   -1    0    0  502    0  0.00000000000E+00  0.00000000000E+00  0.11934799545E+04  0.11934799545E+04  0.00000000000E+00 0.  1.
         -4   -1    0    0    0  501 -0.00000000000E+00 -0.00000000000E+00 -0.48640378055E+02  0.48640378055E+02  0.00000000000E+00 0. -1.
          6    2    1    2  502    0 -0.18150348347E+02 -0.73835476470E+01  0.10053930799E+04  0.10201957559E+04  0.17204703821E+03 0.  0.
         24    2    3    3    0    0 -0.21324371724E+01  0.16348583901E+02  0.97413482141E+03  0.97754653236E+03  0.79917139363E+02 0.  0.
         -6    2    1    2    0  501  0.18150348347E+02  0.73835476470E+01  0.13944649653E+03  0.22192457662E+03  0.17152620906E+03 0.  0.
        -24    2    5    5    0    0 -0.10856916702E+02 -0.60079969100E+02  0.80595107230E+02  0.12769972035E+03  0.78001102171E+02 0.  0.
          5    1    3    3  502    0 -0.16017911174E+02 -0.23732131548E+02  0.31258258496E+02  0.42649223562E+02  0.47000000000E+01 0. -1.
        -11    1    4    4    0    0 -0.22519721561E+02  0.52426660365E+01  0.88906773380E+03  0.88936834815E+03  0.00000000000E+00 0.  1.
         12    1    4    4    0    0  0.20387284388E+02  0.11105917864E+02  0.85067087603E+02  0.88178184204E+02  0.00000000000E+00 0. -1.
         -5    1    5    5    0  501  0.29007265049E+02  0.67463516747E+02  0.58851389296E+02  0.94224856272E+02  0.47000000000E+01 0.  1.
         13    1    6    6    0    0  0.11977886839E+02 -0.37800246112E+02 -0.14407086943E+01  0.39678760323E+02  0.00000000000E+00 0. -1.
        -14    1    6    6    0    0 -0.22834803541E+02 -0.22279722988E+02  0.82035815924E+02  0.88020960023E+02  0.00000000000E+00 0.  1.
</event>
<event>
12    1  0.2689284E-002  0.1784324E+03  0.7818608E-02  0.1169329E+00
         -1   -1    0    0    0  501 -0.00000000000E+00  0.00000000000E+00  0.22665025561E+03  0.22665025561E+03  0.00000000000E+00 0.  1.
          1   -1    0    0  502    0  0.00000000000E+00 -0.00000000000E+00 -0.22779157227E+03  0.22779157227E+03  0.00000000000E+00 0. -1.
          6    2    1    2  502    0  0.20909922599E+02  0.45916915203E+02 -0.14124753103E+03  0.22703674008E+03  0.17043834181E+03 0.  0.
         24    2    3    3    0    0 -0.22942560755E+02  0.45600662874E+02 -0.25995552089E+02  0.10363394853E+03  0.86362289286E+02 0.  0.
         -6    2    1    2    0  501 -0.20909922599E+02 -0.45916915203E+02  0.14010621437E+03  0.22740508780E+03  0.17186545519E+03 0.  0.
        -24    2    5    5    0    0  0.35263296242E+02 -0.74010680420E+02  0.10415656390E+03  0.15488503866E+03  0.80123058589E+02 0.  0.
          5    1    3    3  502    0  0.43852483353E+02  0.31625232931E+00 -0.11525197894E+03  0.12340279155E+03  0.47000000000E+01 0. -1.
        -13    1    4    4    0    0 -0.34193647648E+02 -0.38561389704E+01  0.15844729865E+02  0.37883120406E+02  0.00000000000E+00 0.  1.
         14    1    4    4    0    0  0.11251086893E+02  0.49456801844E+02 -0.41840281954E+02  0.65750828123E+02  0.00000000000E+00 0. -1.
         -5    1    5    5    0  501 -0.56173218841E+02  0.28093765217E+02  0.35949650465E+02  0.72520049142E+02  0.47000000000E+01 0.  1.
         13    1    6    6    0    0  0.12994898210E+02 -0.87207251674E+02  0.73710439170E+02  0.11492258684E+03  0.00000000000E+00 0. -1.
        -14    1    6    6    0    0  0.22268398032E+02  0.13196571254E+02  0.30446124733E+02  0.39962451815E+02  0.00000000000E+00 0.  1.
</event>
<event>
12    1  0.2689284E-002  0.3484531E+03  0.7818608E-02  0.1063252E+00
          2   -1    0    0  502    0  0.00000000000E+00  0.00000000000E+00  0.10837265704E+04  0.10837265704E+04  0.00000000000E+00 0. -1.
         -2   -1    0    0    0  501 -0.00000000000E+00 -0.00000000000E+00 -0.23984239047E+03  0.23984239047E+03  0.00000000000E+00 0.  1.
          6    2    1    2  502    0 -0.25856471858E+02  0.30212697337E+03 -0.61250611583E+02  0.35361045431E+03  0.17128762594E+03 0.  0.
         24    2    3    3    0    0 -0.57232694238E+02  0.17529815602E+03 -0.89038633009E+02  0.21995312987E+03  0.80289951906E+02 0.  0.
         -6    2    1    2    0  501  0.25856471858E+02 -0.30212697337E+03  0.90513479147E+03  0.96995850653E+03  0.17205013364E+03 0.  0.
        -24    2    5    5    0    0 -0.25077979849E+02 -0.25635778709E+03  0.61807073899E+03  0.67480262058E+03  0.83659537856E+02 0.  0.
          5    1    3    3  502    0  0.31376222380E+02  0.12682881735E+03  0.27788021425E+02  0.13365732443E+03  0.47000000000E+01 0. -1.
        -11    1    4    4    0    0 -0.10382900653E+02  0.12121405808E+03 -0.84756296235E+02  0.14827097576E+03  0.00000000000E+00 0.  1.
         12    1    4    4    0    0 -0.46849793586E+02  0.54084097945E+02 -0.42823367735E+01  0.71682154109E+02  0.00000000000E+00 0. -1.
         -5    1    5    5    0  501  0.50934451707E+02 -0.45769186283E+02  0.28706405249E+03  0.29515588595E+03  0.47000000000E+01 0.  1.
         11    1    6    6    0    0  0.20380828341E+02 -0.10163448725E+03  0.17626319357E+03  0.20448388829E+03  0.00000000000E+00 0. -1.
        -12    1    6    6    0    0 -0.45458808189E+02 -0.15472329983E+03  0.44180754541E+03  0.47031873228E+03  0.00000000000E+00 0.  1.
</event>
<event>
12    1  0.2689284E-002  0.1894703E+03  0.7818608E-02  0.1158940E+00
          2   -1    0    0  502    0  0.00000000000E+00  0.00000000000E+00  0.16008593540E+03  0.16008593540E+03  0.00000000000E+00 0. -1.
         -2   -1    0    0    0  501 -0.00000000000E+00 -0.00000000000E+00 -0.23337802344E+03  0.23337802344E+03  0.00000000000E+00 0.  1.
          6    2    1    2  502    0  0.71853912181E+02 -0.50831548765E+02  0.14374331567E+01  0.19303379974E+03  0.17179391893E+03 0.  0.
         24    2    3    3    0    0  0.29560049505E+02 -0.91561973556E+02  0.28359165667E+02  0.12826800626E+03  0.79944028071E+02 0.  0.
         -6    2    1    2    0  501 -0.71853912181E+02  0.50831548765E+02 -0.74729521202E+02  0.20043015910E+03  0.16383197579E+03 0.  0.
        -24    2    5    5    0    0 -0.95336625449E+02  0.27779105374E+02 -0.97214451963E+02  0.16029893584E+03  0.79902117079E+02 0.  0.
          5    1    3    3  502    0  0.42293862676E+02  0.40730424792E+02 -0.26921732510E+02  0.64765793480E+02  0.47000000000E+01 0. -1.
        -13    1    4    4    0    0 -0.89350307701E+01 -0.54082976455E+02  0.46166815663E+02  0.71667133231E+02  0.00000000000E+00 0.  1.
         14    1    4    4    0    0  0.38495080275E+02 -0.37478997102E+02 -0.17807649997E+02  0.56600873028E+02  0.00000000000E+00 0. -1.
         -5    1    5    5    0  501  0.23482713268E+02  0.23052443391E+02  0.22484930762E+02  0.40131223257E+02  0.47000000000E+01 0.  1.
         11    1    6    6    0    0 -0.27358492929E+02  0.40955239130E+02 -0.12364076781E+02  0.50780795013E+02  0.00000000000E+00 0. -1.
        -12    1    6    6    0    0 -0.67978132521E+02 -0.13176133756E+02 -0.84850375183E+02  0.10951814083E+03  0.00000000000E+00 0.  1.
</event>
<event>
12    1  0.2689284E-002  0.1889543E+03  0.7818608E-02  0.1159408E+00
          2   -1    0    0  502    0  0.00000000000E+00  0.00000000000E+00  0.15259320603E+04  0.15259320603E+04  0.00000000000E+00 0.  1.
         -2   -1    0    0    0  501 -0.00000000000E+00 -0.00000000000E+00 -0.24338544118E+02  0.24338544118E+02  0.00000000000E+00 0. -1.
          6    2    1    2  502    0  0.69680572956E+01  0.76950463848E+02  0.90691562571E+03  0.92659431240E+03  0.17352561746E+03 0.  0.
         24    2    3    3    0    0 -0.50638401202E+02  0.20724606360E+02  0.32162157878E+03  0.33577195122E+03  0.79426735427E+02 0.  0.
         -6    2    1    2    0  501 -0.69680572956E+01 -0.76950463848E+02  0.59467789050E+03  0.62367629204E+03  0.17134875575E+03 0.  0.
        -24    2    5    5    0    0 -0.43360028227E+01  0.16689262046E+02  0.17081078505E+03  0.18955564169E+03  0.80359720134E+02 0.  0.
          5    1    3    3  502    0  0.57606458497E+02  0.56225857488E+02  0.58529404692E+03  0.59082236119E+03  0.47000000000E+01 0. -1.
        -11    1    4    4    0    0 -0.50829092044E+02 -0.16958378705E+02  0.23944291215E+03  0.24536522040E+03  0.00000000000E+00 0.  1.
         12    1    4    4    0    0  0.19069084217E+00  0.37682985065E+02  0.82178666634E+02  0.90406730812E+02  0.00000000000E+00 0. -1.
         -5    1    5    5    0  501 -0.26320544728E+01 -0.93639725894E+02  0.42386710546E+03  0.43412065035E+03  0.47000000000E+01 0.  1.
         11    1    6    6    0    0 -0.36588149916E+02  0.68167662418E+00  0.13036996188E+03  0.13540858303E+03  0.00000000000E+00 0. -1.
        -12    1    6    6    0    0  0.32252147094E+02  0.16007585421E+02  0.40440823167E+02  0.54147058661E+02  0.00000000000E+00 0.  1.
</event>
<event>
12    1  0.2689284E-002  0.1889545E+03  0.7818608E-02  0.1159408E+00
         -1   -1    0    0    0  501 -0.00000000000E+00  0.00000000000E+00  0.28130272053E+02  0.28130272053E+02  0.00000000000E+00 0.  1.
          1   -1    0    0  502    0  0.00000000000E+00 -0.00000000000E+00 -0.12905931116E+04  0.12905931116E+04  0.00000000000E+00 0. -1.
          6    2    1    2  502    0  0.66567351072E+02  0.39282724425E+02 -0.54728574693E+03  0.57907416238E+03  0.17271610253E+03 0.  0.
         24    2    3    3    0    0 -0.19218340853E+02 -0.19160991821E+02 -0.23590414099E+03  0.25081291364E+03  0.80745685195E+02 0.  0.
         -6    2    1    2    0  501 -0.66567351072E+02 -0.39282724425E+02 -0.71517709260E+03  0.73964922126E+03  0.17212888212E+03 0.  0.
        -24    2    5    5    0    0 -0.11055837885E+03 -0.30790267837E+02 -0.59804373903E+03  0.61415163219E+03  0.79716483857E+02 0.  0.
          5    1    3    3  502    0  0.85785691926E+02  0.58443716246E+02 -0.31138160594E+03  0.32826124874E+03  0.47000000000E+01 0. -1.
        -11    1    4    4    0    0 -0.33689079239E+02 -0.23020549394E+02 -0.51049215549E+02  0.65352292711E+02  0.00000000000E+00 0.  1.
         12    1    4    4    0    0  0.14470738386E+02  0.38595575730E+01 -0.18485492544E+03  0.18546062093E+03  0.00000000000E+00 0. -1.
         -5    1    5    5    0  501  0.43991027777E+02 -0.84924565886E+01 -0.11713335357E+03  0.12549758907E+03  0.47000000000E+01 0.  1.
         13    1    6    6    0    0 -0.31807360508E+02  0.16927490240E+02 -0.76735768816E+02  0.84773971973E+02  0.00000000000E+00 0. -1.
        -14    1    6    6    0    0 -0.78751018341E+02 -0.47717758077E+02 -0.52130797022E+03  0.52937766022E+03  0.00000000000E+00 0.  1.
</event>
<event>
12    1  0.2689284E-002  0.2542806E+03  0.7818608E-02  0.1110629E+00
         -1   -1    0    0    0  501 -0.00000000000E+00  0.00000000000E+00  0.18984052160E+03  0.18984052160E+03  0.00000000000E+00 0.  1.
          1   -1    0    0  502    0  0.00000000000E+00 -0.00000000000E+00 -0.36552675910E+03  0.36552675910E+03  0.00000000000E+00 0. -1.
          6    2    1    2  502    0 -0.17357742940E+03  0.68240140202E+02 -0.16015353913E+03  0.29996557005E+03  0.17188468921E+03 0.  0.
         24    2    3    3    0    0 -0.18645252628E+03  0.21100007905E+02 -0.12008094318E+03  0.23659473181E+03  0.79673579776E+02 0.  0.
         -6    2    1    2    0  501  0.17357742940E+03 -0.68240140202E+02 -0.15532698369E+02  0.25540171065E+03  0.17378989716E+03 0.  0.
        -24    2    5    5    0    0  0.18242967557E+03 -0.30499369125E+02 -0.44176052495E+02  0.20697382820E+03  0.81705837607E+02 0.  0.
          5    1    3    3  502    0  0.12875096882E+02  0.47140132297E+02 -0.40072595945E+02  0.63370838234E+02  0.47000000000E+01 0. -1.
        -13    1    4    4    0    0 -0.16504191908E+02  0.25802297094E+02 -0.34905168773E+02  0.46438321383E+02  0.00000000000E+00 0.  1.
         14    1    4    4    0    0 -0.16994833438E+03 -0.47022891887E+01 -0.85175774412E+02  0.19015641043E+03  0.00000000000E+00 0. -1.
         -5    1    5    5    0  501 -0.88522461678E+01 -0.37740771077E+02  0.28643354126E+02  0.48427882457E+02  0.47000000000E+01 0.  1.
         11    1    6    6    0    0  0.10585155687E+03 -0.48616440673E+02 -0.52646761767E+02  0.12782719554E+03  0.00000000000E+00 0. -1.
        -12    1    6    6    0    0  0.76578118701E+02  0.18117071548E+02  0.84707092724E+01  0.79146632656E+02  0.00000000000E+00 0.  1.
</event>
<event>
12    1  0.2689284E-002  0.1746099E+03  0.7818608E-02  0.1173124E+00
          2   -1    0    0  502    0  0.00000000000E+00  0.00000000000E+00  0.50887545449E+03  0.50887545449E+03  0.00000000000E+00 0. -1.
         -2   -1    0    0    0  501 -0.00000000000E+00 -0.00000000000E+00 -0.89004534784E+02  0.89004534784E+02  0.00000000000E+00 0.  1.
          6    2    1    2  502    0 -0.40242869647E+01  0.16359503166E+01  0.37852091017E+03  0.41570067260E+03  0.17178503586E+03 0.  0.
         24    2    3    3    0    0 -0.13848981930E+02  0.65520502173E+02  0.24527570322E+03  0.26753139180E+03  0.83235476232E+02 0.  0.
         -6    2    1    2    0  501  0.40242869647E+01 -0.16359503166E+01  0.41350009538E+02  0.18217931668E+03  0.17737138697E+03 0.  0.
        -24    2    5    5    0    0 -0.24294254538E+02 -0.17966339744E+02  0.89308919867E+02  0.12394901106E+03  0.80462873481E+02 0.  0.
          5    1    3    3  502    0  0.98246949652E+01 -0.63884551857E+02  0.13324520695E+03  0.14816928080E+03  0.47000000000E+01 0. -1.
        -11    1    4    4    0    0 -0.25268006703E+02 -0.11697325136E+02  0.49957200383E+02  0.57192844379E+02  0.00000000000E+00 0.  1.
         12    1    4    4    0    0  0.11419024774E+02  0.77217827309E+02  0.19531850283E+03  0.21033854742E+03  0.00000000000E+00 0. -1.
         -5    1    5    5    0  501  0.28318541502E+02  0.16330389427E+02 -0.47958910329E+02  0.58230305611E+02  0.47000000000E+01 0.  1.
         11    1    6    6    0    0 -0.52551404920E+02 -0.13154393634E+02  0.41645021717E+02  0.68330052427E+02  0.00000000000E+00 0. -1.
        -12    1    6    6    0    0  0.28257150382E+02 -0.48119461093E+01  0.47663898150E+02  0.55618958637E+02  0.00000000000E+00 0.  1.
</event>
<event>
12    1  0.2689284E-002  0.2230162E+03  0.7818608E-02  0.1131654E+00
         -1   -1    0    0    0  501 -0.00000000000E+00  0.00000000000E+00  0.79075417041E+03  0.79075417041E+03  0.00000000000E+00 0.  1.
          1   -1    0    0  502    0  0.00000000000E+00 -0.00000000000E+00 -0.21996191064E+03  0.21996191064E+03  0.00000000000E+00 0. -1.
          6    2    1    2  502    0  0.67984122073E+02 -0.12636927503E+03 -0.14136562566E+03  0.26467746255E+03  0.17169415989E+03 0.  0.
         24    2    3    3    0    0  0.63213102954E+00 -0.28668528236E+02 -0.11577314379E+03  0.14319169487E+03  0.79234819095E+02 0.  0.
         -6    2    1    2    0  501 -0.67984122073E+02  0.12636927503E+03  0.71215788543E+03  0.74603861850E+03  0.16974608092E+03 0.  0.
        -24    2    5    5    0    0 -0.41066873032E+02  0.23098424270E+02  0.49882608182E+03  0.50745539331E+03  0.80395839619E+02 0.  0.
          5    1    3    3  502    0  0.67351991043E+02 -0.97700746792E+02 -0.25592481873E+02  0.12148576768E+03  0.47000000000E+01 0. -1.
        -11    1    4    4    0    0 -0.37536749857E+02 -0.18498600123E+02 -0.40777922110E+02  0.58429827382E+02  0.00000000000E+00 0.  1.
         12    1    4    4    0    0  0.38168880886E+02 -0.10169928113E+02 -0.74995221675E+02  0.84761867488E+02  0.00000000000E+00 0. -1.
         -5    1    5    5    0  501 -0.26917249041E+02  0.10327085076E+03  0.21333180361E+03  0.23858322519E+03  0.47000000000E+01 0.  1.
         13    1    6    6    0    0  0.16007736458E+02  0.14897496127E+02  0.45555881856E+02  0.50532379610E+02  0.00000000000E+00 0. -1.
        -14    1    6    6    0    0 -0.57074609489E+02  0.82009281431E+01  0.45327019996E+03  0.45692301370E+03  0.00000000000E+00 0.  1.
</event>
<event>
12    1  0.2689284E-002  0.1743948E+03  0.7818608E-02  0.1173341E+00
         -2   -1    0    0    0  501 -0.00000000000E+00  0.00000000000E+00  0.39862701572E+02  0.39862701572E+02  0.00000000000E+00 0. -1.
          2   -1    0    0  502    0  0.00000000000E+00 -0.00000000000E+00 -0.87231072827E+03  0.87231072827E+03  0.00000000000E+00 0.  1.
          6    2    1    2  502    0  0.29250989115E+02  0.12837756440E+02 -0.58005227764E+03  0.60603055530E+03  0.17260347853E+03 0.  0.
         24    2    3    3    0    0  0.46296083269E+02  0.58026729572E+02 -0.50522219688E+03  0.51684418014E+03  0.79799809828E+02 0.  0.
         -6    2    1    2    0  501 -0.29250989115E+02 -0.12837756440E+02 -0.25239574906E+03  0.30614287455E+03  0.17029215231E+03 0.  0.
        -24    2    5    5    0    0 -0.17232597079E+01 -0.66730709848E+02 -0.20547938514E+03  0.22942611291E+03  0.77192009334E+02 0.  0.
          5    1    3    3  502    0 -0.17045094154E+02 -0.45188973132E+02 -0.74830080763E+02  0.89186375162E+02  0.47000000000E+01 0. -1.
        -11    1    4    4    0    0 -0.19433353313E+00 -0.96150727543E+01 -0.21565177417E+03  0.21586610455E+03  0.00000000000E+00 0.  1.
         12    1    4    4    0    0  0.46490416802E+02  0.67641802326E+02 -0.28957042271E+03  0.30097807559E+03  0.00000000000E+00 0. -1.
         -5    1    5    5    0  501 -0.27527729407E+02  0.53892953408E+02 -0.46916363913E+02  0.76716761638E+02  0.47000000000E+01 0.  1.
         11    1    6    6    0    0  0.36317114678E+02 -0.40368442246E+02 -0.13003024542E+03  0.14091276972E+03  0.00000000000E+00 0. -1.
        -12    1    6    6    0    0 -0.38040374386E+02 -0.26362267602E+02 -0.75449139728E+02  0.88513343188E+02  0.00000000000E+00 0.  1.
</event>
<event>
12    1  0.2689284E-002  0.3309676E+03  0.7818608E-02  0.1070710E+00
         -2   -1    0    0    0  501 -0.00000000000E+00  0.00000000000E+00  0.20346402526E+03  0.20346402526E+03  0.00000000000E+00 0.  1.
          2   -1    0    0  502    0  0.00000000000E+00 -0.00000000000E+00 -0.63739801306E+03  0.63739801306E+03  0.00000000000E+00 0. -1.
          6    2    1    2  502    0 -0.24569764156E+03 -0.13989865636E+03 -0.38279562593E+03  0.50617025064E+03  0.17244380617E+03 0.  0.
         24    2    3    3    0    0 -0.10137693731E+03 -0.90149707476E+02 -0.28304711693E+03  0.32375512342E+03  0.79356514324E+02 0.  0.
         -6    2    1    2    0  501  0.24569764156E+03  0.13989865636E+03 -0.51138361868E+02  0.33469178768E+03  0.17165225185E+03 0.  0.
        -24    2    5    5    0    0  0.25579299155E+03  0.14950879722E+03 -0.30015619612E+02  0.30895210743E+03  0.82265012586E+02 0.  0.
          5    1    3    3  502    0 -0.14432070425E+03 -0.49748948888E+02 -0.99748509000E+02  0.18241512722E+03  0.47000000000E+01 0. -1.
        -11    1    4    4    0    0 -0.39441145805E+02 -0.49694130714E+02 -0.54851348457E+02  0.83867639989E+02  0.00000000000E+00 0.  1.
         12    1    4    4    0    0 -0.61935791502E+02 -0.40455576762E+02 -0.22819576847E+03  0.23988748343E+03  0.00000000000E+00 0. -1.
         -5    1    5    5    0  501 -0.10095349990E+02 -0.96101408580E+01 -0.21122742256E+02  0.25739680246E+02  0.47000000000E+01 0. -1.
         11    1    6    6    0    0  0.90439421022E+02  0.96790625609E+02 -0.27957371771E+02  0.13538585124E+03  0.00000000000E+00 0. -1.
        -12    1    6    6    0    0  0.16535357053E+03  0.52718171612E+02 -0.20582478405E+01  0.17356625619E+03  0.00000000000E+00 0.  1.
</event>
<event>
12    1  0.2689284E-002  0.2249364E+03  0.7818608E-02  0.1130255E+00
          2   -1    0    0  502    0  0.00000000000E+00  0.00000000000E+00  0.44450542710E+03  0.44450542710E+03  0.00000000000E+00 0.  1.
         -2   -1    0    0    0  501 -0.00000000000E+00 -0.00000000000E+00 -0.15183689705E+03  0.15183689705E+03  0.00000000000E+00 0. -1.
          6    2    1    2  502    0 -0.61488278152E+02  0.13168425576E+03  0.29553746911E+03  0.37142175531E+03  0.17172703080E+03 0.  0.
         24    2    3    3    0    0  0.18493606324E+02  0.16141300765E+02  0.10930667365E+03  0.13807378452E+03  0.80708524977E+02 0.  0.
         -6    2    1    2    0  501  0.61488278152E+02 -0.13168425576E+03 -0.28689390553E+01  0.22492056884E+03  0.17163764131E+03 0.  0.
        -24    2    5    5    0    0 -0.85120258756E+01 -0.12199561113E+03 -0.29375613656E+02  0.14929910233E+03  0.80448191780E+02 0.  0.
          5    1    3    3  502    0 -0.79981884476E+02  0.11554295499E+03  0.18623079546E+03  0.23334797079E+03  0.47000000000E+01 0. -1.
        -13    1    4    4    0    0  0.75700957767E+01 -0.11221267997E+02  0.10772165957E+03  0.10856877611E+03  0.00000000000E+00 0.  1.
         14    1    4    4    0    0  0.10923510547E+02  0.27362568762E+02  0.15850140770E+01  0.29505008415E+02  0.00000000000E+00 0. -1.
         -5    1    5    5    0  501  0.70000304028E+02 -0.96886446274E+01  0.26506674601E+02  0.75621466509E+02  0.47000000000E+01 0.  1.
         13    1    6    6    0    0  0.10030989181E+02  0.18097425881E+01 -0.21584966373E+02  0.23870623903E+02  0.00000000000E+00 0. -1.
        -14    1    6    6    0    0 -0.18543015056E+02 -0.12380535372E+03 -0.77906472830E+01  0.12542847843E+03  0.00000000000E+00 0.  1.
</event>
<event>
12    1  0.2689284E-002  0.1920978E+03  0.7818608E-02  0.1156583E+00
         -1   -1    0    0    0  501 -0.00000000000E+00  0.00000000000E+00  0.56990093950E+02  0.56990093950E+02  0.00000000000E+00 0.  1.
          1   -1    0    0  502    0  0.00000000000E+00 -0.00000000000E+00 -0.67869941036E+03  0.67869941036E+03  0.00000000000E+00 0. -1.
          6    2    1    2  502    0 -0.16916880080E+02  0.89000293737E+02 -0.39519945008E+03  0.44108990708E+03  0.17369648145E+03 0.  0.
         24    2    3    3    0    0  0.10020819376E+02 -0.70952017044E+01 -0.96408871233E+02  0.12603771473E+03  0.80250086444E+02 0.  0.
         -6    2    1    2    0  501  0.16916880080E+02 -0.89000293737E+02 -0.22650986634E+03  0.29459959724E+03  0.16515135490E+03 0.  0.
        -24    2    5    5    0    0 -0.54660403743E+01 -0.49179952196E+02 -0.22865997227E+03  0.24862821827E+03  0.84154992175E+02 0.  0.
          5    1    3    3  502    0 -0.26937699455E+02  0.96095495442E+02 -0.29879057884E+03  0.31505219235E+03  0.47000000000E+01 0. -1.
        -13    1    4    4    0    0 -0.34335805999E+02  0.35520648913E+01 -0.31700335336E+02  0.46866576566E+02  0.00000000000E+00 0.  1.
         14    1    4    4    0    0  0.44356625375E+02 -0.10647266596E+02 -0.64708535897E+02  0.79171138166E+02  0.00000000000E+00 0. -1.
         -5    1    5    5    0  501  0.22382920454E+02 -0.39820341541E+02  0.21501059283E+01  0.45971378966E+02  0.47000000000E+01 0.  1.
         11    1    6    6    0    0  0.12862000106E+02 -0.68922177175E+02 -0.17667196531E+03  0.19007546101E+03  0.00000000000E+00 0. -1.
        -12    1    6    6    0    0 -0.18328040480E+02  0.19742224979E+02 -0.51988006956E+02  0.58552757256E+02  0.00000000000E+00 0.  1.
</event>
<event>
12    1  0.2689284E-002  0.2550861E+03  0.7818608E-02  0.1110132E+00
         -2   -1    0    0    0  501 -0.00000000000E+00  0.00000000000E+00  0.89294941719E+02  0.89294941719E+02  0.00000000000E+00 0.  1.
          2   -1    0    0  502    0  0.00000000000E+00 -0.00000000000E+00 -0.73644843820E+03  0.73644843820E+03  0.00000000000E+00 0. -1.
          6    2    1    2  502    0  0.65231047977E+02 -0.17686228585E+03 -0.28053006889E+03  0.37879189437E+03  0.17102871664E+03 0.  0.
         24    2    3    3    0    0 -0.19161192960E+02 -0.13872391147E+03 -0.16378182482E+03  0.22969853964E+03  0.79532748254E+02 0.  0.
         -6    2    1    2    0  501 -0.65231047977E+02  0.17686228585E+03 -0.36662342759E+03  0.44695148555E+03  0.17267754630E+03 0.  0.
        -24    2    5    5    0    0 -0.16362292074E+02  0.17264449671E+03 -0.21492746469E+03  0.28745320904E+03  0.79760174651E+02 0.  0.
          5    1    3    3  502    0  0.84392240937E+02 -0.38138374384E+02 -0.11674824407E+03  0.14909335473E+03  0.47000000000E+01 0. -1.
        -13    1    4    4    0    0 -0.43558976877E+02 -0.40756343995E+02 -0.69113587987E+02  0.91297054097E+02  0.00000000000E+00 0.  1.
         14    1    4    4    0    0  0.24397783916E+02 -0.97967567471E+02 -0.94668236831E+02  0.13840148554E+03  0.00000000000E+00 0. -1.
         -5    1    5    5    0  501 -0.48868755903E+02  0.42177891361E+01 -0.15169596290E+03  0.15949827651E+03  0.47000000000E+01 0.  1.
         13    1    6    6    0    0 -0.39909036159E+01  0.89139717630E+01 -0.62994932053E+02  0.63747530686E+02  0.00000000000E+00 0. -1.
        -14    1    6    6    0    0 -0.12371388458E+02  0.16373052495E+03 -0.15193253264E+03  0.22370567835E+03  0.00000000000E+00 0.  1.
</event>
<event>
12    1  0.2689284E-002  0.2001318E+03  0.7818608E-02  0.1149628E+00
         -2   -1    0    0    0  501 -0.00000000000E+00  0.00000000000E+00  0.81534876549E+02  0.81534876549E+02  0.00000000000E+00 0. -1.
          2   -1    0    0  502    0  0.00000000000E+00 -0.00000000000E+00 -0.56562151285E+03  0.56562151285E+03  0.00000000000E+00 0.  1.
          6    2    1    2  502    0 -0.65715267043E+02  0.78911022773E+02 -0.35881101495E+03  0.41058475939E+03  0.17114045213E+03 0.  0.
         24    2    3    3    0    0 -0.30258116262E+02  0.14172817764E+02 -0.65977266015E+02  0.10855506011E+03  0.79465584265E+02 0.  0.
         -6    2    1    2    0  501  0.65715267043E+02 -0.78911022773E+02 -0.12527562135E+03  0.23657163001E+03  0.17241435260E+03 0.  0.
        -24    2    5    5    0    0  0.10699247027E+03 -0.30007384136E+02 -0.94615641597E+02  0.16545554367E+03  0.77946042219E+02 0.  0.
          5    1    3    3  502    0 -0.35457150780E+02  0.64738205009E+02 -0.29283374893E+03  0.30202969927E+03  0.47000000000E+01 0. -1.
        -13    1    4    4    0    0 -0.28934223072E+02 -0.21005357501E+01 -0.81203446890E+02  0.86229932750E+02  0.00000000000E+00 0.  1.
         14    1    4    4    0    0 -0.13238931908E+01  0.16273353514E+02  0.15226180875E+02  0.22325127364E+02  0.00000000000E+00 0. -1.
         -5    1    5    5    0  501 -0.41277203228E+02 -0.48903638637E+02 -0.30659979756E+02  0.71116086344E+02  0.47000000000E+01 0.  1.
         11    1    6    6    0    0  0.88657383313E+02 -0.55156814510E+02 -0.69086093086E+02  0.12520101462E+03  0.00000000000E+00 0. -1.
        -12    1    6    6    0    0  0.18335086958E+02  0.25149430374E+02 -0.25529548511E+02  0.40254529050E+02  0.00000000000E+00 0.  1.
</event>
<event>
12    1  0.2689284E-002  0.1678756E+03  0.7818608E-02  0.1180082E+00
         -1   -1    0    0    0  501 -0.00000000000E+00  0.00000000000E+00  0.56848741611E+02  0.56848741611E+02  0.00000000000E+00 0.  1.
          1   -1    0    0  502    0  0.00000000000E+00 -0.00000000000E+00 -0.11868098516E+04  0.11868098516E+04  0.00000000000E+00 0. -1.
          6    2    1    2  502    0  0.66216124577E+01 -0.20474168218E+02 -0.10320479553E+04  0.10448160395E+04  0.16141417851E+03 0.  0.
         24    2    3    3    0    0 -0.40849216531E+01 -0.63721829192E+02 -0.46803760394E+03  0.47902919227E+03  0.79577699386E+02 0.  0.
         -6    2    1    2    0  501 -0.66216124577E+01  0.20474168218E+02 -0.97913154638E+02  0.19884255367E+03  0.17172168757E+03 0.  0.
        -24    2    5    5    0    0 -0.46148403592E+01 -0.18726778271E+02 -0.12612102873E+03  0.15027800383E+03  0.79403876301E+02 0.  0.
          5    1    3    3  502    0  0.10706534111E+02  0.43247660974E+02 -0.56401035139E+03  0.56578684725E+03  0.47000000000E+01 0. -1.
        -11    1    4    4    0    0 -0.31849340101E+02 -0.58512396859E+02 -0.39752500422E+03  0.40306849297E+03  0.00000000000E+00 0.  1.
         12    1    4    4    0    0  0.27764418448E+02 -0.52094323329E+01 -0.70512599723E+02  0.75960699291E+02  0.00000000000E+00 0. -1.
         -5    1    5    5    0  501 -0.20067720986E+01  0.39200946489E+02  0.28207874095E+02  0.48564549836E+02  0.47000000000E+01 0.  1.
         13    1    6    6    0    0  0.36902774533E+02 -0.21201350531E+01 -0.59218170608E+02  0.69807603247E+02  0.00000000000E+00 0. -1.
        -14    1    6    6    0    0 -0.41517614892E+02 -0.16606643218E+02 -0.66902858125E+02  0.80470400587E+02  0.00000000000E+00 0.  1.
</event>
<event>
12    1  0.2689284E-002  0.3116540E+03  0.7818608E-02  0.1079556E+00
         -2   -1    0    0    0  501 -0.00000000000E+00  0.00000000000E+00  0.23236558729E+03  0.23236558729E+03  0.00000000000E+00 0. -1.
          2   -1    0    0  502    0  0.00000000000E+00 -0.00000000000E+00 -0.43302527405E+03  0.43302527405E+03  0.00000000000E+00 0.  1.
          6    2    1    2  502    0  0.22307016532E+03  0.13597912002E+03 -0.38554039185E+02  0.31466390400E+03  0.17110329864E+03 0.  0.
         24    2    3    3    0    0  0.11764096641E+03  0.83774688274E+02  0.43399679780E+02  0.17120965788E+03  0.81065525191E+02 0.  0.
         -6    2    1    2    0  501 -0.22307016532E+03 -0.13597912002E+03 -0.16210564758E+03  0.35072695734E+03  0.16876177854E+03 0.  0.
        -24    2    5    5    0    0 -0.12255506533E+03 -0.83422435538E+01 -0.88842787942E+02  0.17244629613E+03  0.82190918083E+02 0.  0.
          5    1    3    3  502    0  0.10542919890E+03  0.52204431746E+02 -0.81953718965E+02  0.14345424611E+03  0.47000000000E+01 0. -1.
        -13    1    4    4    0    0 -0.55760715049E+01  0.23119417848E+02 -0.71989634840E+01  0.24848040774E+02  0.00000000000E+00 0.  1.
         14    1    4    4    0    0  0.12321703792E+03  0.60655270426E+02  0.50598643264E+02  0.14636161711E+03  0.00000000000E+00 0. -1.
         -5    1    5    5    0  501 -0.10051509999E+03 -0.12763687647E+03 -0.73262859633E+02  0.17828066121E+03  0.47000000000E+01 0.  1.
         13    1    6    6    0    0 -0.13394135803E+03 -0.57376087046E+01 -0.72659475297E+02  0.15248805492E+03  0.00000000000E+00 0. -1.
        -14    1    6    6    0    0  0.11386292696E+02 -0.26046348492E+01 -0.16183312646E+02  0.19958241211E+02  0.00000000000E+00 0.  1.
</event>
<event>
12    1  0.2689284E-002  0.1911256E+03  0.7818608E-02  0.1157450E+00
         -1   -1    0    0    0  501 -0.00000000000E+00  0.00000000000E+00  0.19934888687E+02  0.19934888687E+02  0.00000000000E+00 0.  1.
          1   -1    0    0  502    0  0.00000000000E+00 -0.00000000000E+00 -0.18627218164E+04  0.18627218164E+04  0.00000000000E+00 0. -1.
          6    2    1    2  502    0  0.33215754158E+02 -0.75807757530E+02 -0.10417623120E+04  0.10591609172E+04  0.17234567402E+03 0.  0.
         24    2    3    3    0    0  0.63638726305E+02 -0.92345524337E+02 -0.96728348142E+03  0.97689159623E+03  0.78117053272E+02 0.  0.
         -6    2    1    2    0  501 -0.33215754158E+02  0.75807757530E+02 -0.80102461572E+03  0.82349578791E+03  0.17220561923E+03 0.  0.
        -24    2    5    5    0    0  0.44317830475E+01 -0.10486044984E+02 -0.53638173810E+03  0.54256536933E+03  0.80883948898E+02 0.  0.
          5    1    3    3  502    0 -0.30422972147E+02  0.16537766806E+02 -0.74478830616E+02  0.82269320984E+02  0.47000000000E+01 0. -1.
        -11    1    4    4    0    0  0.41326310710E+02 -0.61140382625E+02 -0.31695895754E+03  0.32543661611E+03  0.00000000000E+00 0.  1.
         12    1    4    4    0    0  0.22312415595E+02 -0.31205141712E+02 -0.65032452388E+03  0.65145498012E+03  0.00000000000E+00 0. -1.
         -5    1    5    5    0  501 -0.37647537206E+02  0.86293802514E+02 -0.26464287762E+03  0.28093041859E+03  0.47000000000E+01 0.  1.
         11    1    6    6    0    0 -0.29915804549E+02  0.50888951534E+01 -0.39741916809E+03  0.39857602459E+03  0.00000000000E+00 0. -1.
        -12    1    6    6    0    0  0.34347587596E+02 -0.15574940137E+02 -0.13896257001E+03  0.14398934474E+03  0.00000000000E+00 0.  1.
</event>
<event>
12    1  0.2689284E-002  0.2026748E+03  0.7818608E-02  0.1147502E+00
          2   -1    0    0  502    0  0.00000000000E+00  0.00000000000E+00  0.32263750421E+03  0.32263750421E+03  0.00000000000E+00 0.  1.
         -2   -1    0    0    0  501 -0.00000000000E+00 -0.00000000000E+00 -0.12768686166E+03  0.12768686166E+03  0.00000000000E+00 0. -1.
          6    2    1    2  502    0  0.67500337574E+02 -0.99375701982E+02  0.91272113099E+02  0.21265503320E+03  0.14986573590E+03 0.  0.
         24    2    3    3    0    0  0.30222258912E+02 -0.11927633490E+03  0.51847525407E+02  0.15467160061E+03  0.78069899090E+02 0.  0.
         -6    2    1    2    0  501 -0.67500337574E+02  0.99375701982E+02  0.10367852945E+03  0.23766933267E+03  0.17693402302E+03 0.  0.
        -24    2    5    5    0    0 -0.10560082786E+03  0.61344573055E+02  0.97537851815E+02  0.18328356201E+03  0.95731604395E+02 0.  0.
          5    1    3    3  502    0  0.37278078662E+02  0.19900632921E+02  0.39424587692E+02  0.57983432583E+02  0.47000000000E+01 0. -1.
        -13    1    4    4    0    0 -0.14194967539E+02 -0.40937610927E+02  0.47815366708E+02  0.64526695136E+02  0.00000000000E+00 0.  1.
         14    1    4    4    0    0  0.44417226451E+02 -0.78338723975E+02  0.40321586998E+01  0.90144905477E+02  0.00000000000E+00 0. -1.
         -5    1    5    5    0  501  0.38100490286E+02  0.38031128927E+02  0.61406776367E+01  0.54385770651E+02  0.47000000000E+01 0.  1.
         13    1    6    6    0    0 -0.11313742155E+03  0.73804889250E+02  0.70022967351E+02  0.15215273178E+03  0.00000000000E+00 0. -1.
        -14    1    6    6    0    0  0.75365936852E+01 -0.12460316196E+02  0.27514884464E+02  0.31130830235E+02  0.00000000000E+00 0.  1.
</event>
<event>
12    1  0.2689284E-002  0.2516906E+03  0.7818608E-02  0.1112241E+00
         -2   -1    0    0    0  501 -0.00000000000E+00  0.00000000000E+00  0.27455847254E+03  0.27455847254E+03  0.00000000000E+00 0. -1.
          2   -1    0    0  502    0  0.00000000000E+00 -0.00000000000E+00 -0.25364485697E+03  0.25364485697E+03  0.00000000000E+00 0.  1.
          6    2    1    2  502    0 -0.28360609603E+02  0.18016717410E+03  0.89786271706E+02  0.26608632171E+03  0.17168523878E+03 0.  0.
         24    2    3    3    0    0 -0.59612163862E+02  0.14035589716E+03  0.11740669977E+03  0.20823672827E+03  0.79528698606E+02 0.  0.
         -6    2    1    2    0  501  0.28360609603E+02 -0.18016717410E+03 -0.68872656143E+02  0.26211700780E+03  0.17520658724E+03 0.  0.
        -24    2    5    5    0    0  0.48130321561E+02 -0.13202447690E+03  0.19425289274E+02  0.15951497093E+03  0.72943085579E+02 0.  0.
          5    1    3    3  502    0  0.31251554258E+02  0.39811276932E+02 -0.27620428064E+02  0.57849593438E+02  0.47000000000E+01 0. -1.
        -11    1    4    4    0    0 -0.24570351645E+02  0.27764405622E+02 -0.59914346007E+01  0.37556113857E+02  0.00000000000E+00 0.  1.
         12    1    4    4    0    0 -0.35041812217E+02  0.11259149154E+03  0.12339813437E+03  0.17068061442E+03  0.00000000000E+00 0. -1.
         -5    1    5    5    0  501 -0.19769711958E+02 -0.48142697200E+02 -0.88297945418E+02  0.10260203687E+03  0.47000000000E+01 0.  1.
         13    1    6    6    0    0  0.46402000468E+02 -0.94297981604E+02 -0.17677361223E+02  0.10657271734E+03  0.00000000000E+00 0. -1.
        -14    1    6    6    0    0  0.17283210922E+01 -0.37726495292E+02  0.37102650497E+02  0.52942253586E+02  0.00000000000E+00 0.  1.
</event>
<event>
12    1  0.2689284E-002  0.1837403E+03  0.7818608E-02  0.1164232E+00
         -2   -1    0    0    0  501 -0.00000000000E+00  0.00000000000E+00  0.73145769948E+02  0.73145769948E+02  0.00000000000E+00 0. -1.
          2   -1    0    0  502    0  0.00000000000E+00 -0.00000000000E+00 -0.79252769218E+03  0.79252769218E+03  0.00000000000E+00 0.  1.
          6    2    1    2  502    0 -0.23145154618E+00 -0.61110382870E+02 -0.63915783552E+03  0.66498379948E+03  0.17304965298E+03 0.  0.
         24    2    3    3    0    0  0.60490579974E+02 -0.29111000065E+02 -0.26121532731E+03  0.28083050310E+03  0.78267257869E+02 0.  0.
         -6    2    1    2    0  501  0.23145154618E+00  0.61110382870E+02 -0.80224086713E+02  0.20068966265E+03  0.17351053035E+03 0.  0.
        -24    2    5    5    0    0  0.26243010484E+02 -0.10888734368E+02  0.50462174329E+01  0.86000566175E+02  0.81014646433E+02 0.  0.
          5    1    3    3  502    0 -0.60722031520E+02 -0.31999382805E+02 -0.37794250820E+03  0.38415329638E+03  0.47000000000E+01 0. -1.
        -11    1    4    4    0    0  0.54379558204E+02 -0.12574779123E+02 -0.25660964269E+03  0.26260953932E+03  0.00000000000E+00 0.  1.
         12    1    4    4    0    0  0.61110217703E+01 -0.16536220942E+02 -0.46056846274E+01  0.18220963778E+02  0.00000000000E+00 0. -1.
         -5    1    5    5    0  501 -0.26011558938E+02  0.71999117238E+02 -0.85270304146E+02  0.11468909648E+03  0.47000000000E+01 0.  1.
         11    1    6    6    0    0  0.50752494944E+02 -0.89107212286E+01 -0.15658471688E+02  0.53855402992E+02  0.00000000000E+00 0. -1.
        -12    1    6    6    0    0 -0.24509484460E+02 -0.19780131393E+01  0.20704689121E+02  0.32145163183E+02  0.00000000000E+00 0.  1.
</event>
<event>
12    1  0.2689284E-002  0.2250354E+03  0.7818608E-02  0.1130184E+00
          1   -1    0    0  502    0  0.00000000000E+00  0.00000000000E+00  0.70644150994E+03  0.70644150994E+03  0.00000000000E+00 0. -1.
         -1   -1    0    0    0  501 -0.00000000000E+00 -0.00000000000E+00 -0.72596873678E+02  0.72596873678E+02  0.00000000000E+00 0.  1.
          6    2    1    2  502    0  0.85201562321E+02  0.11802063232E+03  0.27289337705E+03  0.35354444076E+03  0.17127375887E+03 0.  0.
         24    2    3    3    0    0  0.70360027547E+02  0.25663449198E+02  0.22127782014E+03  0.24660344701E+03  0.78995191560E+02 0.  0.
         -6    2    1    2    0  501 -0.85201562321E+02 -0.11802063232E+03  0.36095125922E+03  0.42549394287E+03  0.17196251921E+03 0.  0.
        -24    2    5    5    0    0 -0.50584605314E+02 -0.63335923417E+02  0.82503466178E+02  0.13958484097E+03  0.78146429268E+02 0.  0.
          5    1    3    3  502    0  0.14841534774E+02  0.92357183118E+02  0.51615556905E+02  0.10694099374E+03  0.47000000000E+01 0. -1.
        -11    1    4    4    0    0  0.56987802993E+02 -0.59410015028E+01  0.65203596284E+02  0.86801003204E+02  0.00000000000E+00 0.  1.
         12    1    4    4    0    0  0.13372224553E+02  0.31604450700E+02  0.15607422386E+03  0.15980244381E+03  0.00000000000E+00 0. -1.
         -5    1    5    5    0  501 -0.34616957007E+02 -0.54684708899E+02  0.27844779304E+03  0.28590910190E+03  0.47000000000E+01 0.  1.
         13    1    6    6    0    0 -0.53204022553E+02 -0.64876636627E+02  0.94987056135E+02  0.12673668304E+03  0.00000000000E+00 0. -1.
        -14    1    6    6    0    0  0.26194172389E+01  0.15407132099E+01 -0.12483589957E+02  0.12848157926E+02  0.00000000000E+00 0.  1.
</event>
<event>
12    1  0.2689284E-002  0.1775083E+03  0.7818608E-02  0.1170237E+00
         -2   -1    0    0    0  501 -0.00000000000E+00  0.00000000000E+00  0.11257417887E+03  0.11257417887E+03  0.00000000000E+00 0. -1.
          2   -1    0    0  502    0  0.00000000000E+00 -0.00000000000E+00 -0.28554107432E+03  0.28554107432E+03  0.00000000000E+00 0.  1.
          6    2    1    2  502    0  0.33923575420E+02 -0.25121144128E+02 -0.11440928618E+03  0.21107894923E+03  0.17228742610E+03 0.  0.
         24    2    3    3    0    0  0.35342376866E+02  0.17124926495E+01  0.60205201207E+01  0.87598240999E+02  0.79907377193E+02 0.  0.
         -6    2    1    2    0  501 -0.33923575420E+02  0.25121144128E+02 -0.58557609274E+02  0.18703630396E+03  0.17254478997E+03 0.  0.
        -24    2    5    5    0    0 -0.69145046901E+01 -0.24959805289E+02 -0.89057285794E+02  0.12230677698E+03  0.79730453942E+02 0.  0.
          5    1    3    3  502    0 -0.14188014467E+01 -0.26833636778E+02 -0.12042980630E+03  0.12348070823E+03  0.47000000000E+01 0. -1.
        -13    1    4    4    0    0  0.47726590958E+02 -0.26368327516E+02 -0.55305271705E+01  0.54806048127E+02  0.00000000000E+00 0.  1.
         14    1    4    4    0    0 -0.12384214092E+02  0.28080820165E+02  0.11551047291E+02  0.32792192872E+02  0.00000000000E+00 0. -1.
         -5    1    5    5    0  501 -0.27009070730E+02  0.50080949418E+02  0.30499676521E+02  0.64729526988E+02  0.47000000000E+01 0.  1.
         13    1    6    6    0    0  0.32537674831E+02 -0.29308025514E+02 -0.41125866607E+02  0.60074932768E+02  0.00000000000E+00 0. -1.
        -14    1    6    6    0    0 -0.39452179521E+02  0.43482202245E+01 -0.47931419187E+02  0.62231844207E+02  0.00000000000E+00 0.  1.
</event>
<event>
12    1  0.2689284E-002  0.2329278E+03  0.7818608E-02  0.1124596E+00
         -1   -1    0    0    0  501 -0.00000000000E+00  0.00000000000E+00  0.79631178703E+02  0.79631178703E+02  0.00000000000E+00 0. -1.
          1   -1    0    0  502    0  0.00000000000E+00 -0.00000000000E+00 -0.15870722258E+04  0.15870722258E+04  0.00000000000E+00 0.  1.
          6    2    1    2  502    0 -0.12994396719E+03 -0.87830142172E+02 -0.12417108434E+03  0.26395954643E+03  0.17221096215E+03 0.  0.
         24    2    3    3    0    0 -0.16518102459E+03 -0.83537775686E+02 -0.10525525196E+03  0.22346296214E+03  0.67776814128E+02 0.  0.
         -6    2    1    2    0  501  0.12994396719E+03  0.87830142172E+02 -0.13832699628E+04  0.14027438581E+04  0.17220619329E+03 0.  0.
        -24    2    5    5    0    0  0.27707884776E+02  0.61167441286E+02 -0.36517770019E+03  0.37917311735E+03  0.76865580406E+02 0.  0.
          5    1    3    3  502    0  0.35237057403E+02 -0.42923664856E+01 -0.18915832378E+02  0.40496584289E+02  0.47000000000E+01 0. -1.
        -13    1    4    4    0    0 -0.69164571531E+02 -0.15044837649E+02 -0.71900179446E+02  0.10089460292E+03  0.00000000000E+00 0.  1.
         14    1    4    4    0    0 -0.96016453058E+02 -0.68492938037E+02 -0.33355072513E+02  0.12256835922E+03  0.00000000000E+00 0. -1.
         -5    1    5    5    0  501  0.10223608241E+03  0.26662700886E+02 -0.10180922626E+04  0.10235707407E+04  0.47000000000E+01 0.  1.
         13    1    6    6    0    0  0.43195672742E+02  0.21884428491E+02 -0.10546670260E+03  0.11605179753E+03  0.00000000000E+00 0. -1.
        -14    1    6    6    0    0 -0.15487787966E+02  0.39283012795E+02 -0.25971099760E+03  0.26312131982E+03  0.00000000000E+00 0.  1.
</event>
<event>
12    1  0.2689284E-002  0.2668282E+03  0.7818608E-02  0.1103109E+00
          2   -1    0    0  502    0  0.00000000000E+00  0.00000000000E+00  0.16686438275E+03  0.16686438275E+03  0.00000000000E+00 0.  1.
         -2   -1    0    0    0  501 -0.00000000000E+00 -0.00000000000E+00 -0.47265106543E+03  0.47265106543E+03  0.00000000000E+00 0. -1.
          6    2    1    2  502    0  0.11478946142E+03 -0.16807314724E+03 -0.53327558543E+02  0.27240573537E+03  0.17301980489E+03 0.  0.
         24    2    3    3    0    0  0.21970493858E+01 -0.92640255060E+02 -0.59699147589E+02  0.13664911631E+03  0.80758583953E+02 0.  0.
         -6    2    1    2    0  501 -0.11478946142E+03  0.16807314724E+03 -0.25245912415E+03  0.36710971281E+03  0.17207187046E+03 0.  0.
        -24    2    5    5    0    0 -0.36821993033E+02  0.17144037395E+03 -0.20754034843E+03  0.27694291873E+03  0.53635091303E+02 0.  0.
          5    1    3    3  502    0  0.11259241204E+03 -0.75432892176E+02  0.63715890462E+01  0.13575661906E+03  0.47000000000E+01 0. -1.
        -11    1    4    4    0    0 -0.78788533547E+01  0.57886024736E+01  0.11244426048E+02  0.14900381402E+02  0.00000000000E+00 0.  1.
         12    1    4    4    0    0  0.10075902740E+02 -0.98428857533E+02 -0.70943573637E+02  0.12174873491E+03  0.00000000000E+00 0. -1.
         -5    1    5    5    0  501 -0.77967468391E+02 -0.33672267153E+01 -0.44918775720E+02  0.90166794083E+02  0.47000000000E+01 0.  1.
         11    1    6    6    0    0 -0.15331726015E+02  0.14892539188E+03 -0.18744456196E+03  0.23989434754E+03  0.00000000000E+00 0. -1.
        -12    1    6    6    0    0 -0.21490267018E+02  0.22514982069E+02 -0.20095786462E+02  0.37048571195E+02  0.00000000000E+00 0.  1.
</event>
<event>
12    1  0.2689284E-002  0.2374039E+03  0.7818608E-02  0.1121534E+00
          2   -1    0    0  502    0  0.00000000000E+00  0.00000000000E+00  0.10386462862E+04  0.10386462862E+04  0.00000000000E+00 0.  1.
         -2   -1    0    0    0  501 -0.00000000000E+00 -0.00000000000E+00 -0.58384873005E+02  0.58384873005E+02  0.00000000000E+00 0. -1.
          6    2    1    2  502    0 -0.15312183933E+03  0.71672109192E+02  0.35118600418E+03  0.42584338077E+03  0.17154528992E+03 0.  0.
         24    2    3    3    0    0 -0.17983682506E+03  0.69927757701E+02  0.27794018300E+03  0.34771673009E+03  0.80156123381E+02 0.  0.
         -6    2    1    2    0  501  0.15312183933E+03 -0.71672109192E+02  0.62907540905E+03  0.67118777847E+03  0.16178372844E+03 0.  0.
        -24    2    5    5    0    0  0.12932650337E+03  0.32409800653E+01  0.45902796215E+03  0.48379404018E+03  0.81327454480E+02 0.  0.
          5    1    3    3  502    0  0.26714985734E+02  0.17443514904E+01  0.73245821181E+02  0.78126650673E+02  0.47000000000E+01 0. -1.
        -11    1    4    4    0    0 -0.85587213765E+02  0.19300643188E+02  0.18980704053E+03  0.20910379868E+03  0.00000000000E+00 0.  1.
         12    1    4    4    0    0 -0.94249611296E+02  0.50627114513E+02  0.88133142470E+02  0.13861293141E+03  0.00000000000E+00 0. -1.
         -5    1    5    5    0  501  0.23795335956E+02 -0.74913089257E+02  0.17004744689E+03  0.18739373829E+03  0.47000000000E+01 0.  1.
         11    1    6    6    0    0  0.46477608779E+02  0.31038943078E+02  0.26743710166E+03  0.27321454472E+03  0.00000000000E+00 0. -1.
        -12    1    6    6    0    0  0.82848894592E+02 -0.27797963013E+02  0.19159086050E+03  0.21057949546E+03  0.00000000000E+00 0.  1.
</event>
<event>
12    1  0.2689284E-002  0.1840680E+03  0.7818608E-02  0.1163923E+00
          2   -1    0    0  502    0  0.00000000000E+00  0.00000000000E+00  0.76386986451E+03  0.76386986451E+03  0.00000000000E+00 0.  1.
         -2   -1    0    0    0  501 -0.00000000000E+00 -0.00000000000E+00 -0.88341396267E+02  0.88341396267E+02  0.00000000000E+00 0. -1.
          6    2    1    2  502    0  0.64357126281E+02  0.93400050178E+01  0.63771295690E+03  0.66352963168E+03  0.17136125968E+03 0.  0.
         24    2    3    3    0    0  0.99811124020E+02  0.40596345907E+02  0.50420281517E+03  0.52182221216E+03  0.80421505209E+02 0.  0.
         -6    2    1    2    0  501 -0.64357126281E+02 -0.93400050178E+01  0.37815511337E+02  0.18868162909E+03  0.17303661134E+03 0.  0.
        -24    2    5    5    0    0 -0.61705464701E+02 -0.29522892178E+02 -0.37535239175E+02  0.11048824161E+03  0.78227819975E+02 0.  0.
          5    1    3    3  502    0 -0.35453997739E+02 -0.31256340890E+02  0.13351014173E+03  0.14170741952E+03  0.47000000000E+01 0. -1.
        -11    1    4    4    0    0  0.30828808583E+02 -0.24543832885E+02  0.13625338227E+03  0.14183722837E+03  0.00000000000E+00 0.  1.
         12    1    4    4    0    0  0.68982315437E+02  0.65140178792E+02  0.36794943289E+03  0.37998498379E+03  0.00000000000E+00 0. -1.
         -5    1    5    5    0  501 -0.26516615805E+01  0.20182887160E+02  0.75350750511E+02  0.78193387482E+02  0.47000000000E+01 0.  1.
         13    1    6    6    0    0 -0.70683729655E+02 -0.11508504921E+02 -0.44387869095E+01  0.71751920899E+02  0.00000000000E+00 0. -1.
        -14    1    6    6    0    0  0.89782649541E+01 -0.18014387257E+02 -0.33096452265E+02  0.38736320713E+02  0.00000000000E+00 0.  1.
</event>
<event>
12    1  0.2689284E-002  0.2083167E+03  0.7818608E-02  0.1142906E+00
          2   -1    0    0  502    0  0.00000000000E+00  0.00000000000E+00  0.17538479862E+04  0.17538479862E+04  0.00000000000E+00 0.  1.
         -2   -1    0    0    0  501 -0.00000000000E+00 -0.00000000000E+00 -0.30118428180E+02  0.30118428180E+02  0.00000000000E+00 0. -1.
          6    2    1    2  502    0 -0.94485976295E+02 -0.68513719617E+02  0.48436576985E+03  0.52718422412E+03  0.17231157147E+03 0.  0.
         24    2    3    3    0    0  0.41911867187E+00 -0.65556683513E+02  0.33817965664E+03  0.35280477920E+03  0.76209432811E+02 0.  0.
         -6    2    1    2    0  501  0.94485976295E+02  0.68513719617E+02  0.12393637882E+04  0.12567821903E+04  0.17279220135E+03 0.  0.
        -24    2    5    5    0    0  0.16607154503E+02  0.93671170063E+02  0.71598682815E+03  0.72702418846E+03  0.82927358810E+02 0.  0.
          5    1    3    3  502    0 -0.94905094967E+02 -0.29570361035E+01  0.14618611322E+03  0.17437944492E+03  0.47000000000E+01 0. -1.
        -13    1    4    4    0    0 -0.12633604501E+02 -0.34906944211E+00  0.18961139586E+03  0.19003213215E+03  0.00000000000E+00 0.  1.
         14    1    4    4    0    0  0.13052723172E+02 -0.65207614071E+02  0.14856826078E+03  0.16277264704E+03  0.00000000000E+00 0. -1.
         -5    1    5    5    0  501  0.77878821792E+02 -0.25157450446E+02  0.52337696003E+03  0.52975800182E+03  0.47000000000E+01 0.  1.
         13    1    6    6    0    0  0.32929237622E+02  0.48004577433E+02  0.18779273982E+03  0.19660846186E+03  0.00000000000E+00 0. -1.
        -14    1    6    6    0    0 -0.16322083119E+02  0.45666592630E+02  0.52819408834E+03  0.53041572661E+03  0.00000000000E+00 0.  1.
</event>
<event>
12    1  0.2689284E-002  0.1968430E+03  0.7818608E-02  0.1152430E+00
         -2   -1    0    0    0  501 -0.00000000000E+00  0.00000000000E+00  0.98881046276E+02  0.98881046276E+02  0.00000000000E+00 0. -1.
          2   -1    0    0  502    0  0.00000000000E+00 -0.00000000000E+00 -0.63213745656E+03  0.63213745656E+03  0.00000000000E+00 0.  1.
          6    2    1    2  502    0  0.19982421494E+02 -0.91431084801E+02 -0.40800892342E+02  0.20046565781E+03  0.17251906187E+03 0.  0.
         24    2    3    3    0    0  0.45880858811E+02 -0.11633164682E+03 -0.59508166167E+02  0.15968797839E+03  0.79504234759E+02 0.  0.
         -6    2    1    2    0  501 -0.19982421494E+02  0.91431084801E+02 -0.49245551794E+03  0.53055284503E+03  0.17382446255E+03 0.  0.
        -24    2    5    5    0    0 -0.33745669494E+02  0.11244316920E+03 -0.26183783462E+03  0.29852366465E+03  0.82310936142E+02 0.  0.
          5    1    3    3  502    0 -0.25898437317E+02  0.24900562022E+02  0.18707273825E+02  0.40777679415E+02  0.47000000000E+01 0. -1.
        -11    1    4    4    0    0 -0.18186231927E+02 -0.60035206391E+02 -0.29002548372E+02  0.69109426638E+02  0.00000000000E+00 0.  1.
         12    1    4    4    0    0  0.64067090738E+02 -0.56296440432E+02 -0.30505617794E+02  0.90578551754E+02  0.00000000000E+00 0. -1.
         -5    1    5    5    0  501  0.13763248001E+02 -0.21012084398E+02 -0.23061768332E+03  0.23202918038E+03  0.47000000000E+01 0.  1.
         11    1    6    6    0    0 -0.31018277561E+02  0.11402765827E+03 -0.26727746915E+03  0.29223566844E+03  0.00000000000E+00 0. -1.
        -12    1    6    6    0    0 -0.27273919335E+01 -0.15844890722E+01  0.54396345360E+01  0.62879962042E+01  0.00000000000E+00 0.  1.
</event>
<event>
12    1  0.2689284E-002  0.1870635E+03  0.7818608E-02  0.1161137E+00
          2   -1    0    0  502    0  0.00000000000E+00  0.00000000000E+00  0.67384927279E+03  0.67384927279E+03  0.00000000000E+00 0.  1.
         -2   -1    0    0    0  501 -0.00000000000E+00 -0.00000000000E+00 -0.63295339028E+02  0.63295339028E+02  0.00000000000E+00 0. -1.
          6    2    1    2  502    0  0.59446043861E+02 -0.46906796575E+02  0.15005136460E+03  0.24036450717E+03  0.17183016207E+03 0.  0.
         24    2    3    3    0    0  0.79073773045E+02 -0.46808378490E+02  0.38877633476E+02  0.12737359634E+03  0.79176238733E+02 0.  0.
         -6    2    1    2    0  501 -0.59446043861E+02  0.46906796575E+02  0.46050256916E+03  0.49678010464E+03  0.17027558976E+03 0.  0.
        -24    2    5    5    0    0 -0.32382771058E+02 -0.94703865305E+01  0.40023118582E+03  0.40980000830E+03  0.81318587145E+02 0.  0.
          5    1    3    3  502    0 -0.19627729184E+02 -0.98418085334E-01  0.11117373112E+03  0.11299091083E+03  0.47000000000E+01 0. -1.
        -11    1    4    4    0    0 -0.15347319532E+02 -0.15514816714E+02  0.71285037776E+01  0.22957903227E+02  0.00000000000E+00 0.  1.
         12    1    4    4    0    0  0.94421092577E+02 -0.31293561776E+02  0.31749129699E+02  0.10441569312E+03  0.00000000000E+00 0. -1.
         -5    1    5    5    0  501 -0.27063272804E+02  0.56377183106E+02  0.60271383336E+02  0.86980096338E+02  0.47000000000E+01 0.  1.
         13    1    6    6    0    0  0.95815546047E+01  0.91252718490E+00  0.27990081801E+01  0.10023639124E+02  0.00000000000E+00 0. -1.
        -14    1    6    6    0    0 -0.41964325662E+02 -0.10382913715E+02  0.39743217764E+03  0.39977636918E+03  0.00000000000E+00 0.  1.
</event>
<event>
12    1  0.2689284E-002  0.1935420E+03  0.7818608E-02  0.1155305E+00
          2   -1    0    0  502    0  0.00000000000E+00  0.00000000000E+00  0.72936364724E+03  0.72936364724E+03  0.00000000000E+00 0.  1.
         -2   -1    0    0    0  501 -0.00000000000E+00 -0.00000000000E+00 -0.60430843475E+02  0.60430843475E+02  0.00000000000E+00 0. -1.
          6    2    1    2  502    0 -0.78162124547E+02  0.40695630274E+02  0.48811504771E+03  0.52524568606E+03  0.17280416339E+03 0.  0.
         24    2    3    3    0    0 -0.66907329051E+02  0.91547269188E+02  0.39236790075E+03  0.41614863865E+03  0.79809941341E+02 0.  0.
         -6    2    1    2    0  501  0.78162124547E+02 -0.40695630274E+02  0.18081775606E+03  0.26454880466E+03  0.17183002387E+03 0.  0.
        -24    2    5    5    0    0  0.10626580863E+03 -0.52206721189E+02  0.89543929977E+02  0.16824032320E+03  0.79175293708E+02 0.  0.
          5    1    3    3  502    0 -0.11254795497E+02 -0.50851638914E+02  0.95747146960E+02  0.10909704741E+03  0.47000000000E+01 0. -1.
        -11    1    4    4    0    0 -0.60083624283E+02  0.65714255241E+02  0.37211862571E+03  0.38262341388E+03  0.00000000000E+00 0.  1.
         12    1    4    4    0    0 -0.68237047679E+01  0.25833013948E+02  0.20249275039E+02  0.33525224771E+02  0.00000000000E+00 0. -1.
         -5    1    5    5    0  501 -0.28103684084E+02  0.11511090915E+02  0.91273826079E+02  0.96308481456E+02  0.47000000000E+01 0.  1.
         13    1    6    6    0    0  0.89411744975E+02 -0.57927127479E+02  0.10121983241E+03  0.14695396119E+03  0.00000000000E+00 0. -1.
        -14    1    6    6    0    0  0.16854063656E+02  0.57204062904E+01 -0.11675902433E+02  0.21286362007E+02  0.00000000000E+00 0.  1.
</event>
<event>
12    1  0.2689284E-002  0.1981318E+03  0.7818608E-02  0.1151325E+00
         -2   -1    0    0    0  501 -0.00000000000E+00  0.00000000000E+00  0.37615642170E+03  0.37615642170E+03  0.00000000000E+00 0. -1.
          2   -1    0    0  502    0  0.00000000000E+00 -0.00000000000E+00 -0.11623131331E+03  0.11623131331E+03  0.00000000000E+00 0.  1.
          6    2    1    2  502    0  0.23882402703E+02 -0.93553453370E+02  0.51598713588E+02  0.20524901488E+03  0.17361484116E+03 0.  0.
         24    2    3    3    0    0  0.78467943977E+02 -0.63543511502E+02  0.66407459046E+01  0.12828482331E+03  0.78853663824E+02 0.  0.
         -6    2    1    2    0  501 -0.23882402703E+02  0.93553453370E+02  0.20832639480E+03  0.28713872014E+03  0.17241270265E+03 0.  0.
        -24    2    5    5    0    0 -0.15017934830E+02  0.13099614382E+03  0.14084000898E+03  0.20931175739E+03  0.81178664621E+02 0.  0.
          5    1    3    3  502    0 -0.54585541274E+02 -0.30009941869E+02  0.44957967683E+02  0.76964191578E+02  0.47000000000E+01 0. -1.
        -13    1    4    4    0    0 -0.10185645916E+01 -0.46538363361E+02 -0.16440543169E+01  0.46578532101E+02  0.00000000000E+00 0.  1.
         14    1    4    4    0    0  0.79486508568E+02 -0.17005148141E+02  0.82848002215E+01  0.81706291204E+02  0.00000000000E+00 0. -1.
         -5    1    5    5    0  501 -0.88644678726E+01 -0.37442690450E+02  0.67486385826E+02  0.77826962748E+02  0.47000000000E+01 0.  1.
         11    1    6    6    0    0  0.97936190956E+01  0.84155895666E+02  0.13005882134E+03  0.15522057454E+03  0.00000000000E+00 0. -1.
        -12    1    6    6    0    0 -0.24811553926E+02  0.46840248154E+02  0.10781187633E+02  0.54091182850E+02  0.00000000000E+00 0.  1.
</event>
<event>
12    1  0.2689284E-002  0.1926556E+03  0.7818608E-02  0.1156088E+00
          1   -1    0    0  502    0  0.00000000000E+00  0.00000000000E+00  0.56710473819E+03  0.56710473819E+03  0.00000000000E+00 0.  1.
         -1   -1    0    0    0  501 -0.00000000000E+00 -0.00000000000E+00 -0.82645194083E+02  0.82645194083E+02  0.00000000000E+00 0. -1.
          6    2    1    2  502    0  0.80309371077E+02  0.35880498679E+02  0.95055958437E+02  0.21574251080E+03  0.17254619806E+03 0.  0.
         24    2    3    3    0    0 -0.16179534645E+02  0.44699577461E+02  0.66184858206E+02  0.11453225684E+03  0.80482127427E+02 0.  0.
         -6    2    1    2    0  501 -0.80309371077E+02 -0.35880498679E+02  0.38940358567E+03  0.43400742147E+03  0.17026533438E+03 0.  0.
        -24    2    5    5    0    0  0.24040812776E+02 -0.12729860786E+02  0.19456789844E+03  0.21172843478E+03  0.78944619557E+02 0.  0.
          5    1    3    3  502    0  0.96488905722E+02 -0.88190787822E+01  0.28871100231E+02  0.10121025396E+03  0.47000000000E+01 0. -1.
        -11    1    4    4    0    0 -0.19214249847E+01 -0.21256707754E+02  0.20584580520E+01  0.21442405370E+02  0.00000000000E+00 0.  1.
         12    1    4    4    0    0 -0.14258109660E+02  0.65956285215E+02  0.64126400154E+02  0.93089851473E+02  0.00000000000E+00 0. -1.
         -5    1    5    5    0  501 -0.10435018385E+03 -0.23150637893E+02  0.19483568722E+03  0.22227898668E+03  0.47000000000E+01 0.  1.
         13    1    6    6    0    0  0.14072538286E+02  0.33121523872E+02  0.72173637745E+02  0.80648035703E+02  0.00000000000E+00 0. -1.
        -14    1    6    6    0    0  0.99682744900E+01 -0.45851384658E+02  0.12239426070E+03  0.13108039908E+03  0.00000000000E+00 0.  1.
</event>
<event>
12    1  0.2689284E-002  0.2417746E+03  0.7818608E-02  0.1118616E+00
         -1   -1    0    0    0  501 -0.00000000000E+00  0.00000000000E+00  0.37260293924E+03  0.37260293924E+03  0.00000000000E+00 0. -1.
          1   -1    0    0  502    0  0.00000000000E+00 -0.00000000000E+00 -0.16077048986E+03  0.16077048986E+03  0.00000000000E+00 0.  1.
          6    2    1    2  502    0  0.97157480677E+02  0.13842498076E+03  0.14718147143E+03  0.28264560962E+03  0.17211944619E+03 0.  0.
         24    2    3    3    0    0 -0.13532515170E+02  0.76572344651E+02  0.50567998788E+02  0.12316433526E+03  0.81030105810E+02 0.  0.
         -6    2    1    2    0  501 -0.97157480677E+02 -0.13842498076E+03  0.64650977952E+02  0.25072781948E+03  0.17344635816E+03 0.  0.
        -24    2    5    5    0    0 -0.23307900802E+02 -0.14060769656E+03  0.21535914972E+02  0.16505680132E+03  0.80412495654E+02 0.  0.
          5    1    3    3  502    0  0.11068999585E+03  0.61852636110E+02  0.96613472639E+02  0.15948127436E+03  0.47000000000E+01 0. -1.
        -13    1    4    4    0    0  0.16809655418E+02  0.10386276023E+01 -0.11845519495E+02  0.20590279131E+02  0.00000000000E+00 0.  1.
         14    1    4    4    0    0 -0.30342170588E+02  0.75533717049E+02  0.62413518283E+02  0.10257405613E+03  0.00000000000E+00 0. -1.
         -5    1    5    5    0  501 -0.73849579875E+02  0.21827157996E+01  0.43115062980E+02  0.85671018155E+02  0.47000000000E+01 0.  1.
         11    1    6    6    0    0 -0.48597163128E+02 -0.64234298520E+02  0.25560111634E+02  0.84504725768E+02  0.00000000000E+00 0. -1.
        -12    1    6    6    0    0  0.25289262326E+02 -0.76373398041E+02 -0.40241966621E+01  0.80552075554E+02  0.00000000000E+00 0.  1.
</event>
<event>
12    1  0.2689284E-002  0.1883966E+03  0.7818608E-02  0.1159916E+00
         -2   -1    0    0    0  501 -0.00000000000E+00  0.00000000000E+00  0.38485856557E+03  0.38485856557E+03  0.00000000000E+00 0. -1.
          2   -1    0    0  502    0  0.00000000000E+00 -0.00000000000E+00 -0.10106946046E+03  0.10106946046E+03  0.00000000000E+00 0.  1.
          6    2    1    2  502    0 -0.47492695758E+02 -0.64909207457E+02  0.71269458961E+02  0.20308941456E+03  0.17232879377E+03 0.  0.
         24    2    3    3    0    0 -0.97040832549E+02 -0.54781833673E+02  0.54536793669E+02  0.14961368504E+03  0.83618301863E+02 0.  0.
         -6    2    1    2    0  501  0.47492695758E+02  0.64909207457E+02  0.21251964615E+03  0.28283861148E+03  0.16841709765E+03 0.  0.
        -24    2    5    5    0    0  0.82213392350E+02  0.34855562514E+02  0.84629001763E+02  0.14687223598E+03  0.80221154578E+02 0.  0.
          5    1    3    3  502    0  0.49548136791E+02 -0.10127373783E+02  0.16732665292E+02  0.53475729513E+02  0.47000000000E+01 0. -1.
        -11    1    4    4    0    0 -0.23103839151E+02  0.42684636242E+00 -0.20337276950E+02  0.30782696683E+02  0.00000000000E+00 0.  1.
         12    1    4    4    0    0 -0.73936993398E+02 -0.55208680036E+02  0.74874070618E+02  0.11883098836E+03  0.00000000000E+00 0. -1.
         -5    1    5    5    0  501 -0.34720696592E+02  0.30053644943E+02  0.12789064438E+03  0.13596637550E+03  0.47000000000E+01 0.  1.
         11    1    6    6    0    0 -0.11105333034E+02  0.71475392341E+01  0.35407437702E+02  0.37790241909E+02  0.00000000000E+00 0. -1.
        -12    1    6    6    0    0  0.93318725384E+02  0.27708023280E+02  0.49221564061E+02  0.10908199407E+03  0.00000000000E+00 0.  1.
</event>
<event>
12    1  0.2689284E-002  0.1774977E+03  0.7818608E-02  0.1170247E+00
          2   -1    0    0  502    0  0.00000000000E+00  0.00000000000E+00  0.70322801657E+03  0.70322801657E+03  0.00000000000E+00 0. -1.
         -2   -1    0    0    0  501 -0.00000000000E+00 -0.00000000000E+00 -0.45103905443E+02  0.45103905443E+02  0.00000000000E+00 0.  1.
          6    2    1    2  502    0  0.43163480092E+02 -0.11706451400E+01  0.35737561552E+03  0.39849079415E+03  0.17091847773E+03 0.  0.
         24    2    3    3    0    0 -0.40619483382E+02  0.10718484198E+02  0.14395117877E+03  0.16885408853E+03  0.77620441961E+02 0.  0.
         -6    2    1    2    0  501 -0.43163480092E+02  0.11706451400E+01  0.30074849560E+03  0.34984112786E+03  0.17342058907E+03 0.  0.
        -24    2    5    5    0    0  0.42900922237E+02  0.26520835662E+01  0.13274011788E+03  0.16100738884E+03  0.80348725503E+02 0.  0.
          5    1    3    3  502    0  0.83782963474E+02 -0.11889129338E+02  0.21342443675E+03  0.22963670561E+03  0.47000000000E+01 0. -1.
        -11    1    4    4    0    0 -0.28346629997E+02 -0.31512318984E+01  0.53470716157E+01  0.29018147245E+02  0.00000000000E+00 0.  1.
         12    1    4    4    0    0 -0.12272853385E+02  0.13869716096E+02  0.13860410716E+03  0.13983594129E+03  0.00000000000E+00 0. -1.
         -5    1    5    5    0  501 -0.86064402329E+02 -0.14814384262E+01  0.16800837773E+03  0.18883373903E+03  0.47000000000E+01 0.  1.
         13    1    6    6    0    0  0.18557549633E+02  0.12613103206E+02 -0.30936609972E+01  0.22650469294E+02  0.00000000000E+00 0. -1.
        -14    1    6    6    0    0  0.24343372604E+02 -0.99610196398E+01  0.13583377887E+03  0.13835691954E+03  0.00000000000E+00 0.  1.
</event>
<event>
12    1  0.2689284E-002  0.2336799E+03  0.7818608E-02  0.1124076E+00
         -2   -1    0    0    0  501 -0.00000000000E+00  0.00000000000E+00  0.33313725599E+02  0.33313725599E+02  0.00000000000E+00 0.  1.
          2   -1    0    0  502    0  0.00000000000E+00 -0.00000000000E+00 -0.21080746434E+04  0.21080746434E+04  0.00000000000E+00 0. -1.
          6    2    1    2  502    0  0.15256784506E+03 -0.44436631451E+01 -0.15442658444E+04  0.15619292594E+04  0.17767757275E+03 0.  0.
         24    2    3    3    0    0  0.51695671605E+02  0.59148899335E+02 -0.64823480316E+03  0.65798627107E+03  0.81034178779E+02 0.  0.
         -6    2    1    2    0  501 -0.15256784506E+03  0.44436631451E+01 -0.53049507345E+03  0.57945910960E+03  0.17621334584E+03 0.  0.
        -24    2    5    5    0    0 -0.91362210134E+02  0.35896785104E+02 -0.47160207738E+03  0.48876234221E+03  0.82731343246E+02 0.  0.
          5    1    3    3  502    0  0.10087217346E+03 -0.63592562480E+02 -0.89603104124E+03  0.90394298838E+03  0.47000000000E+01 0. -1.
        -13    1    4    4    0    0  0.68712313306E+02  0.55493267846E+02 -0.42536423647E+03  0.43443712830E+03  0.00000000000E+00 0.  1.
         14    1    4    4    0    0 -0.17016641701E+02  0.36556314890E+01 -0.22287056669E+03  0.22354914277E+03  0.00000000000E+00 0. -1.
         -5    1    5    5    0  501 -0.61205634928E+02 -0.31453121959E+02 -0.58892996071E+02  0.90696767385E+02  0.47000000000E+01 0.  1.
         11    1    6    6    0    0 -0.57338212294E+00  0.35826485851E+02 -0.17262715507E+03  0.17630655269E+03  0.00000000000E+00 0. -1.
        -12    1    6    6    0    0 -0.90788828011E+02  0.70299253929E-01 -0.29897492231E+03  0.31245578952E+03  0.00000000000E+00 0.  1.
</event>
<event>
12    1  0.2689284E-002  0.1733480E+03  0.7818608E-02  0.1174401E+00
         -2   -1    0    0    0  501 -0.00000000000E+00  0.00000000000E+00  0.13811086425E+04  0.13811086425E+04  0.00000000000E+00 0. -1.
          2   -1    0    0  502    0  0.00000000000E+00 -0.00000000000E+00 -0.26480402262E+02  0.26480402262E+02  0.00000000000E+00 0.  1.
          6    2    1    2  502    0 -0.13724023345E+02 -0.11501086636E+02  0.38122245393E+03  0.41893007605E+03  0.17277507177E+03 0.  0.
         24    2    3    3    0    0 -0.13532769016E+02 -0.13828654122E+02  0.39544358532E+03  0.40377142418E+03  0.79255071146E+02 0.  0.
         -6    2    1    2    0  501  0.13724023345E+02  0.11501086636E+02  0.97340578629E+03  0.98865896870E+03  0.17206716070E+03 0.  0.
        -24    2    5    5    0    0  0.40080070285E+02 -0.36577423679E+02  0.35280700476E+03  0.36562516383E+03  0.79149591692E+02 0.  0.
          5    1    3    3  502    0 -0.19125432894E+00  0.23275674865E+01 -0.14221131386E+02  0.15158651870E+02  0.47000000000E+01 0. -1.
        -13    1    4    4    0    0  0.96876305057E+01 -0.28697354639E+02  0.60144593269E+02  0.67340629991E+02  0.00000000000E+00 0.  1.
         14    1    4    4    0    0 -0.23220399522E+02  0.14868700516E+02  0.33529899205E+03  0.33643079419E+03  0.00000000000E+00 0. -1.
         -5    1    5    5    0  501 -0.26356046940E+02  0.48078510314E+02  0.62059878153E+03  0.62303380486E+03  0.47000000000E+01 0.  1.
         11    1    6    6    0    0  0.21427342191E+02  0.30992105850E+01  0.27855941347E+03  0.27939950417E+03  0.00000000000E+00 0. -1.
        -12    1    6    6    0    0  0.18652728094E+02 -0.39676634264E+02  0.74247591292E+02  0.86225659664E+02  0.00000000000E+00 0.  1.
</event>
<event>
12    1  0.2689284E-002  0.1734499E+03  0.7818608E-02  0.1174297E+00
         -1   -1    0    0    0  501 -0.00000000000E+00  0.00000000000E+00  0.76836848726E+03  0.76836848726E+03  0.00000000000E+00 0. -1.
          1   -1    0    0  502    0  0.00000000000E+00 -0.00000000000E+00 -0.39874661031E+02  0.39874661031E+02  0.00000000000E+00 0.  1.
          6    2    1    2  502    0  0.93405458977E+01  0.15835342945E+02  0.41835854622E+03  0.45285053037E+03  0.17237089596E+03 0.  0.
         24    2    3    3    0    0 -0.38814620651E+02  0.50166654044E+02  0.17589590035E+03  0.20323525914E+03  0.79636265882E+02 0.  0.
         -6    2    1    2    0  501 -0.93405458977E+01 -0.15835342945E+02  0.31013528001E+03  0.35539261793E+03  0.17257467104E+03 0.  0.
        -24    2    5    5    0    0  0.57165420916E+02 -0.11787107445E+02  0.11404465766E+03  0.14823795589E+03  0.74575373772E+02 0.  0.
          5    1    3    3  502    0  0.48155166549E+02 -0.34331311099E+02  0.24246264587E+03  0.24961527123E+03  0.47000000000E+01 0. -1.
        -11    1    4    4    0    0 -0.53564858421E+02  0.37637263726E+02  0.17124339637E+03  0.18333046250E+03  0.00000000000E+00 0.  1.
         12    1    4    4    0    0  0.14750237769E+02  0.12529390317E+02  0.46525039715E+01  0.19904796637E+02  0.00000000000E+00 0. -1.
         -5    1    5    5    0  501 -0.66505966814E+02 -0.40482355002E+01  0.19609062235E+03  0.20715466204E+03  0.47000000000E+01 0.  1.
         13    1    6    6    0    0 -0.19732969623E+01  0.64638471141E+01  0.74470212865E+02  0.74776251742E+02  0.00000000000E+00 0. -1.
        -14    1    6    6    0    0  0.59138717878E+02 -0.18250954559E+02  0.39574444797E+02  0.73461704143E+02  0.00000000000E+00 0.  1.
</event>
<event>
12    1  0.2689284E-002  0.1740550E+03  0.7818608E-02  0.1173684E+00
         -1   -1    0    0    0  501 -0.00000000000E+00  0.00000000000E+00  0.87532841135E+02  0.87532841135E+02  0.00000000000E+00 0. -1.
          1   -1    0    0  502    0  0.00000000000E+00 -0.00000000000E+00 -0.54041314709E+03  0.54041314709E+03  0.00000000000E+00 0.  1.
          6    2    1    2  502    0  0.72082486190E+01 -0.20914135126E+02 -0.41405123601E+03  0.44884482118E+03  0.17185426255E+03 0.  0.
         24    2    3    3    0    0  0.53023648154E+02 -0.48628854714E+02 -0.18907225947E+03  0.21753380458E+03  0.79977272125E+02 0.  0.
         -6    2    1    2    0  501 -0.72082486190E+01  0.20914135126E+02 -0.38829069938E+02  0.17910116704E+03  0.17343636143E+03 0.  0.
        -24    2    5    5    0    0 -0.41824998542E+02  0.16163880712E+02  0.34973331345E+02  0.97310160646E+02  0.78965384296E+02 0.  0.
          5    1    3    3  502    0 -0.45815399535E+02  0.27714719588E+02 -0.22497897654E+03  0.23131101660E+03  0.47000000000E+01 0. -1.
        -11    1    4    4    0    0 -0.12899769894E+01  0.11418300310E+02 -0.84512850423E+02  0.85290465524E+02  0.00000000000E+00 0.  1.
         12    1    4    4    0    0  0.54313625144E+02 -0.60047155025E+02 -0.10455940905E+03  0.13224333905E+03  0.00000000000E+00 0. -1.
         -5    1    5    5    0  501  0.34616749923E+02  0.47502544138E+01 -0.73802401283E+02  0.81791006397E+02  0.47000000000E+01 0.  1.
         11    1    6    6    0    0 -0.38492266179E+02 -0.19928903597E+02 -0.46678476888E+01  0.43595923619E+02  0.00000000000E+00 0. -1.
        -12    1    6    6    0    0 -0.33327323624E+01  0.36092784309E+02  0.39641179034E+02  0.53714237027E+02  0.00000000000E+00 0.  1.
</event>
<event>
12    1  0.2689284E-002  0.1820559E+03  0.7818608E-02  0.1165828E+00
          1   -1    0    0  502    0  0.00000000000E+00  0.00000000000E+00  0.79710850326E+02  0.79710850326E+02  0.00000000000E+00 0. -1.
         -1   -1    0    0    0  501 -0.00000000000E+00 -0.00000000000E+00 -0.41792215903E+03  0.41792215903E+03  0.00000000000E+00 0.  1.
          6    2    1    2  502    0 -0.49558306064E+02  0.32068578864E+02 -0.18466059433E+03  0.25787071021E+03  0.17003925616E+03 0.  0.
         24    2    3    3    0    0 -0.67782496744E+02  0.62206723005E+01 -0.19706056756E+03  0.22357661836E+03  0.80749448058E+02 0.  0.
         -6    2    1    2    0  501  0.49558306064E+02 -0.32068578864E+02 -0.15355071437E+03  0.23976229914E+03  0.17442396268E+03 0.  0.
        -24    2    5    5    0    0  0.26629534104E+02 -0.29346316364E+02 -0.52496064612E+01  0.89600892974E+02  0.80189920083E+02 0.  0.
          5    1    3    3  502    0  0.18224190681E+02  0.25847906563E+02  0.12399973227E+02  0.34294091848E+02  0.47000000000E+01 0. -1.
        -11    1    4    4    0    0 -0.67442710043E+02  0.33049556158E+02 -0.16799980312E+03  0.18402371084E+03  0.00000000000E+00 0.  1.
         12    1    4    4    0    0 -0.33978670144E+00 -0.26828883858E+02 -0.29060764438E+02  0.39552907526E+02  0.00000000000E+00 0. -1.
         -5    1    5    5    0  501  0.22928771959E+02 -0.27222625002E+01 -0.14830110790E+03  0.15016140617E+03  0.47000000000E+01 0.  1.
         13    1    6    6    0    0  0.27987062147E+02 -0.44211618650E+02 -0.30281709759E+02  0.60455974206E+02  0.00000000000E+00 0. -1.
        -14    1    6    6    0    0 -0.13575280427E+01  0.14865302287E+02  0.25032103298E+02  0.29144918767E+02  0.00000000000E+00 0.  1.
</event>
<event>
12    1  0.2689284E-002  0.2085049E+03  0.7818608E-02  0.1142755E+00
         -1   -1    0    0    0  501 -0.00000000000E+00  0.00000000000E+00  0.57483880433E+02  0.57483880433E+02  0.00000000000E+00 0.  1.
          1   -1    0    0  502    0  0.00000000000E+00 -0.00000000000E+00 -0.10776890597E+04  0.10776890597E+04  0.00000000000E+00 0. -1.
          6    2    1    2  502    0 -0.11166446108E+03 -0.41870723188E+02 -0.20120762076E+03  0.29020333078E+03  0.17178869933E+03 0.  0.
         24    2    3    3    0    0 -0.56012047451E+02 -0.25970966102E+02 -0.18335459260E+02  0.98332773194E+02  0.74305482152E+02 0.  0.
         -6    2    1    2    0  501  0.11166446108E+03  0.41870723188E+02 -0.81899755849E+03  0.84496960933E+03  0.17027780406E+03 0.  0.
        -24    2    5    5    0    0  0.12517235336E+03  0.33265499822E+01 -0.45087691030E+03  0.47456035180E+03  0.78983259481E+02 0.  0.
          5    1    3    3  502    0 -0.55652413628E+02 -0.15899757086E+02 -0.18287216150E+03  0.19187055759E+03  0.47000000000E+01 0. -1.
        -11    1    4    4    0    0 -0.22595128944E+02 -0.42863202875E+02  0.12257320907E+02  0.49980355426E+02  0.00000000000E+00 0.  1.
         12    1    4    4    0    0 -0.33416918507E+02  0.16892236773E+02 -0.30592780166E+02  0.48352417768E+02  0.00000000000E+00 0. -1.
         -5    1    5    5    0  501 -0.13507892283E+02  0.38544173206E+02 -0.36812064819E+03  0.37040925753E+03  0.47000000000E+01 0.  1.
         13    1    6    6    0    0  0.55345910965E+02  0.40604874266E+02 -0.22315223050E+03  0.23347129085E+03  0.00000000000E+00 0. -1.
        -14    1    6    6    0    0  0.69826442397E+02 -0.37278324284E+02 -0.22772467980E+03  0.24108906095E+03  0.00000000000E+00 0.  1.
</event>
<event>
12    1  0.2689284E-002  0.2395659E+03  0.7818608E-02  0.1120082E+00
          2   -1    0    0  502    0  0.00000000000E+00  0.00000000000E+00  0.96301619210E+03  0.96301619210E+03  0.00000000000E+00 0.  1.
         -2   -1    0    0    0  501 -0.00000000000E+00 -0.00000000000E+00 -0.59598258029E+02  0.59598258029E+02  0.00000000000E+00 0. -1.
          6    2    1    2  502    0 -0.28861234941E+02  0.16369781198E+03  0.45513981672E+03  0.51439040438E+03  0.17267104802E+03 0.  0.
         24    2    3    3    0    0 -0.71665681142E+02  0.73070101542E+02  0.32337030862E+03  0.34876765299E+03  0.81211511992E+02 0.  0.
         -6    2    1    2    0  501  0.28861234941E+02 -0.16369781198E+03  0.44827811734E+03  0.50822404574E+03  0.17236143901E+03 0.  0.
        -24    2    5    5    0    0 -0.22465254229E+02 -0.58945341122E+02  0.10772009917E+03  0.14821107045E+03  0.79897814428E+02 0.  0.
          5    1    3    3  502    0  0.42804446201E+02  0.90627710435E+02  0.13176950811E+03  0.16562275139E+03  0.47000000000E+01 0. -1.
        -11    1    4    4    0    0 -0.40618646815E+02  0.69305197281E+02  0.12950758204E+03  0.15239848636E+03  0.00000000000E+00 0.  1.
         12    1    4    4    0    0 -0.31047034327E+02  0.37649042612E+01  0.19386272657E+03  0.19636916662E+03  0.00000000000E+00 0. -1.
         -5    1    5    5    0  501  0.51326489171E+02 -0.10475247086E+03  0.34055801817E+03  0.36001297530E+03  0.47000000000E+01 0.  1.
         13    1    6    6    0    0  0.12363634572E+02  0.14326742793E+02  0.10695492011E+02  0.21737262207E+02  0.00000000000E+00 0. -1.
        -14    1    6    6    0    0 -0.34828888801E+02 -0.73272083916E+02  0.97024607159E+02  0.12647380824E+03  0.00000000000E+00 0.  1.
</event>
<event>
12    1  0.2689284E-002  0.2126219E+03  0.7818608E-02  0.1139506E+00
         -2   -1    0    0    0  501 -0.00000000000E+00  0.00000000000E+00  0.50718821297E+03  0.50718821297E+03  0.00000000000E+00 0.  1.
          2   -1    0    0  502    0  0.00000000000E+00 -0.00000000000E+00 -0.22342034972E+03  0.22342034972E+03  0.00000000000E+00 0. -1.
          6    2    1    2  502    0 -0.10074773338E+02 -0.12532133338E+03  0.42494243454E+03  0.47491561393E+03  0.17076835194E+03 0.  0.
         24    2    3    3    0    0  0.17460406008E+01 -0.10247701064E+03  0.16240087470E+03  0.21107521640E+03  0.87602034839E+02 0.  0.
         -6    2    1    2    0  501  0.10074773338E+02  0.12532133338E+03 -0.14117457129E+03  0.25569294876E+03  0.17216761255E+03 0.  0.
        -24    2    5    5    0    0  0.18998566342E+02  0.15048330094E+03 -0.14954476357E+03  0.22732203386E+03  0.79407187219E+02 0.  0.
          5    1    3    3  502    0 -0.11820813939E+02 -0.22844322735E+02  0.26254155984E+03  0.26384039753E+03  0.47000000000E+01 0. -1.
        -13    1    4    4    0    0  0.24307335098E+02  0.34724655822E+01  0.45489850325E+02  0.51693626681E+02  0.00000000000E+00 0.  1.
         14    1    4    4    0    0 -0.22561294498E+02 -0.10594947623E+03  0.11691102438E+03  0.15938158972E+03  0.00000000000E+00 0. -1.
         -5    1    5    5    0  501 -0.89237930043E+01 -0.25161967564E+02  0.83701922875E+01  0.28370914899E+02  0.47000000000E+01 0.  1.
         11    1    6    6    0    0  0.29155133830E+02  0.16078212039E+02 -0.48660360031E+02  0.58960676467E+02  0.00000000000E+00 0. -1.
        -12    1    6    6    0    0 -0.10156567488E+02  0.13440508890E+03 -0.10088440354E+03  0.16836135740E+03  0.00000000000E+00 0.  1.
</event>
<event>
12    1  0.2689284E-002  0.1618974E+03  0.7818608E-02  0.1186571E+00
          2   -1    0    0  502    0  0.00000000000E+00  0.00000000000E+00  0.53852092418E+03  0.53852092418E+03  0.00000000000E+00 0. -1.
         -2   -1    0    0    0  501 -0.00000000000E+00 -0.00000000000E+00 -0.75732198224E+02  0.75732198224E+02  0.00000000000E+00 0.  1.
          6    2    1    2  502    0  0.23094970592E+02 -0.70267190674E+01  0.39011160902E+02  0.15658310367E+03  0.14971187405E+03 0.  0.
         24    2    3    3    0    0  0.25147742722E+02 -0.49268836690E+02 -0.30455797136E+01  0.96754433231E+02  0.79324129754E+02 0.  0.
         -6    2    1    2    0  501 -0.23094970592E+02  0.70267190674E+01  0.42377756505E+03  0.45767001874E+03  0.17114809073E+03 0.  0.
        -24    2    5    5    0    0 -0.22952330185E+02  0.63845009908E+02  0.35140257964E+03  0.36553659899E+03  0.74365566464E+02 0.  0.
          5    1    3    3  502    0 -0.20527721302E+01  0.42242117623E+02  0.42056740616E+02  0.59828670434E+02  0.47000000000E+01 0. -1.
        -13    1    4    4    0    0  0.42842993363E+02 -0.25131051178E+02 -0.28673503604E+02  0.57352084727E+02  0.00000000000E+00 0.  1.
         14    1    4    4    0    0 -0.17695250641E+02 -0.24137785512E+02  0.25627923891E+02  0.39402348504E+02  0.00000000000E+00 0. -1.
         -5    1    5    5    0  501 -0.14264040679E+00 -0.56818290840E+02  0.72374985415E+02  0.92133419746E+02  0.47000000000E+01 0.  1.
         11    1    6    6    0    0 -0.24522816890E+02  0.20361303855E+02  0.40181152143E+02  0.51288168523E+02  0.00000000000E+00 0. -1.
        -12    1    6    6    0    0  0.15704867048E+01  0.43483706052E+02  0.31122142749E+03  0.31424843047E+03  0.00000000000E+00 0.  1.
</event>
<event>
12    1  0.2689284E-002  0.2417216E+03  0.7818608E-02  0.1118651E+00
          2   -1    0    0  502    0  0.00000000000E+00  0.00000000000E+00  0.16571831329E+04  0.16571831329E+04  0.00000000000E+00 0. -1.
         -2   -1    0    0    0  501 -0.00000000000E+00 -0.00000000000E+00 -0.42230727136E+02  0.42230727136E+02  0.00000000000E+00 0.  1.
          6    2    1    2  502    0 -0.15116984695E+02  0.16982047127E+03  0.46113857357E+03  0.52047245044E+03  0.17080770460E+03 0.  0.
         24    2    3    3    0    0 -0.90884884745E+01  0.14949842945E+03  0.46844542135E+03  0.49756375832E+03  0.75473172575E+02 0.  0.
         -6    2    1    2    0  501  0.15116984695E+02 -0.16982047127E+03  0.11538138322E+04  0.11789414096E+04  0.17189814483E+03 0.  0.
        -24    2    5    5    0    0 -0.25365596630E+01 -0.17794176107E+03  0.11342504762E+04  0.11509696761E+04  0.80853868696E+02 0.  0.
          5    1    3    3  502    0 -0.60284962202E+01  0.20322041818E+02 -0.73068477832E+01  0.22908692124E+02  0.47000000000E+01 0. -1.
        -13    1    4    4    0    0  0.30133957193E+02  0.52742553257E+02  0.13230850934E+03  0.14558631098E+03  0.00000000000E+00 0.  1.
         14    1    4    4    0    0 -0.39222445668E+02  0.96755876192E+02  0.33613691201E+03  0.35197744734E+03  0.00000000000E+00 0. -1.
         -5    1    5    5    0  501  0.17653544358E+02  0.81212898053E+01  0.19563355998E+02  0.27971733489E+02  0.47000000000E+01 0.  1.
         11    1    6    6    0    0 -0.20222618726E+01 -0.85268411797E+02  0.30979371925E+03  0.32132061882E+03  0.00000000000E+00 0. -1.
        -12    1    6    6    0    0 -0.51429779046E+00 -0.92673349276E+02  0.82445675699E+03  0.82964905732E+03  0.00000000000E+00 0.  1.
</event>
<event>
12    1  0.2689284E-002  0.3508263E+03  0.7818608E-02  0.1062276E+00
          2   -1    0    0  502    0  0.00000000000E+00  0.00000000000E+00  0.42935640264E+03  0.42935640264E+03  0.00000000000E+00 0. -1.
         -2   -1    0    0    0  501 -0.00000000000E+00 -0.00000000000E+00 -0.30295575125E+03  0.30295575125E+03  0.00000000000E+00 0.  1.
          6    2    1    2  502    0 -0.87103476550E+02 -0.29282714812E+03 -0.21700608250E+02  0.35162041423E+03  0.17271724002E+03 0.  0.
         24    2    3    3    0    0 -0.10443397952E+03 -0.30459615838E+03 -0.28483947427E+02  0.32910465029E+03  0.61751597575E+02 0.  0.
         -6    2    1    2    0  501  0.87103476550E+02  0.29282714812E+03  0.14810125964E+03  0.38069173966E+03  0.17221342350E+03 0.  0.
        -24    2    5    5    0    0  0.31982512044E+02  0.21405853394E+03  0.16241224996E+03  0.28337930596E+03  0.84155540994E+02 0.  0.
          5    1    3    3  502    0  0.17330502967E+02  0.11769010256E+02  0.67833391770E+01  0.22515763942E+02  0.47000000000E+01 0. -1.
        -13    1    4    4    0    0 -0.32872990949E+02 -0.16144810740E+03  0.80193039000E+01  0.16495585516E+03  0.00000000000E+00 0.  1.
         14    1    4    4    0    0 -0.71560988568E+02 -0.14314805098E+03 -0.36503251327E+02  0.16414879512E+03  0.00000000000E+00 0. -1.
         -5    1    5    5    0  501  0.55120964506E+02  0.78768614186E+02 -0.14310990321E+02  0.97312433701E+02  0.47000000000E+01 0.  1.
         13    1    6    6    0    0  0.74232330711E+01  0.55048245937E+02  0.92618206038E+02  0.10799789748E+03  0.00000000000E+00 0. -1.
        -14    1    6    6    0    0  0.24559278973E+02  0.15901028800E+03  0.69794043925E+02  0.17538140848E+03  0.00000000000E+00 0.  1.
</event>
<event>
12    1  0.2689284E-002  0.1801940E+03  0.7818608E-02  0.1167615E+00
          1   -1    0    0  502    0  0.00000000000E+00  0.00000000000E+00  0.23350908791E+04  0.23350908791E+04  0.00000000000E+00 0. -1.
         -1   -1    0    0    0  501 -0.00000000000E+00 -0.00000000000E+00 -0.15011919263E+02  0.15011919263E+02  0.00000000000E+00 0.  1.
          6    2    1    2  502    0 -0.36421727017E+02  0.37892771018E+02  0.84742216485E+03  0.86659145713E+03  0.17347629176E+03 0.  0.
         24    2    3    3    0    0  0.39067902877E+02  0.22453474448E+02  0.61987307590E+03  0.62630468267E+03  0.77359328836E+02 0.  0.
         -6    2    1    2    0  501  0.36421727017E+02 -0.37892771018E+02  0.14726567950E+04  0.14835113412E+04  0.17124677936E+03 0.  0.
        -24    2    5    5    0    0  0.12779496257E+02 -0.15549043880E+02  0.14077369968E+04  0.14107455016E+04  0.89857275123E+02 0.  0.
          5    1    3    3  502    0 -0.75489629893E+02  0.15439296570E+02  0.22754908895E+03  0.24028677447E+03  0.47000000000E+01 0. -1.
        -13    1    4    4    0    0 -0.77805701987E+01 -0.63952051274E+01  0.10859480347E+02  0.14810949823E+02  0.00000000000E+00 0.  1.
         14    1    4    4    0    0  0.46848473075E+02  0.28848679575E+02  0.60901359555E+03  0.61149373284E+03  0.00000000000E+00 0. -1.
         -5    1    5    5    0  501  0.23642230759E+02 -0.22343727138E+02  0.64919798202E+02  0.72765839624E+02  0.47000000000E+01 0.  1.
         13    1    6    6    0    0 -0.12903473851E+02 -0.42836484280E+02  0.10702186149E+04  0.10711532792E+04  0.00000000000E+00 0. -1.
        -14    1    6    6    0    0  0.25682970109E+02  0.27287440400E+02  0.33751838190E+03  0.33959222235E+03  0.00000000000E+00 0.  1.
</event>
<event>
12    1  0.2689284E-002  0.1876544E+03  0.7818608E-02  0.1160594E+00
          1   -1    0    0  502    0  0.00000000000E+00  0.00000000000E+00  0.27228460921E+03  0.27228460921E+03  0.00000000000E+00 0. -1.
         -1   -1    0    0    0  501 -0.00000000000E+00 -0.00000000000E+00 -0.21391997709E+03  0.21391997709E+03  0.00000000000E+00 0.  1.
          6    2    1    2  502    0  0.14990763143E+01  0.75612196992E+02 -0.12365540468E+03  0.22502796806E+03  0.17212633656E+03 0.  0.
         24    2    3    3    0    0 -0.60378560963E+02  0.52969195627E+02 -0.10867883304E+03  0.15729366948E+03  0.80491635587E+02 0.  0.
         -6    2    1    2    0  501 -0.14990763143E+01 -0.75612196992E+02  0.18202003681E+03  0.26117661824E+03  0.17135483813E+03 0.  0.
        -24    2    5    5    0    0  0.64481216165E+02 -0.41656552818E+02  0.12783995621E+03  0.16917685791E+03  0.79904062587E+02 0.  0.
          5    1    3    3  502    0  0.61877637277E+02  0.22643001364E+02 -0.14976571643E+02  0.67734298579E+02  0.47000000000E+01 0. -1.
        -11    1    4    4    0    0 -0.19023330023E+02  0.60756494419E+02 -0.35541832117E+02  0.72914062631E+02  0.00000000000E+00 0.  1.
         12    1    4    4    0    0 -0.41355230940E+02 -0.77872987911E+01 -0.73137000923E+02  0.84379606852E+02  0.00000000000E+00 0. -1.
         -5    1    5    5    0  501 -0.65980292479E+02 -0.33955644173E+02  0.54180080597E+02  0.91999760327E+02  0.47000000000E+01 0.  1.
         11    1    6    6    0    0  0.79897409749E+02 -0.48230169671E+02  0.11476018465E+03  0.14791769783E+03  0.00000000000E+00 0. -1.
        -12    1    6    6    0    0 -0.15416193585E+02  0.65736168529E+01  0.13079771561E+02  0.21259160079E+02  0.00000000000E+00 0.  1.
</event>
<event>
12    1  0.2689284E-002  0.2461813E+03  0.7818608E-02  0.1115742E+00
          1   -1    0    0  502    0  0.00000000000E+00  0.00000000000E+00  0.26537481799E+03  0.26537481799E+03  0.00000000000E+00 0. -1.
         -1   -1    0    0    0  501 -0.00000000000E+00 -0.00000000000E+00 -0.22998512187E+03  0.22998512187E+03  0.00000000000E+00 0.  1.
          6    2    1    2  502    0 -0.16281690092E+03  0.75981965021E+02  0.38383145767E+02  0.25240538497E+03  0.17306822427E+03 0.  0.
         24    2    3    3    0    0 -0.11839652006E+02  0.49138420472E+01  0.73022918626E+01  0.82602801742E+02  0.81274695853E+02 0.  0.
         -6    2    1    2    0  501  0.16281690092E+03 -0.75981965021E+02 -0.29934496506E+01  0.24295455488E+03  0.16350948829E+03 0.  0.
        -24    2    5    5    0    0  0.74816386063E+02 -0.57614661115E+02  0.56787323650E+02  0.13489309401E+03  0.77810062886E+02 0.  0.
          5    1    3    3  502    0 -0.15097724892E+03  0.71068122973E+02  0.31080853905E+02  0.16980258323E+03  0.47000000000E+01 0. -1.
        -13    1    4    4    0    0 -0.33031250638E+02 -0.96800106241E+01 -0.24089905270E+02  0.42012970144E+02  0.00000000000E+00 0.  1.
         14    1    4    4    0    0  0.21191598632E+02  0.14593852671E+02  0.31392197133E+02  0.40589831599E+02  0.00000000000E+00 0. -1.
         -5    1    5    5    0  501  0.88000514857E+02 -0.18367303905E+02 -0.59780773301E+02  0.10806146087E+03  0.47000000000E+01 0.  1.
         13    1    6    6    0    0  0.84840227250E+02 -0.35677579396E+02  0.60990273192E+02  0.11041090189E+03  0.00000000000E+00 0. -1.
        -14    1    6    6    0    0 -0.10023841187E+02 -0.21937081719E+02 -0.42029495422E+01  0.24482192127E+02  0.00000000000E+00 0.  1.
</event>
<event>
12    1  0.2689284E-002  0.1768529E+03  0.7818608E-02  0.1170884E+00
         -2   -1    0    0    0  501 -0.00000000000E+00  0.00000000000E+00  0.59090635341E+03  0.59090635341E+03  0.00000000000E+00 0.  1.
          2   -1    0    0  502    0  0.00000000000E+00 -0.00000000000E+00 -0.69562028822E+02  0.69562028822E+02  0.00000000000E+00 0. -1.
          6    2    1    2  502    0  0.17227939778E+02 -0.37355930766E+02  0.42201186775E+03  0.45752456338E+03  0.17187914972E+03 0.  0.
         24    2    3    3    0    0 -0.46458983071E+02 -0.30181942197E+02  0.33795564674E+03  0.35171800147E+03  0.80138297036E+02 0.  0.
         -6    2    1    2    0  501 -0.17227939778E+02  0.37355930766E+02  0.99332456842E+02  0.20294381885E+03  0.17212492311E+03 0.  0.
        -24    2    5    5    0    0  0.30264876720E+02 -0.60802288634E+01  0.21049400214E+01  0.86249570452E+02  0.80508544172E+02 0.  0.
          5    1    3    3  502    0  0.63686922849E+02 -0.71739885695E+01  0.84056221008E+02  0.10580656191E+03  0.47000000000E+01 0. -1.
        -13    1    4    4    0    0  0.91327333699E+01  0.14747791755E+02  0.14344123863E+03  0.14448630773E+03  0.00000000000E+00 0.  1.
         14    1    4    4    0    0 -0.55591716441E+02 -0.44929733951E+02  0.19451440811E+03  0.20723169374E+03  0.00000000000E+00 0. -1.
         -5    1    5    5    0  501 -0.47492816498E+02  0.43436159629E+02  0.97227516821E+02  0.11669424840E+03  0.47000000000E+01 0.  1.
         11    1    6    6    0    0  0.14633037329E+02 -0.18667408416E+02  0.38191450506E+02  0.44957589017E+02  0.00000000000E+00 0. -1.
        -12    1    6    6    0    0  0.15631839392E+02  0.12587179553E+02 -0.36086510485E+02  0.41291981435E+02  0.00000000000E+00 0.  1.
</event>
<event>
12    1  0.2689284E-002  0.1839522E+03  0.7818608E-02  0.1164032E+00
         -2   -1    0    0    0  501 -0.00000000000E+00  0.00000000000E+00  0.30791715919E+02  0.30791715919E+02  0.00000000000E+00 0.  1.
          2   -1    0    0  502    0  0.00000000000E+00 -0.00000000000E+00 -0.12021805119E+04  0.12021805119E+04  0.00000000000E+00 0. -1.
          6    2    1    2  502    0 -0.40770999419E+02  0.52532107186E+02 -0.40465457849E+03  0.44444930052E+03  0.17137081477E+03 0.  0.
         24    2    3    3    0    0 -0.65447517422E+02  0.23680886417E+02 -0.38830530859E+03  0.40284747235E+03  0.81614406688E+02 0.  0.
         -6    2    1    2    0  501  0.40770999419E+02 -0.52532107186E+02 -0.76673421747E+03  0.78852292729E+03  0.17165415793E+03 0.  0.
        -24    2    5    5    0    0 -0.55569042869E+01 -0.87544279124E+02 -0.60478947944E+03  0.61641739274E+03  0.80654867415E+02 0.  0.
          5    1    3    3  502    0  0.24676518003E+02  0.28851220770E+02 -0.16349269903E+02  0.41601828169E+02  0.47000000000E+01 0. -1.
        -11    1    4    4    0    0 -0.55478172933E+02 -0.16602349324E+02 -0.14691546684E+03  0.15791649715E+03  0.00000000000E+00 0.  1.
         12    1    4    4    0    0 -0.99693444886E+01  0.40283235740E+02 -0.24138984175E+03  0.24493097520E+03  0.00000000000E+00 0. -1.
         -5    1    5    5    0  501  0.46327903705E+02  0.35012171938E+02 -0.16194473803E+03  0.17210553455E+03  0.47000000000E+01 0.  1.
         11    1    6    6    0    0 -0.33203939918E+02 -0.25987978945E+02 -0.12533261284E+03  0.13223517125E+03  0.00000000000E+00 0. -1.
        -12    1    6    6    0    0  0.27647035631E+02 -0.61556300179E+02 -0.47945686660E+03  0.48418222149E+03  0.00000000000E+00 0.  1.
</event>
<event>
12    1  0.2689284E-002  0.1953942E+03  0.7818608E-02  0.1153684E+00
          1   -1    0    0  502    0  0.00000000000E+00  0.00000000000E+00  0.50412393698E+03  0.50412393698E+03  0.00000000000E+00 0.  1.
         -1   -1    0    0    0  501 -0.00000000000E+00 -0.00000000000E+00 -0.77540939363E+02  0.77540939363E+02  0.00000000000E+00 0. -1.
          6    2    1    2  502    0 -0.79043744991E+01  0.92943385965E+02  0.25765641391E+03  0.32334263031E+03  0.17164695400E+03 0.  0.
         24    2    3    3    0    0  0.17864040474E+02 -0.15142411782E+02  0.14017542186E+03  0.16156987495E+03  0.76858695150E+02 0.  0.
         -6    2    1    2    0  501  0.79043744991E+01 -0.92943385965E+02  0.16892658371E+03  0.25832224603E+03  0.17173596007E+03 0.  0.
        -24    2    5    5    0    0  0.40992016696E+02  0.45876989201E+01  0.98312899841E+02  0.13336030409E+03  0.80113369782E+02 0.  0.
          5    1    3    3  502    0 -0.25768414974E+02  0.10808579775E+03  0.11748099205E+03  0.16177275536E+03  0.47000000000E+01 0. -1.
        -11    1    4    4    0    0  0.19850650870E+02  0.27208034340E+02  0.37054578995E+02  0.50073618773E+02  0.00000000000E+00 0.  1.
         12    1    4    4    0    0 -0.19866103954E+01 -0.42350446121E+02  0.10312084287E+03  0.11149625617E+03  0.00000000000E+00 0. -1.
         -5    1    5    5    0  501 -0.33087642197E+02 -0.97531084885E+02  0.70613683866E+02  0.12496194194E+03  0.47000000000E+01 0.  1.
         11    1    6    6    0    0  0.27818514771E+02 -0.35994149718E+02  0.36870877077E+02  0.58556896728E+02  0.00000000000E+00 0. -1.
        -12    1    6    6    0    0  0.13173501925E+02  0.40581848638E+02  0.61442022764E+02  0.74803407363E+02  0.00000000000E+00 0.  1.
</event>
<event>
12    1  0.2689284E-002  0.1784041E+03  0.7818608E-02  0.1169357E+00
         -2   -1    0    0    0  501 -0.00000000000E+00  0.00000000000E+00  0.52936264614E+02  0.52936264614E+02  0.00000000000E+00 0. -1.
          2   -1    0    0  502    0  0.00000000000E+00 -0.00000000000E+00 -0.10535332041E+04  0.10535332041E+04  0.00000000000E+00 0.  1.
          6    2    1    2  502    0  0.28530172760E+01  0.43442148161E+02 -0.13998998534E+03  0.22783690730E+03  0.17440498957E+03 0.  0.
         24    2    3    3    0    0  0.43024289753E+02  0.73186464267E+02 -0.13321311310E+03  0.17717655327E+03  0.80239949301E+02 0.  0.
         -6    2    1    2    0  501 -0.28530172760E+01 -0.43442148161E+02 -0.86060695418E+03  0.87863256145E+03  0.17162601353E+03 0.  0.
        -24    2    5    5    0    0  0.13026032934E+02  0.39753334687E+02 -0.49945612841E+03  0.50765326075E+03  0.80656083362E+02 0.  0.
          5    1    3    3  502    0 -0.40171272477E+02 -0.29744316106E+02 -0.67768722386E+01  0.50660354029E+02  0.47000000000E+01 0. -1.
        -13    1    4    4    0    0  0.61334689526E+02  0.41394625021E+02 -0.11360238759E+03  0.13557640498E+03  0.00000000000E+00 0.  1.
         14    1    4    4    0    0 -0.18310399773E+02  0.31791839246E+02 -0.19610725508E+02  0.41600148287E+02  0.00000000000E+00 0. -1.
         -5    1    5    5    0  501 -0.15879050210E+02 -0.83195482847E+02 -0.36115082576E+03  0.37097930070E+03  0.47000000000E+01 0.  1.
         13    1    6    6    0    0 -0.34020319827E+02  0.18257782479E+02 -0.18693230622E+03  0.19087801312E+03  0.00000000000E+00 0. -1.
        -14    1    6    6    0    0  0.47046352761E+02  0.21495552207E+02 -0.31252382219E+03  0.31677524763E+03  0.00000000000E+00 0.  1.
</event>
<event>
12    1  0.2689284E-002  0.2362040E+03  0.7818608E-02  0.1122348E+00
          2   -1    0    0  502    0  0.00000000000E+00  0.00000000000E+00  0.16831807616E+04  0.16831807616E+04  0.00000000000E+00 0.  1.
         -2   -1    0    0    0  501 -0.00000000000E+00 -0.00000000000E+00 -0.33851150938E+02  0.33851150938E+02  0.00000000000E+00 0. -1.
          6    2    1    2  502    0 -0.92307885355E+02 -0.13337550619E+03  0.94878500164E+03  0.97776591145E+03  0.17182382516E+03 0.  0.
         24    2    3    3    0    0 -0.11698059374E+03 -0.12729319171E+03  0.91853261521E+03  0.93797855198E+03  0.78826282365E+02 0.  0.
         -6    2    1    2    0  501  0.92307885355E+02  0.13337550619E+03  0.70054460904E+03  0.73926600112E+03  0.17158583799E+03 0.  0.
        -24    2    5    5    0    0  0.94686045197E+02  0.78556694197E+02  0.29720389137E+03  0.33218298462E+03  0.82938416088E+02 0.  0.
          5    1    3    3  502    0  0.24672708389E+02 -0.60823144836E+01  0.30252386429E+02  0.39787359468E+02  0.47000000000E+01 0. -1.
        -11    1    4    4    0    0 -0.54529609830E+02 -0.17072062027E+02  0.40704911840E+03  0.41104004482E+03  0.00000000000E+00 0.  1.
         12    1    4    4    0    0 -0.62450983915E+02 -0.11022112968E+03  0.51148349681E+03  0.52693850716E+03  0.00000000000E+00 0. -1.
         -5    1    5    5    0  501 -0.23781598422E+01  0.54818811993E+02  0.40334071767E+03  0.40708301650E+03  0.47000000000E+01 0.  1.
         13    1    6    6    0    0  0.33725249054E+02  0.21603827106E+02  0.24378403178E+02  0.46887357687E+02  0.00000000000E+00 0. -1.
        -14    1    6    6    0    0  0.60960796143E+02  0.56952867092E+02  0.27282548819E+03  0.28529562693E+03  0.00000000000E+00 0.  1.
</event>
<event>
12    1  0.2689284E-002  0.3711257E+03  0.7818608E-02  0.1054263E+00
         -2   -1    0    0    0  501 -0.00000000000E+00  0.00000000000E+00  0.52864853360E+03  0.52864853360E+03  0.00000000000E+00 0. -1.
          2   -1    0    0  502    0  0.00000000000E+00 -0.00000000000E+00 -0.38171232013E+03  0.38171232013E+03  0.00000000000E+00 0.  1.
          6    2    1    2  502    0  0.18700140705E+03  0.27090295503E+03  0.32989548528E+03  0.49638410268E+03  0.17090409272E+03 0.  0.
         24    2    3    3    0    0  0.14704756403E+03  0.14337683683E+03  0.12934963840E+03  0.25534479656E+03  0.79307835369E+02 0.  0.
         -6    2    1    2    0  501 -0.18700140705E+03 -0.27090295503E+03 -0.18295927182E+03  0.41397675104E+03  0.17188577014E+03 0.  0.
        -24    2    5    5    0    0 -0.45420669736E+02 -0.13722820288E+03 -0.33160526176E+02  0.16826187820E+03  0.79484729689E+02 0.  0.
          5    1    3    3  502    0  0.39953843021E+02  0.12752611820E+03  0.20054584688E+03  0.24103930612E+03  0.47000000000E+01 0. -1.
        -11    1    4    4    0    0  0.11075362743E+03  0.56810697434E+02  0.57380196694E+02  0.13706315444E+03  0.00000000000E+00 0.  1.
         12    1    4    4    0    0  0.36293936597E+02  0.86566139395E+02  0.71969441709E+02  0.11828164212E+03  0.00000000000E+00 0. -1.
         -5    1    5    5    0  501 -0.14158073731E+03 -0.13367475214E+03 -0.14979874564E+03  0.24571487284E+03  0.47000000000E+01 0.  1.
         11    1    6    6    0    0 -0.47891756673E+02 -0.54781343482E+02  0.12733486495E+02  0.73869869563E+02  0.00000000000E+00 0. -1.
        -12    1    6    6    0    0  0.24710869369E+01 -0.82446859399E+02 -0.45894012671E+02  0.94392008637E+02  0.00000000000E+00 0.  1.
</event>
<event>
12    1  0.2689284E-002  0.3779585E+03  0.7818608E-02  0.1051691E+00
          2   -1    0    0  502    0  0.00000000000E+00  0.00000000000E+00  0.14697070711E+04  0.14697070711E+04  0.00000000000E+00 0.  1.
         -2   -1    0    0    0  501 -0.00000000000E+00 -0.00000000000E+00 -0.10178163066E+03  0.10178163066E+03  0.00000000000E+00 0. -1.
          6    2    1    2  502    0  0.19051773788E+03 -0.27788303096E+03  0.51730929830E+03  0.64070348988E+03  0.17139447047E+03 0.  0.
         24    2    3    3    0    0  0.25543119770E+02 -0.96791656382E+02  0.23009333929E+03  0.26317758657E+03  0.79362595562E+02 0.  0.
         -6    2    1    2    0  501 -0.19051773788E+03  0.27788303096E+03  0.85061614218E+03  0.93078521190E+03  0.17116454663E+03 0.  0.
        -24    2    5    5    0    0 -0.12615763791E+03  0.22370204995E+03  0.76413356708E+03  0.81004115629E+03  0.79424239281E+02 0.  0.
          5    1    3    3  502    0  0.16497461811E+03 -0.18109137457E+03  0.28721595900E+03  0.37752590331E+03  0.47000000000E+01 0. -1.
        -13    1    4    4    0    0  0.11750681021E+02 -0.10647587734E+03  0.21640180806E+03  0.24146414535E+03  0.00000000000E+00 0.  1.
         14    1    4    4    0    0  0.13792438749E+02  0.96842209537E+01  0.13691531232E+02  0.21713441219E+02  0.00000000000E+00 0. -1.
         -5    1    5    5    0  501 -0.64360099968E+02  0.54180981006E+02  0.86482575097E+02  0.12074405561E+03  0.47000000000E+01 0.  1.
         13    1    6    6    0    0  0.22496818832E+01  0.46667623334E+02  0.91363938406E+02  0.10261723723E+03  0.00000000000E+00 0. -1.
        -14    1    6    6    0    0 -0.12840731980E+03  0.17703442662E+03  0.67276962867E+03  0.70742391905E+03  0.00000000000E+00 0.  1.
</event>
<event>
12    1  0.2689284E-002  0.2012856E+03  0.7818608E-02  0.1148659E+00
          2   -1    0    0  502    0  0.00000000000E+00  0.00000000000E+00  0.12581232288E+04  0.12581232288E+04  0.00000000000E+00 0.  1.
         -2   -1    0    0    0  501 -0.00000000000E+00 -0.00000000000E+00 -0.63297319887E+02  0.63297319887E+02  0.00000000000E+00 0. -1.
          6    2    1    2  502    0 -0.18277222069E+02  0.10283610351E+03  0.13666288502E+03  0.24456682780E+03  0.17385875902E+03 0.  0.
         24    2    3    3    0    0  0.50910908446E+02  0.91002310218E+02  0.10244467499E+03  0.16633632247E+03  0.79369513502E+02 0.  0.
         -6    2    1    2    0  501  0.18277222069E+02 -0.10283610351E+03  0.10581630239E+04  0.10768537209E+04  0.17028103246E+03 0.  0.
        -24    2    5    5    0    0  0.50456619286E+02 -0.70075253813E+01  0.40475525201E+03  0.41565599225E+03  0.79675052708E+02 0.  0.
          5    1    3    3  502    0 -0.69188130515E+02  0.11833793292E+02  0.34218210029E+02  0.78230505338E+02  0.47000000000E+01 0. -1.
        -11    1    4    4    0    0 -0.14659223255E+02  0.64875219169E+01  0.38520358311E+02  0.41722880671E+02  0.00000000000E+00 0.  1.
         12    1    4    4    0    0  0.65570131701E+02  0.84514788301E+02  0.63924316680E+02  0.12461344179E+03  0.00000000000E+00 0. -1.
         -5    1    5    5    0  501 -0.32179397217E+02 -0.95828578129E+02  0.65340777187E+03  0.66119772862E+03  0.47000000000E+01 0.  1.
         11    1    6    6    0    0  0.80172676493E+01  0.23835243666E+02  0.26809060988E+03  0.26926747024E+03  0.00000000000E+00 0. -1.
        -12    1    6    6    0    0  0.42439351637E+02 -0.30842769047E+02  0.13666464213E+03  0.14638852202E+03  0.00000000000E+00 0.  1.
</event>
<event>
12    1  0.2689284E-002  0.2168439E+03  0.7818608E-02  0.1136258E+00
          2   -1    0    0  502    0  0.00000000000E+00  0.00000000000E+00  0.20878032390E+03  0.20878032390E+03  0.00000000000E+00 0. -1.
         -2   -1    0    0    0  501 -0.00000000000E+00 -0.00000000000E+00 -0.22874106598E+03  0.22874106598E+03  0.00000000000E+00 0.  1.
          6    2    1    2  502    0  0.96914964955E+02 -0.92790604868E+02 -0.37152713594E+02  0.22095763475E+03  0.17157897727E+03 0.  0.
         24    2    3    3    0    0  0.94654862063E+02 -0.13155120737E+01 -0.42421681427E+02  0.12918262350E+03  0.76988815264E+02 0.  0.
         -6    2    1    2    0  501 -0.96914964955E+02  0.92790604868E+02  0.17191971509E+02  0.21656375513E+03  0.16912033990E+03 0.  0.
        -24    2    5    5    0    0 -0.57334925820E+02  0.12632512868E+03  0.30723984740E+02  0.16274601487E+03  0.79353451486E+02 0.  0.
          5    1    3    3  502    0  0.22601028917E+01 -0.91475092794E+02  0.52689678330E+01  0.91775011244E+02  0.47000000000E+01 0. -1.
        -13    1    4    4    0    0  0.29557018417E+02 -0.54430721670E+01 -0.55071801697E+02  0.62738725795E+02  0.00000000000E+00 0.  1.
         14    1    4    4    0    0  0.65097843646E+02  0.41275600933E+01  0.12650120269E+02  0.66443897707E+02  0.00000000000E+00 0. -1.
         -5    1    5    5    0  501 -0.39580039135E+02 -0.33534523810E+02 -0.13532013232E+02  0.53817740265E+02  0.47000000000E+01 0.  1.
         13    1    6    6    0    0 -0.70796267991E+02  0.67128428365E+02  0.78704526465E+01  0.97878912341E+02  0.00000000000E+00 0. -1.
        -14    1    6    6    0    0  0.13461342171E+02  0.59196700313E+02  0.22853532094E+02  0.64867102527E+02  0.00000000000E+00 0.  1.
</event>
<event>
12    1  0.2689284E-002  0.1939241E+03  0.7818608E-02  0.1154969E+00
          2   -1    0    0  502    0  0.00000000000E+00  0.00000000000E+00  0.94247010357E+03  0.94247010357E+03  0.00000000000E+00 0.  1.
         -2   -1    0    0    0  501 -0.00000000000E+00 -0.00000000000E+00 -0.41770469896E+02  0.41770469896E+02  0.00000000000E+00 0. -1.
          6    2    1    2  502    0  0.88364303817E+02 -0.15736737963E+02  0.34672887952E+03  0.39737578360E+03  0.17213570921E+03 0.  0.
         24    2    3    3    0    0  0.82423526419E+02 -0.35676899172E+02  0.35479449474E+03  0.37457124427E+03  0.79737097325E+02 0.  0.
         -6    2    1    2    0  501 -0.88364303817E+02  0.15736737963E+02  0.55397075415E+03  0.58686478987E+03  0.17167058578E+03 0.  0.
        -24    2    5    5    0    0 -0.53575092390E+02 -0.57744154463E+02  0.32057548379E+03  0.33967018432E+03  0.80015719777E+02 0.  0.
          5    1    3    3  502    0  0.59407773978E+01  0.19940161208E+02 -0.80656152229E+01  0.22804539330E+02  0.47000000000E+01 0. -1.
        -11    1    4    4    0    0  0.82208975724E+02 -0.43829511063E+01  0.19376260085E+03  0.21052665256E+03  0.00000000000E+00 0.  1.
         12    1    4    4    0    0  0.21455069463E+00 -0.31293948066E+02  0.16103189389E+03  0.16404459170E+03  0.00000000000E+00 0. -1.
         -5    1    5    5    0  501 -0.34789211427E+02  0.73480892426E+02  0.23339527036E+03  0.24719460555E+03  0.47000000000E+01 0.  1.
         13    1    6    6    0    0 -0.23716756327E+02 -0.13493141167E+02  0.18624326820E+02  0.33036569718E+02  0.00000000000E+00 0. -1.
        -14    1    6    6    0    0 -0.29858336063E+02 -0.44251013295E+02  0.30195115697E+03  0.30663361460E+03  0.00000000000E+00 0.  1.
</event>
<event>
12    1  0.2689284E-002  0.3618990E+03  0.7818608E-02  0.1057834E+00
         -2   -1    0    0    0  501 -0.00000000000E+00  0.00000000000E+00  0.98737353223E+02  0.98737353223E+02  0.00000000000E+00 0. -1.
          2   -1    0    0  502    0  0.00000000000E+00 -0.00000000000E+00 -0.16505832018E+04  0.16505832018E+04  0.00000000000E+00 0.  1.
          6    2    1    2  502    0  0.43760658168E+02  0.31530542058E+03 -0.11636967658E+04  0.12187027668E+04  0.17237681886E+03 0.  0.
         24    2    3    3    0    0  0.97325118670E+02  0.26692603014E+03 -0.93579675050E+03  0.97959981029E+03  0.56378593357E+02 0.  0.
         -6    2    1    2    0  501 -0.43760658168E+02 -0.31530542058E+03 -0.38814908279E+03  0.53061778821E+03  0.17193901025E+03 0.  0.
        -24    2    5    5    0    0  0.43881777516E+02 -0.15475234250E+03 -0.19653141272E+03  0.26566890843E+03  0.77983811237E+02 0.  0.
          5    1    3    3  502    0 -0.53564460502E+02  0.48379390439E+02 -0.22790001531E+03  0.23910295654E+03  0.47000000000E+01 0. -1.
        -11    1    4    4    0    0  0.32215750003E+02  0.61930558104E+02 -0.16057530079E+03  0.17509333454E+03  0.00000000000E+00 0.  1.
         12    1    4    4    0    0  0.65109368666E+02  0.20499547204E+03 -0.77522144971E+03  0.80450647575E+03  0.00000000000E+00 0. -1.
         -5    1    5    5    0  501 -0.87642435684E+02 -0.16055307808E+03 -0.19161767007E+03  0.26494887978E+03  0.47000000000E+01 0.  1.
         11    1    6    6    0    0 -0.14367199877E+02 -0.43236452261E+02 -0.22204565906E+02  0.50683823687E+02  0.00000000000E+00 0. -1.
        -12    1    6    6    0    0  0.58248977393E+02 -0.11151589024E+03 -0.17432684682E+03  0.21498508475E+03  0.00000000000E+00 0.  1.
</event>
<event>
12    1  0.2689284E-002  0.2361059E+03  0.7818608E-02  0.1122415E+00
         -1   -1    0    0    0  501 -0.00000000000E+00  0.00000000000E+00  0.48057961980E+03  0.48057961980E+03  0.00000000000E+00 0.  1.
          1   -1    0    0  502    0  0.00000000000E+00 -0.00000000000E+00 -0.13725271447E+03  0.13725271447E+03  0.00000000000E+00 0. -1.
          6    2    1    2  502    0 -0.92333946696E+02 -0.13352051700E+03  0.47866276524E+02  0.23722521172E+03  0.16622675619E+03 0.  0.
         24    2    3    3    0    0 -0.60721145078E+02 -0.14040355745E+03  0.87456623880E+02  0.18588097080E+03  0.59184946052E+02 0.  0.
         -6    2    1    2    0  501  0.92333946696E+02  0.13352051700E+03  0.29546062881E+03  0.38060712255E+03  0.17666780236E+03 0.  0.
        -24    2    5    5    0    0  0.10435192119E+03  0.54725130489E+02  0.25321120985E+03  0.29027303127E+03  0.79109749884E+02 0.  0.
          5    1    3    3  502    0 -0.31612801618E+02  0.68830404535E+01 -0.39590347356E+02  0.51344240922E+02  0.47000000000E+01 0. -1.
        -13    1    4    4    0    0 -0.22346678910E+02 -0.21207701521E+02  0.43219306273E+02  0.53075880557E+02  0.00000000000E+00 0.  1.
         14    1    4    4    0    0 -0.38374466168E+02 -0.11919585593E+03  0.44237317607E+02  0.13280509024E+03  0.00000000000E+00 0. -1.
         -5    1    5    5    0  501 -0.12017974492E+02  0.78795386510E+02  0.42249418964E+02  0.90334091288E+02  0.47000000000E+01 0.  1.
         11    1    6    6    0    0  0.20750045001E+02 -0.20566242309E+02  0.58659553313E+02  0.65532265985E+02  0.00000000000E+00 0. -1.
        -12    1    6    6    0    0  0.83601876187E+02  0.75291372798E+02  0.19455165653E+03  0.22474076528E+03  0.00000000000E+00 0.  1.
</event>
<event>
12    1  0.2689284E-002  0.2205402E+03  0.7818608E-02  0.1133481E+00
          2   -1    0    0  502    0  0.00000000000E+00  0.00000000000E+00  0.10776731816E+04  0.10776731816E+04  0.00000000000E+00 0. -1.
         -2   -1    0    0    0  501 -0.00000000000E+00 -0.00000000000E+00 -0.47365188964E+02  0.47365188964E+02  0.00000000000E+00 0.  1.
          6    2    1    2  502    0  0.13998960538E+03  0.88090361892E+00  0.39560743966E+03  0.45348796678E+03  0.17189596881E+03 0.  0.
         24    2    3    3    0    0  0.14567429898E+03 -0.40660920440E+02  0.26095513362E+03  0.31238030430E+03  0.81299206150E+02 0.  0.
         -6    2    1    2    0  501 -0.13998960538E+03 -0.88090361892E+00  0.63470055297E+03  0.67155040378E+03  0.16892982943E+03 0.  0.
        -24    2    5    5    0    0 -0.14759144189E+03  0.54343104958E+01  0.37637196503E+03  0.41299012223E+03  0.84215316592E+02 0.  0.
          5    1    3    3  502    0 -0.56846935987E+01  0.41541824058E+02  0.13465230604E+03  0.14110766247E+03  0.47000000000E+01 0. -1.
        -13    1    4    4    0    0  0.24911650114E+02  0.15203703421E+02  0.15174246260E+02  0.32893778419E+02  0.00000000000E+00 0.  1.
         14    1    4    4    0    0  0.12076264886E+03 -0.55864623861E+02  0.24578088736E+03  0.27948652588E+03  0.00000000000E+00 0. -1.
         -5    1    5    5    0  501  0.76018365139E+01 -0.63152141147E+01  0.25832858794E+03  0.25856028155E+03  0.47000000000E+01 0.  1.
         13    1    6    6    0    0 -0.11746837458E+03  0.35619615214E+02  0.31661610652E+03  0.33957817203E+03  0.00000000000E+00 0. -1.
        -14    1    6    6    0    0 -0.30123067316E+02 -0.30185304719E+02  0.59755858513E+02  0.73411950199E+02  0.00000000000E+00 0.  1.
</event>
<event>
12    1  0.2689284E-002  0.2307633E+03  0.7818608E-02  0.1126104E+00
         -2   -1    0    0    0  501 -0.00000000000E+00  0.00000000000E+00  0.19849230530E+02  0.19849230530E+02  0.00000000000E+00 0.  1.
          2   -1    0    0  502    0  0.00000000000E+00 -0.00000000000E+00 -0.27534939697E+04  0.27534939697E+04  0.00000000000E+00 0. -1.
          6    2    1    2  502    0  0.11561025693E+03  0.78367190504E+02 -0.16292066719E+04  0.16466048579E+04  0.19361309407E+03 0.  0.
         24    2    3    3    0    0  0.45359236588E+02 -0.10044088350E+02 -0.34595816187E+03  0.35838880900E+03  0.81222808397E+02 0.  0.
         -6    2    1    2    0  501 -0.11561025693E+03 -0.78367190504E+02 -0.11044380673E+04  0.11267383423E+04  0.17392153294E+03 0.  0.
        -24    2    5    5    0    0 -0.23792094392E+02 -0.17138488254E+01 -0.22660933126E+03  0.24078592290E+03  0.77827184308E+02 0.  0.
          5    1    3    3  502    0  0.70251020337E+02  0.88411278853E+02 -0.12832485101E+04  0.12882160489E+04  0.47000000000E+01 0. -1.
        -13    1    4    4    0    0  0.47307961761E+02 -0.39344380049E+02 -0.19079318413E+03  0.20046960517E+03  0.00000000000E+00 0.  1.
         14    1    4    4    0    0 -0.19487251721E+01  0.29300291700E+02 -0.15516497774E+03  0.15791920384E+03  0.00000000000E+00 0. -1.
         -5    1    5    5    0  501 -0.91818162534E+02 -0.76653341678E+02 -0.87782873599E+03  0.88595241943E+03  0.47000000000E+01 0.  1.
         13    1    6    6    0    0  0.50922266182E+01  0.34352787189E+02 -0.11014396775E+03  0.11548912672E+03  0.00000000000E+00 0. -1.
        -14    1    6    6    0    0 -0.28884321010E+02 -0.36066636014E+02 -0.11646536351E+03  0.12529679617E+03  0.00000000000E+00 0.  1.
</event>
<event>
12    1  0.2689284E-002  0.2008798E+03  0.7818608E-02  0.1148999E+00
          2   -1    0    0  502    0  0.00000000000E+00  0.00000000000E+00  0.24135735288E+04  0.24135735288E+04  0.00000000000E+00 0. -1.
         -2   -1    0    0    0  501 -0.00000000000E+00 -0.00000000000E+00 -0.16754721493E+02  0.16754721493E+02  0.00000000000E+00 0.  1.
          6    2    1    2  502    0  0.48368572884E+02 -0.11026259689E+03  0.12751707941E+04  0.12921587679E+04  0.17063519090E+03 0.  0.
         24    2    3    3    0    0  0.43964753180E+02 -0.22168865338E+02  0.33819859432E+03  0.35103237245E+03  0.80131636662E+02 0.  0.
         -6    2    1    2    0  501 -0.48368572884E+02  0.11026259689E+03  0.11216480132E+04  0.11381694823E+04  0.15112294951E+03 0.  0.
        -24    2    5    5    0    0  0.68294340852E+01  0.52238650723E+02  0.83104499723E+03  0.83669676185E+03  0.81548550367E+02 0.  0.
          5    1    3    3  502    0  0.44038197031E+01 -0.88093731556E+02  0.93697219975E+03  0.94112639548E+03  0.47000000000E+01 0. -1.
        -11    1    4    4    0    0  0.39941071018E+02  0.24017496099E+02  0.14297811390E+03  0.15038241362E+03  0.00000000000E+00 0.  1.
         12    1    4    4    0    0  0.40236821620E+01 -0.46186361436E+02  0.19522048042E+03  0.20064995883E+03  0.00000000000E+00 0. -1.
         -5    1    5    5    0  501 -0.55198006969E+02  0.58023946171E+02  0.29060301599E+03  0.30147272050E+03  0.47000000000E+01 0.  1.
         11    1    6    6    0    0 -0.27561505419E+02  0.53823970669E+02  0.60955511257E+03  0.61254721586E+03  0.00000000000E+00 0. -1.
        -12    1    6    6    0    0  0.34390939504E+02 -0.15853199466E+01  0.22148988466E+03  0.22414954599E+03  0.00000000000E+00 0.  1.
</event>
<event>
12    1  0.2689284E-002  0.1759178E+03  0.7818608E-02  0.1171813E+00
         -1   -1    0    0    0  501 -0.00000000000E+00  0.00000000000E+00  0.87014201968E+03  0.87014201968E+03  0.00000000000E+00 0. -1.
          1   -1    0    0  502    0  0.00000000000E+00 -0.00000000000E+00 -0.42314632915E+02  0.42314632915E+02  0.00000000000E+00 0.  1.
          6    2    1    2  502    0  0.23077985422E+02  0.27670499832E+02  0.23126918612E+03  0.29043798841E+03  0.17196086383E+03 0.  0.
         24    2    3    3    0    0  0.48005913583E+02  0.68842451735E+02  0.20432887259E+03  0.23508094984E+03  0.80429558642E+02 0.  0.
         -6    2    1    2    0  501 -0.23077985422E+02 -0.27670499832E+02  0.59655820065E+03  0.62201866419E+03  0.17241601396E+03 0.  0.
        -24    2    5    5    0    0  0.16245609805E+02 -0.12428370954E+02  0.56374769324E+03  0.56837831529E+03  0.69455477890E+02 0.  0.
          5    1    3    3  502    0 -0.24927928161E+02 -0.41171951903E+02  0.26940313524E+02  0.55357038565E+02  0.47000000000E+01 0. -1.
        -13    1    4    4    0    0 -0.22621467862E+01  0.18979309792E+02  0.30033069521E+00  0.19116006559E+02  0.00000000000E+00 0.  1.
         14    1    4    4    0    0  0.50268060370E+02  0.49863141943E+02  0.20402854190E+03  0.21596494328E+03  0.00000000000E+00 0. -1.
         -5    1    5    5    0  501 -0.39323595227E+02 -0.15242128878E+02  0.32810507405E+02  0.53640348903E+02  0.47000000000E+01 0.  1.
         11    1    6    6    0    0  0.33092337641E+01 -0.28027937910E+02  0.92844660530E+02  0.97039411172E+02  0.00000000000E+00 0. -1.
        -12    1    6    6    0    0  0.12936376041E+02  0.15599566956E+02  0.47090303271E+03  0.47133890412E+03  0.00000000000E+00 0.  1.
</event>
<event>
12    1  0.2689284E-002  0.2683026E+03  0.7818608E-02  0.1102255E+00
         -2   -1    0    0    0  501 -0.00000000000E+00  0.00000000000E+00  0.26709500374E+02  0.26709500374E+02  0.00000000000E+00 0.  1.
          2   -1    0    0  502    0  0.00000000000E+00 -0.00000000000E+00 -0.28237739520E+04  0.28237739520E+04  0.00000000000E+00 0. -1.
          6    2    1    2  502    0 -0.17359719286E+03 -0.11082611652E+03 -0.10940936232E+04  0.11264984419E+04  0.17187050262E+03 0.  0.
         24    2    3    3    0    0 -0.97578353612E+02 -0.26465735611E+02 -0.81261731890E+03  0.82294196000E+03  0.81636954210E+02 0.  0.
         -6    2    1    2    0  501  0.17359719286E+03  0.11082611652E+03 -0.17029708284E+04  0.17239850105E+04  0.17203563759E+03 0.  0.
        -24    2    5    5    0    0  0.11475300924E+03  0.13695002757E+03 -0.10632812726E+04  0.10810465107E+04  0.78555270720E+02 0.  0.
          5    1    3    3  502    0 -0.76018839247E+02 -0.84360380912E+02 -0.28147630434E+03  0.30355648189E+03  0.47000000000E+01 0. -1.
        -13    1    4    4    0    0 -0.79594526660E+02  0.18144419313E+02 -0.48823792882E+03  0.49501594294E+03  0.00000000000E+00 0.  1.
         14    1    4    4    0    0 -0.17983826952E+02 -0.44610154924E+02 -0.32437939009E+03  0.32792601707E+03  0.00000000000E+00 0. -1.
         -5    1    5    5    0  501  0.58844183618E+02 -0.26123911043E+02 -0.63968955579E+03  0.64293849975E+03  0.47000000000E+01 0.  1.
         11    1    6    6    0    0 -0.70959403703E+01  0.70415417465E+01 -0.16355290143E+03  0.16385813147E+03  0.00000000000E+00 0. -1.
        -12    1    6    6    0    0  0.12184894961E+03  0.12990848582E+03 -0.89972837115E+03  0.91718837927E+03  0.00000000000E+00 0.  1.
</event>
<event>
12    1  0.2689284E-002  0.2637518E+03  0.7818608E-02  0.1104910E+00
          2   -1    0    0  502    0  0.00000000000E+00  0.00000000000E+00  0.10068005212E+04  0.10068005212E+04  0.00000000000E+00 0.  1.
         -2   -1    0    0    0  501 -0.00000000000E+00 -0.00000000000E+00 -0.73995016887E+02  0.73995016887E+02  0.00000000000E+00 0. -1.
          6    2    1    2  502    0  0.22020160808E+02  0.19882811749E+03  0.60557462832E+03  0.66054602448E+03  0.17199683778E+03 0.  0.
         24    2    3    3    0    0 -0.44154660830E+02  0.70439357985E+02  0.33806959579E+03  0.35650028283E+03  0.76746744789E+02 0.  0.
         -6    2    1    2    0  501 -0.22020160808E+02 -0.19882811749E+03  0.32723087603E+03  0.42024951364E+03  0.17179086036E+03 0.  0.
        -24    2    5    5    0    0 -0.70037284395E+02 -0.70821690594E+02  0.18006013687E+03  0.21932015802E+03  0.75886400381E+02 0.  0.
          5    1    3    3  502    0  0.66174821638E+02  0.12838875950E+03  0.26750503253E+03  0.30404574165E+03  0.47000000000E+01 0. -1.
        -13    1    4    4    0    0 -0.39787990727E+02  0.43223224010E+01  0.72753297750E+02  0.83034986665E+02  0.00000000000E+00 0.  1.
         14    1    4    4    0    0 -0.43666701037E+01  0.66117035584E+02  0.26531629804E+03  0.27346529617E+03  0.00000000000E+00 0. -1.
         -5    1    5    5    0  501  0.48017123587E+02 -0.12800642690E+03  0.14717073916E+03  0.20092935562E+03  0.47000000000E+01 0.  1.
         11    1    6    6    0    0 -0.32254430393E+02 -0.40242320469E+02  0.15750756985E+03  0.16573601659E+03  0.00000000000E+00 0. -1.
        -12    1    6    6    0    0 -0.37782854003E+02 -0.30579370124E+02  0.22552567021E+02  0.53584141432E+02  0.00000000000E+00 0.  1.
</event>
<event>
12    1  0.2689284E-002  0.2720786E+03  0.7818608E-02  0.1100096E+00
          1   -1    0    0  502    0  0.00000000000E+00  0.00000000000E+00  0.61627161800E+03  0.61627161800E+03  0.00000000000E+00 0.  1.
         -1   -1    0    0    0  501 -0.00000000000E+00 -0.00000000000E+00 -0.12091878057E+03  0.12091878057E+03  0.00000000000E+00 0. -1.
          6    2    1    2  502    0 -0.20867996614E+03 -0.46068989869E+02  0.27840151609E+03  0.38989127537E+03  0.16981790941E+03 0.  0.
         24    2    3    3    0    0 -0.10169306595E+03 -0.33254906615E+02  0.24147724287E+03  0.27589176004E+03  0.79734785133E+02 0.  0.
         -6    2    1    2    0  501  0.20867996614E+03  0.46068989869E+02  0.21695132135E+03  0.34729912320E+03  0.16697043164E+03 0.  0.
        -24    2    5    5    0    0  0.42069854648E+02  0.19098351545E+02  0.24044010565E+02  0.90936752446E+02  0.74543670419E+02 0.  0.
          5    1    3    3  502    0 -0.10698690019E+03 -0.12814083254E+02  0.36924273219E+02  0.11399951533E+03  0.47000000000E+01 0. -1.
        -11    1    4    4    0    0 -0.94913365766E+02 -0.40736051269E+02  0.14033372818E+03  0.17424559719E+03  0.00000000000E+00 0.  1.
         12    1    4    4    0    0 -0.67797001814E+01  0.74811446538E+01  0.10114351468E+03  0.10164616285E+03  0.00000000000E+00 0. -1.
         -5    1    5    5    0  501  0.16661011149E+03  0.26970638324E+02  0.19290731078E+03  0.25636237075E+03  0.47000000000E+01 0.  1.
         11    1    6    6    0    0  0.62859271290E+02  0.66897315046E+01  0.14127898877E+02  0.64773744846E+02  0.00000000000E+00 0. -1.
        -12    1    6    6    0    0 -0.20789416642E+02  0.12408620041E+02  0.99161116885E+01  0.26163007600E+02  0.00000000000E+00 0.  1.
</event>
<event>
12    1  0.2689284E-002  0.2813488E+03  0.7818608E-02  0.1094955E+00
         -2   -1    0    0    0  501 -0.00000000000E+00  0.00000000000E+00  0.42707940368E+03  0.42707940368E+03  0.00000000000E+00 0.  1.
          2   -1    0    0  502    0  0.00000000000E+00 -0.00000000000E+00 -0.19242212014E+03  0.19242212014E+03  0.00000000000E+00 0. -1.
          6    2    1    2  502    0 -0.21243503886E+03 -0.65261973789E+02  0.58225118351E+02  0.28802759835E+03  0.17372956584E+03 0.  0.
         24    2    3    3    0    0 -0.23497270451E+03 -0.59165451830E+02  0.66160593725E+02  0.26292429733E+03  0.77712543440E+02 0.  0.
         -6    2    1    2    0  501  0.21243503886E+03  0.65261973789E+02  0.17643216519E+03  0.33147392547E+03  0.17134434161E+03 0.  0.
        -24    2    5    5    0    0  0.14736958358E+03  0.10453597958E+03  0.97015033340E+02  0.22145060144E+03  0.83563670282E+02 0.  0.
          5    1    3    3  502    0  0.22537665651E+02 -0.60965219584E+01 -0.79354753742E+01  0.25103301026E+02  0.47000000000E+01 0. -1.
        -13    1    4    4    0    0 -0.24058762866E+02  0.86647805835E+01  0.28331562963E+02  0.38165166750E+02  0.00000000000E+00 0.  1.
         14    1    4    4    0    0 -0.21091394164E+03 -0.67830232414E+02  0.37829030763E+02  0.22475913058E+03  0.00000000000E+00 0. -1.
         -5    1    5    5    0  501  0.65065455278E+02 -0.39274005794E+02  0.79417131847E+02  0.11002332404E+03  0.47000000000E+01 0.  1.
         11    1    6    6    0    0  0.13197548208E+03  0.55067914063E+02  0.50007462906E+02  0.15149504737E+03  0.00000000000E+00 0. -1.
        -12    1    6    6    0    0  0.15394101496E+02  0.49468065520E+02  0.47007570433E+02  0.69955554070E+02  0.00000000000E+00 0.  1.
</event>
<event>
12    1  0.2689284E-002  0.1906291E+03  0.7818608E-02  0.1157895E+00
          2   -1    0    0  502    0  0.00000000000E+00  0.00000000000E+00  0.53680213201E+03  0.53680213201E+03  0.00000000000E+00 0. -1.
         -2   -1    0    0    0  501 -0.00000000000E+00 -0.00000000000E+00 -0.73060858244E+02  0.73060858244E+02  0.00000000000E+00 0.  1.
          6    2    1    2  502    0  0.71729377021E+02 -0.36339360505E+02  0.31333177889E+03  0.36623605892E+03  0.17171602879E+03 0.  0.
         24    2    3    3    0    0  0.30949482893E+02  0.36869775224E+02  0.10169210086E+03  0.13856080634E+03  0.80873746430E+02 0.  0.
         -6    2    1    2    0  501 -0.71729377021E+02  0.36339360505E+02  0.15040949487E+03  0.24362693133E+03  0.17396957455E+03 0.  0.
        -24    2    5    5    0    0 -0.38142978629E+02 -0.35558375175E+02  0.13164707491E+03  0.16194799306E+03  0.78593353797E+02 0.  0.
          5    1    3    3  502    0  0.40779894128E+02 -0.73209135730E+02  0.21163967803E+03  0.22767525258E+03  0.47000000000E+01 0. -1.
        -13    1    4    4    0    0 -0.14161595428E+02 -0.72116483055E+01 -0.31570288577E+01  0.16202638290E+02  0.00000000000E+00 0.  1.
         14    1    4    4    0    0  0.45111078321E+02  0.44081423530E+02  0.10484912971E+03  0.12235816805E+03  0.00000000000E+00 0. -1.
         -5    1    5    5    0  501 -0.33586398392E+02  0.71897735681E+02  0.18762419961E+02  0.81678938263E+02  0.47000000000E+01 0.  1.
         11    1    6    6    0    0 -0.18254632268E+02  0.10636564614E+02  0.10070588229E+03  0.10289821590E+03  0.00000000000E+00 0. -1.
        -12    1    6    6    0    0 -0.19888346360E+02 -0.46194939789E+02  0.30941192618E+02  0.59049777169E+02  0.00000000000E+00 0.  1.
</event>
<event>
12    1  0.2689284E-002  0.3270967E+03  0.7818608E-02  0.1072429E+00
         -2   -1    0    0    0  501 -0.00000000000E+00  0.00000000000E+00  0.16228879181E+04  0.16228879181E+04  0.00000000000E+00 0.  1.
          2   -1    0    0  502    0  0.00000000000E+00 -0.00000000000E+00 -0.84742640376E+02  0.84742640376E+02  0.00000000000E+00 0. -1.
          6    2    1    2  502    0  0.22591702655E+03  0.16366474944E+03  0.36514618552E+03  0.48964146538E+03  0.16909279916E+03 0.  0.
         24    2    3    3    0    0  0.23911683647E+03  0.14985816761E+03  0.36712198657E+03  0.46987152676E+03  0.79789515312E+02 0.  0.
         -6    2    1    2    0  501 -0.22591702655E+03 -0.16366474944E+03  0.11729990922E+04  0.12179890931E+04  0.17247001910E+03 0.  0.
        -24    2    5    5    0    0 -0.23368876935E+03 -0.11094845056E+03  0.10412927644E+04  0.10758340547E+04  0.78792718501E+02 0.  0.
          5    1    3    3  502    0 -0.13199809912E+02  0.13806581827E+02 -0.19758010496E+01  0.19769938626E+02  0.47000000000E+01 0. -1.
        -11    1    4    4    0    0  0.17335731700E+03  0.10945598929E+03  0.20304670435E+03  0.28855040651E+03  0.00000000000E+00 0.  1.
         12    1    4    4    0    0  0.65759519468E+02  0.40402178320E+02  0.16407528221E+03  0.18132112025E+03  0.00000000000E+00 0. -1.
         -5    1    5    5    0  501  0.77717427993E+01 -0.52716298875E+02  0.13170632785E+03  0.14215503842E+03  0.47000000000E+01 0.  1.
         13    1    6    6    0    0 -0.21056163108E+03 -0.67391024080E+02  0.84592300794E+03  0.87433602578E+03  0.00000000000E+00 0. -1.
        -14    1    6    6    0    0 -0.23127138270E+02 -0.43557426482E+02  0.19536975642E+03  0.20149802890E+03  0.00000000000E+00 0.  1.
</event>
<event>
12    1  0.2689284E-002  0.3267576E+03  0.7818608E-02  0.1072581E+00
         -2   -1    0    0    0  501 -0.00000000000E+00  0.00000000000E+00  0.11593964628E+04  0.11593964628E+04  0.00000000000E+00 0. -1.
          2   -1    0    0  502    0  0.00000000000E+00 -0.00000000000E+00 -0.11612611641E+03  0.11612611641E+03  0.00000000000E+00 0.  1.
          6    2    1    2  502    0  0.27856374791E+03  0.55282696281E+01  0.81076991939E+03  0.87384281496E+03  0.16918947856E+03 0.  0.
         24    2    3    3    0    0  0.16199146217E+03  0.56154147795E+02  0.58318798040E+03  0.61313664645E+03  0.80211000573E+02 0.  0.
         -6    2    1    2    0  501 -0.27856374791E+03 -0.55282696281E+01  0.23250042704E+03  0.40167976430E+03  0.17222619156E+03 0.  0.
        -24    2    5    5    0    0 -0.23559088231E+03 -0.50575924771E+02  0.13942026941E+03  0.28959959586E+03  0.79805553732E+02 0.  0.
          5    1    3    3  502    0  0.11657228573E+03 -0.50625878167E+02  0.22758193900E+03  0.26070616851E+03  0.47000000000E+01 0. -1.
        -11    1    4    4    0    0  0.10482645019E+03  0.26850234193E+02  0.23037669086E+03  0.25452492889E+03  0.00000000000E+00 0.  1.
         12    1    4    4    0    0  0.57165011980E+02  0.29303913601E+02  0.35281128953E+03  0.35861171756E+03  0.00000000000E+00 0. -1.
         -5    1    5    5    0  501 -0.42972865596E+02  0.45047655143E+02  0.93080157634E+02  0.11208016844E+03  0.47000000000E+01 0.  1.
         11    1    6    6    0    0 -0.27343587906E+02 -0.33000120495E+02  0.38111326749E+02  0.57351137554E+02  0.00000000000E+00 0. -1.
        -12    1    6    6    0    0 -0.20824729441E+03 -0.17575804277E+02  0.10130894266E+03  0.23224845831E+03  0.00000000000E+00 0.  1.
</event>
<event>
12    1  0.2689284E-002  0.2138721E+03  0.7818608E-02  0.1138536E+00
         -2   -1    0    0    0  501 -0.00000000000E+00  0.00000000000E+00  0.58056723083E+02  0.58056723083E+02  0.00000000000E+00 0.  1.
          2   -1    0    0  502    0  0.00000000000E+00 -0.00000000000E+00 -0.82713567346E+03  0.82713567346E+03  0.00000000000E+00 0. -1.
          6    2    1    2  502    0 -0.83337289155E+02 -0.94563370850E+02 -0.29093945736E+03  0.36205609268E+03  0.17478990684E+03 0.  0.
         24    2    3    3    0    0  0.96887592837E+00  0.76889493321E+01 -0.81426264238E+02  0.11410259998E+03  0.79555692140E+02 0.  0.
         -6    2    1    2    0  501  0.83337289155E+02  0.94563370850E+02 -0.47813949302E+03  0.52313630386E+03  0.17078314542E+03 0.  0.
        -24    2    5    5    0    0  0.72173872370E+02  0.10628450146E+03 -0.48239246125E+03  0.50575284862E+03  0.81104834085E+02 0.  0.
          5    1    3    3  502    0 -0.84306165083E+02 -0.10225232018E+03 -0.20951319312E+03  0.24795349270E+03  0.47000000000E+01 0. -1.
        -13    1    4    4    0    0 -0.12168406684E+02  0.18806477918E+02 -0.91472261902E+02  0.94174988348E+02  0.00000000000E+00 0.  1.
         14    1    4    4    0    0  0.13137282613E+02 -0.11117528586E+02  0.10045997663E+02  0.19927611632E+02  0.00000000000E+00 0. -1.
         -5    1    5    5    0  501  0.11163416784E+02 -0.11721130613E+02  0.42529682322E+01  0.17383455236E+02  0.47000000000E+01 0.  1.
         11    1    6    6    0    0 -0.88457999088E+01  0.44453206301E+02 -0.96269802296E+02  0.10640587653E+03  0.00000000000E+00 0. -1.
        -12    1    6    6    0    0  0.81019672279E+02  0.61831295162E+02 -0.38612265896E+03  0.39934697209E+03  0.00000000000E+00 0.  1.
</event>
<event>
12    1  0.2689284E-002  0.2313543E+03  0.7818608E-02  0.1125690E+00
         -1   -1    0    0    0  501 -0.00000000000E+00  0.00000000000E+00  0.58158037366E+02  0.58158037366E+02  0.00000000000E+00 0. -1.
          1   -1    0    0  502    0  0.00000000000E+00 -0.00000000000E+00 -0.13420750083E+04  0.13420750083E+04  0.00000000000E+00 0.  1.
          6    2    1    2  502    0  0.14995225994E+03 -0.43259321490E+02 -0.25080978616E+03  0.34168852882E+03  0.17172202171E+03 0.  0.
         24    2    3    3    0    0  0.16244567371E+03  0.41230464137E+01 -0.16821483177E+03  0.24553661430E+03  0.74742243177E+02 0.  0.
         -6    2    1    2    0  501 -0.14995225994E+03  0.43259321490E+02 -0.10331071848E+04  0.10585445168E+04  0.16984990359E+03 0.  0.
        -24    2    5    5    0    0 -0.17367382186E+02  0.17166850516E+02 -0.57261002158E+03  0.57860775626E+03  0.79425260892E+02 0.  0.
          5    1    3    3  502    0 -0.12493413770E+02 -0.47382367904E+02 -0.82594954395E+02  0.96151914528E+02  0.47000000000E+01 0. -1.
        -13    1    4    4    0    0  0.82746566615E+02  0.17219791393E+02 -0.13264324898E+03  0.15728237982E+03  0.00000000000E+00 0.  1.
         14    1    4    4    0    0  0.79699107095E+02 -0.13096744979E+02 -0.35571582785E+02  0.88254234474E+02  0.00000000000E+00 0. -1.
         -5    1    5    5    0  501 -0.13258487775E+03  0.26092470974E+02 -0.46049716319E+03  0.47993676058E+03  0.47000000000E+01 0.  1.
         13    1    6    6    0    0 -0.32570348212E+02  0.63283953110E+01 -0.94900081922E+02  0.10053308768E+03  0.00000000000E+00 0. -1.
        -14    1    6    6    0    0  0.15202966026E+02  0.10838455205E+02 -0.47770993966E+03  0.47807466858E+03  0.00000000000E+00 0.  1.
</event>
<event>
12    1  0.2689284E-002  0.2122195E+03  0.7818608E-02  0.1139820E+00
         -3   -1    0    0    0  501 -0.00000000000E+00  0.00000000000E+00  0.33937497448E+03  0.33937497448E+03  0.00000000000E+00 0.  1.
          3   -1    0    0  502    0  0.00000000000E+00 -0.00000000000E+00 -0.14247576211E+03  0.14247576211E+03  0.00000000000E+00 0. -1.
          6    2    1    2  502    0 -0.11194449273E+03  0.44620994574E+02  0.16114269352E+03  0.26575361558E+03  0.17359554692E+03 0.  0.
         24    2    3    3    0    0 -0.33989505829E+02  0.85373606448E+02  0.11224153491E+03  0.16500060733E+03  0.78632684535E+02 0.  0.
         -6    2    1    2    0  501  0.11194449273E+03 -0.44620994574E+02  0.35756518851E+02  0.21609712101E+03  0.17577495402E+03 0.  0.
        -24    2    5    5    0    0  0.99906651752E+01 -0.23537741214E+02 -0.34681162187E+02  0.90309031610E+02  0.79366866686E+02 0.  0.
          5    1    3    3  502    0 -0.77954986898E+02 -0.40752611874E+02  0.48901158614E+02  0.10075300825E+03  0.47000000000E+01 0. -1.
        -13    1    4    4    0    0 -0.42478509125E+02  0.18934790089E+02  0.75314275220E+02  0.88516608979E+02  0.00000000000E+00 0.  1.
         14    1    4    4    0    0  0.84890032957E+01  0.66438816360E+02  0.36927259691E+02  0.76483998356E+02  0.00000000000E+00 0. -1.
         -5    1    5    5    0  501  0.10195382755E+03 -0.21083253360E+02  0.70437681038E+02  0.12578808940E+03  0.47000000000E+01 0.  1.
         11    1    6    6    0    0 -0.24690560802E+02  0.15451494942E+02 -0.22287155807E+02  0.36675465950E+02  0.00000000000E+00 0. -1.
        -12    1    6    6    0    0  0.34681225977E+02 -0.38989236156E+02 -0.12394006380E+02  0.53633565660E+02  0.00000000000E+00 0.  1.
</event>
<event>
12    1  0.2689284E-002  0.2041238E+03  0.7818608E-02  0.1146306E+00
         -2   -1    0    0    0  501 -0.00000000000E+00  0.00000000000E+00  0.14836547425E+02  0.14836547425E+02  0.00000000000E+00 0.  1.
          2   -1    0    0  502    0  0.00000000000E+00 -0.00000000000E+00 -0.28123509706E+04  0.28123509706E+04  0.00000000000E+00 0. -1.
          6    2    1    2  502    0 -0.10912112593E+03 -0.37534070105E+01 -0.14540481460E+04  0.14683499899E+04  0.17284147044E+03 0.  0.
         24    2    3    3    0    0 -0.10027173022E+03 -0.12418916065E+02 -0.14481828856E+04  0.14538622665E+04  0.79203348440E+02 0.  0.
         -6    2    1    2    0  501  0.10912112593E+03  0.37534070105E+01 -0.13434662772E+04  0.13588375281E+04  0.17209381632E+03 0.  0.
        -24    2    5    5    0    0  0.82096904077E+02 -0.30367570530E+02 -0.48591442568E+03  0.50016889719E+03  0.79962526405E+02 0.  0.
          5    1    3    3  502    0 -0.88493957111E+01  0.86655090543E+01 -0.58652604017E+01  0.14487723465E+02  0.47000000000E+01 0. -1.
        -13    1    4    4    0    0  0.44724625165E+01 -0.90538148065E+00 -0.46961746445E+03  0.46963963372E+03  0.00000000000E+00 0.  1.
         14    1    4    4    0    0 -0.10474419274E+03 -0.11513534584E+02 -0.97856542114E+03  0.98422263276E+03  0.00000000000E+00 0. -1.
         -5    1    5    5    0  501  0.27024221854E+02  0.34120977541E+02 -0.85755185151E+03  0.85866863091E+03  0.47000000000E+01 0.  1.
         13    1    6    6    0    0  0.78564599295E+01 -0.42317316859E+02 -0.15951332111E+03  0.16521797384E+03  0.00000000000E+00 0. -1.
        -14    1    6    6    0    0  0.74240444147E+02  0.11949746329E+02 -0.32640110458E+03  0.33495092335E+03  0.00000000000E+00 0.  1.
</event>
<event>
12    1  0.2689284E-002  0.1905584E+03  0.7818608E-02  0.1157959E+00
          1   -1    0    0  502    0  0.00000000000E+00  0.00000000000E+00  0.97120713066E+03  0.97120713066E+03  0.00000000000E+00 0.  1.
         -1   -1    0    0    0  501 -0.00000000000E+00 -0.00000000000E+00 -0.40313162772E+02  0.40313162772E+02  0.00000000000E+00 0. -1.
          6    2    1    2  502    0 -0.68386085325E+02 -0.40539673861E+02  0.60323298613E+03  0.63282722528E+03  0.17395441838E+03 0.  0.
         24    2    3    3    0    0 -0.49264340347E+02 -0.92765636538E+02  0.36618098273E+03  0.38929296768E+03  0.80175208258E+02 0.  0.
         -6    2    1    2    0  501  0.68386085325E+02  0.40539673861E+02  0.32766098176E+03  0.37869306815E+03  0.17241403388E+03 0.  0.
        -24    2    5    5    0    0  0.20644194408E+01  0.87981837839E+01  0.15387885299E+03  0.18993819050E+03  0.11097812824E+03 0.  0.
          5    1    3    3  502    0 -0.19121744978E+02  0.52225962677E+02  0.23705200339E+03  0.24353425759E+03  0.47000000000E+01 0. -1.
        -13    1    4    4    0    0  0.17000362846E+01 -0.33373451308E+02  0.22844207255E+03  0.23087325069E+03  0.00000000000E+00 0.  1.
         14    1    4    4    0    0 -0.50964376632E+02 -0.59392185230E+02  0.13773891018E+03  0.15841971699E+03  0.00000000000E+00 0. -1.
         -5    1    5    5    0  501  0.66321665885E+02  0.31741490078E+02  0.17378212877E+03  0.18875487765E+03  0.47000000000E+01 0.  1.
         11    1    6    6    0    0 -0.97160866442E+00  0.49261383876E+02  0.25865010910E+02  0.55647342741E+02  0.00000000000E+00 0. -1.
        -12    1    6    6    0    0  0.30360281052E+01 -0.40463200092E+02  0.12801384208E+03  0.13429084776E+03  0.00000000000E+00 0.  1.
</event>
<event>
12    1  0.2689284E-002  0.1881979E+03  0.7818608E-02  0.1160097E+00
         -2   -1    0    0    0  501 -0.00000000000E+00  0.00000000000E+00  0.11378860875E+03  0.11378860875E+03  0.00000000000E+00 0.  1.
          2   -1    0    0  502    0  0.00000000000E+00 -0.00000000000E+00 -0.38534178900E+03  0.38534178900E+03  0.00000000000E+00 0. -1.
          6    2    1    2  502    0  0.84557774094E+02  0.37770419061E+02 -0.22716309011E+02  0.18287285526E+03  0.15604431671E+03 0.  0.
         24    2    3    3    0    0  0.35898378586E+00 -0.14443960714E+02 -0.44562245581E+00  0.81217303394E+02  0.79920553806E+02 0.  0.
         -6    2    1    2    0  501 -0.84557774094E+02 -0.37770419061E+02 -0.24883687124E+03  0.31625754250E+03  0.17182090380E+03 0.  0.
        -24    2    5    5    0    0  0.18177985735E+02  0.39524487729E+01 -0.13712445032E+03  0.15878631009E+03  0.77871152421E+02 0.  0.
          5    1    3    3  502    0  0.84198790308E+02  0.52214379775E+02 -0.22270686556E+02  0.10165555186E+03  0.47000000000E+01 0. -1.
        -13    1    4    4    0    0  0.14513023725E+02  0.59134772003E+01  0.34775877954E+02  0.38143921635E+02  0.00000000000E+00 0.  1.
         14    1    4    4    0    0 -0.14154039939E+02 -0.20357437914E+02 -0.35221500410E+02  0.43073381759E+02  0.00000000000E+00 0. -1.
         -5    1    5    5    0  501 -0.10273575983E+03 -0.41722867834E+02 -0.11171242092E+03  0.15747123241E+03  0.47000000000E+01 0.  1.
         13    1    6    6    0    0 -0.14232974706E+02 -0.20985112263E+02 -0.10128155614E+03  0.10440740452E+03  0.00000000000E+00 0. -1.
        -14    1    6    6    0    0  0.32410960441E+02  0.24937561036E+02 -0.35842894185E+02  0.54378905567E+02  0.00000000000E+00 0.  1.
</event>
<event>
12    1  0.2689284E-002  0.1995443E+03  0.7818608E-02  0.1150124E+00
          1   -1    0    0  502    0  0.00000000000E+00  0.00000000000E+00  0.11511125800E+04  0.11511125800E+04  0.00000000000E+00 0. -1.
         -1   -1    0    0    0  501 -0.00000000000E+00 -0.00000000000E+00 -0.44104703452E+02  0.44104703452E+02  0.00000000000E+00 0.  1.
          6    2    1    2  502    0  0.25636788190E+01 -0.10056843272E+03  0.83153124672E+03  0.85518913640E+03  0.17257943860E+03 0.  0.
         24    2    3    3    0    0 -0.86790450088E+01 -0.12213139787E+02  0.62422449838E+03  0.62950964124E+03  0.80010483220E+02 0.  0.
         -6    2    1    2    0  501 -0.25636788190E+01  0.10056843272E+03  0.27547662983E+03  0.34002814706E+03  0.17207900831E+03 0.  0.
        -24    2    5    5    0    0 -0.36001704845E+02  0.12789192576E+03  0.21870202389E+03  0.26854303856E+03  0.81439062385E+02 0.  0.
          5    1    3    3  502    0  0.11242723828E+02 -0.88355292933E+02  0.20730674834E+03  0.22567949516E+03  0.47000000000E+01 0. -1.
        -11    1    4    4    0    0 -0.36244212831E+02  0.22960953884E+01  0.15277775362E+03  0.15703489108E+03  0.00000000000E+00 0.  1.
         12    1    4    4    0    0  0.27565167822E+02 -0.14509235175E+02  0.47144674476E+03  0.47247475015E+03  0.00000000000E+00 0. -1.
         -5    1    5    5    0  501  0.33438026026E+02 -0.27323493042E+02  0.56774605940E+02  0.71485108492E+02  0.47000000000E+01 0.  1.
         13    1    6    6    0    0 -0.35463626391E+02  0.13243165974E+03  0.22331993884E+03  0.26204505029E+03  0.00000000000E+00 0. -1.
        -14    1    6    6    0    0 -0.53807845424E+00 -0.45397339834E+01 -0.46179149527E+01  0.64979882713E+01  0.00000000000E+00 0.  1.
</event>
<event>
12    1  0.2689284E-002  0.2003476E+03  0.7818608E-02  0.1149446E+00
         -1   -1    0    0    0  501 -0.00000000000E+00  0.00000000000E+00  0.29976860435E+02  0.29976860435E+02  0.00000000000E+00 0. -1.
          1   -1    0    0  502    0  0.00000000000E+00 -0.00000000000E+00 -0.22648456582E+04  0.22648456582E+04  0.00000000000E+00 0.  1.
          6    2    1    2  502    0  0.71647464322E+02  0.73107323223E+02 -0.38357624862E+03  0.43271271577E+03  0.17213807258E+03 0.  0.
         24    2    3    3    0    0 -0.22297070573E+02  0.43442195774E+02 -0.24950476968E+03  0.26627099358E+03  0.79140559740E+02 0.  0.
         -6    2    1    2    0  501 -0.71647464322E+02 -0.73107323223E+02 -0.18512925491E+04  0.18621098029E+04  0.17231011446E+03 0.  0.
        -24    2    5    5    0    0 -0.32991896446E+02 -0.88403501186E+02 -0.76224581203E+03  0.77225976198E+03  0.80391652333E+02 0.  0.
          5    1    3    3  502    0  0.93944534895E+02  0.29665127449E+02 -0.13407147894E+03  0.16644172220E+03  0.47000000000E+01 0. -1.
        -13    1    4    4    0    0 -0.19973010667E+02  0.55513678068E+02 -0.98863614091E+02  0.11512907452E+03  0.00000000000E+00 0.  1.
         14    1    4    4    0    0 -0.23240599055E+01 -0.12071482295E+02 -0.15064115559E+03  0.15114191906E+03  0.00000000000E+00 0. -1.
         -5    1    5    5    0  501 -0.38655567875E+02  0.15296177963E+02 -0.10890467371E+04  0.10898500409E+04  0.47000000000E+01 0.  1.
         11    1    6    6    0    0 -0.49483587524E+01  0.95930053151E+01 -0.23521632005E+03  0.23546385970E+03  0.00000000000E+00 0. -1.
        -12    1    6    6    0    0 -0.28043537694E+02 -0.97996506501E+02 -0.52702949197E+03  0.53679590228E+03  0.00000000000E+00 0.  1.
</event>
<event>
12    1  0.2689284E-002  0.2040531E+03  0.7818608E-02  0.1146364E+00
         -2   -1    0    0    0  501 -0.00000000000E+00  0.00000000000E+00  0.21644157533E+02  0.21644157533E+02  0.00000000000E+00 0. -1.
          2   -1    0    0  502    0  0.00000000000E+00 -0.00000000000E+00 -0.19251725633E+04  0.19251725633E+04  0.00000000000E+00 0.  1.
          6    2    1    2  502    0  0.35321622707E+02  0.93283729578E+02 -0.98886200976E+03  0.10105459159E+04  0.18277172271E+03 0.  0.
         24    2    3    3    0    0 -0.26040660130E+02  0.82654340478E+02 -0.84902867861E+03  0.85739969767E+03  0.82308495795E+02 0.  0.
         -6    2    1    2    0  501 -0.35321622707E+02 -0.93283729578E+02 -0.91466639604E+03  0.93627080494E+03  0.17331743390E+03 0.  0.
        -24    2    5    5    0    0 -0.32388701672E+02 -0.17508940404E+02 -0.21147753325E+03  0.22898932812E+03  0.79735652825E+02 0.  0.
          5    1    3    3  502    0  0.61362282837E+02  0.10629389100E+02 -0.13983333115E+03  0.15314621826E+03  0.47000000000E+01 0. -1.
        -11    1    4    4    0    0 -0.45316992461E+01  0.13903238620E+02 -0.53558421775E+03  0.53578380961E+03  0.00000000000E+00 0.  1.
         12    1    4    4    0    0 -0.21508960884E+02  0.68751101858E+02 -0.31344446086E+03  0.32161588805E+03  0.00000000000E+00 0. -1.
         -5    1    5    5    0  501 -0.29329210347E+01 -0.75774789174E+02 -0.70318886279E+03  0.70728147682E+03  0.47000000000E+01 0.  1.
         11    1    6    6    0    0  0.20997281722E+02 -0.13356231196E+02 -0.26223732734E+02  0.36151886673E+02  0.00000000000E+00 0. -1.
        -12    1    6    6    0    0 -0.53385983394E+02 -0.41527092080E+01 -0.18525380052E+03  0.19283744145E+03  0.00000000000E+00 0.  1.
</event>
<event>
12    1  0.2689284E-002  0.2021627E+03  0.7818608E-02  0.1147927E+00
         -1   -1    0    0    0  501 -0.00000000000E+00  0.00000000000E+00  0.33804231617E+03  0.33804231617E+03  0.00000000000E+00 0.  1.
          1   -1    0    0  502    0  0.00000000000E+00 -0.00000000000E+00 -0.12109927955E+03  0.12109927955E+03  0.00000000000E+00 0. -1.
          6    2    1    2  502    0 -0.10418783976E+03  0.21838399022E+02  0.99188223118E+02  0.22518230388E+03  0.17186257519E+03 0.  0.
         24    2    3    3    0    0  0.13475805750E+02  0.50240172712E+01  0.43560926290E+02  0.93866108911E+02  0.81892942387E+02 0.  0.
         -6    2    1    2    0  501  0.10418783976E+03 -0.21838399022E+02  0.11775481350E+03  0.23395929184E+03  0.17186835808E+03 0.  0.
        -24    2    5    5    0    0  0.11211092732E+03 -0.49049256878E+02  0.13567350752E+03  0.20010112152E+03  0.81599439745E+02 0.  0.
          5    1    3    3  502    0 -0.11766364551E+03  0.16814381751E+02  0.55627296828E+02  0.13131619497E+03  0.47000000000E+01 0. -1.
        -11    1    4    4    0    0 -0.26438740533E+02  0.24893495110E+02  0.30452485313E+02  0.47392477900E+02  0.00000000000E+00 0.  1.
         12    1    4    4    0    0  0.39914546282E+02 -0.19869477839E+02  0.13108440977E+02  0.46473631011E+02  0.00000000000E+00 0. -1.
         -5    1    5    5    0  501 -0.79230875582E+01  0.27210857856E+02 -0.17918694024E+02  0.33858170317E+02  0.47000000000E+01 0.  1.
         11    1    6    6    0    0  0.40299099244E+02  0.25531774425E+01  0.27803646475E+01  0.40475505463E+02  0.00000000000E+00 0. -1.
        -12    1    6    6    0    0  0.71811828076E+02 -0.51602434320E+02  0.13289314288E+03  0.15962561606E+03  0.00000000000E+00 0.  1.
</event>
<event>
12    1  0.2689284E-002  0.1814718E+03  0.7818608E-02  0.1166386E+00
         -2   -1    0    0    0  501 -0.00000000000E+00  0.00000000000E+00  0.29612703255E+02  0.29612703255E+02  0.00000000000E+00 0. -1.
          2   -1    0    0  502    0  0.00000000000E+00 -0.00000000000E+00 -0.13181341373E+04  0.13181341373E+04  0.00000000000E+00 0.  1.
          6    2    1    2  502    0 -0.53708415915E+02  0.28188226654E+02 -0.37673856032E+03  0.41800848706E+03  0.17064578039E+03 0.  0.
         24    2    3    3    0    0 -0.84158748878E+02  0.36143500667E+02 -0.36399129591E+03  0.38372887341E+03  0.79806874009E+02 0.  0.
         -6    2    1    2    0  501  0.53708415915E+02 -0.28188226654E+02 -0.91178287374E+03  0.92973835351E+03  0.17142411462E+03 0.  0.
        -24    2    5    5    0    0  0.36976726328E+02 -0.21431926420E+02 -0.90575715640E+03  0.91014253000E+03  0.78337684344E+02 0.  0.
          5    1    3    3  502    0  0.30450332963E+02 -0.79552740123E+01 -0.12747264411E+02  0.34279613653E+02  0.47000000000E+01 0. -1.
        -13    1    4    4    0    0 -0.74012553890E+01  0.15970182561E+02 -0.20767174236E+03  0.20841635706E+03  0.00000000000E+00 0.  1.
         14    1    4    4    0    0 -0.76757493489E+02  0.20173318105E+02 -0.15631955354E+03  0.17531251635E+03  0.00000000000E+00 0. -1.
         -5    1    5    5    0  501  0.16731689587E+02 -0.67563002343E+01 -0.60257173366E+01  0.19595823501E+02  0.47000000000E+01 0.  1.
         13    1    6    6    0    0 -0.19892408215E+02  0.85855101133E+01 -0.35158190977E+03  0.35224885829E+03  0.00000000000E+00 0. -1.
        -14    1    6    6    0    0  0.56869134543E+02 -0.30017436533E+02 -0.55417524664E+03  0.55789367172E+03  0.00000000000E+00 0.  1.
</event>
<event>
12    1  0.2689284E-002  0.1735798E+03  0.7818608E-02  0.1174165E+00
         -2   -1    0    0    0  501 -0.00000000000E+00  0.00000000000E+00  0.39363373080E+02  0.39363373080E+02  0.00000000000E+00 0.  1.
          2   -1    0    0  502    0  0.00000000000E+00 -0.00000000000E+00 -0.80862853405E+03  0.80862853405E+03  0.00000000000E+00 0. -1.
          6    2    1    2  502    0 -0.21477125525E+01  0.98256681287E+01 -0.47987803590E+03  0.50987160223E+03  0.17200280522E+03 0.  0.
         24    2    3    3    0    0  0.55506538414E+02  0.33744212624E+02 -0.23328321861E+03  0.25545618733E+03  0.81345902602E+02 0.  0.
         -6    2    1    2    0  501  0.21477125525E+01 -0.98256681287E+01 -0.28938712508E+03  0.33812030490E+03  0.17458314925E+03 0.  0.
        -24    2    5    5    0    0 -0.17161416750E+02 -0.33995033892E+02 -0.29232175175E+03  0.30669256636E+03  0.84605834091E+02 0.  0.
          5    1    3    3  502    0 -0.57654250967E+02 -0.23918544495E+02 -0.24659481729E+03  0.25441541490E+03  0.47000000000E+01 0. -1.
        -13    1    4    4    0    0  0.43569013080E+02  0.58606951336E+02 -0.19537096404E+03  0.20857336176E+03  0.00000000000E+00 0.  1.
         14    1    4    4    0    0  0.11937525334E+02 -0.24862738712E+02 -0.37912254570E+02  0.46882825576E+02  0.00000000000E+00 0. -1.
         -5    1    5    5    0  501  0.19309129302E+02  0.24169365763E+02  0.29346266730E+01  0.31427738536E+02  0.47000000000E+01 0.  1.
         13    1    6    6    0    0 -0.42267696947E+02 -0.48056123176E+02 -0.20006415964E+03  0.21005146311E+03  0.00000000000E+00 0. -1.
        -14    1    6    6    0    0  0.25106280197E+02  0.14061089284E+02 -0.92257592110E+02  0.96641103259E+02  0.00000000000E+00 0.  1.
</event>
<event>
12    1  0.2689284E-002  0.2247365E+03  0.7818608E-02  0.1130400E+00
          2   -1    0    0  502    0  0.00000000000E+00  0.00000000000E+00  0.18283991208E+04  0.18283991208E+04  0.00000000000E+00 0. -1.
         -2   -1    0    0    0  501 -0.00000000000E+00 -0.00000000000E+00 -0.28608410821E+02  0.28608410821E+02  0.00000000000E+00 0.  1.
          6    2    1    2  502    0 -0.72119946053E+02 -0.12787031494E+03  0.73371414143E+03  0.76781798500E+03  0.17220892166E+03 0.  0.
         24    2    3    3    0    0 -0.30624772270E+02 -0.67820833254E+01  0.42544937641E+03  0.43400147158E+03  0.79788671584E+02 0.  0.
         -6    2    1    2    0  501  0.72119946053E+02  0.12787031494E+03  0.10660765686E+04  0.10891895466E+04  0.16811458707E+03 0.  0.
        -24    2    5    5    0    0  0.34258740621E+02  0.14522276953E+03  0.96276839616E+03  0.97770301362E+03  0.81956598899E+02 0.  0.
          5    1    3    3  502    0 -0.41495173783E+02 -0.12108823162E+03  0.30826476502E+03  0.33381651342E+03  0.47000000000E+01 0. -1.
        -13    1    4    4    0    0  0.21049773615E+02 -0.84408897404E+01  0.48707385957E+02  0.53728493703E+02  0.00000000000E+00 0.  1.
         14    1    4    4    0    0 -0.51674545885E+02  0.16588064149E+01  0.37674199046E+03  0.38027297788E+03  0.00000000000E+00 0. -1.
         -5    1    5    5    0  501  0.37861205432E+02 -0.17352454587E+02  0.10330817242E+03  0.11148653302E+03  0.47000000000E+01 0.  1.
         13    1    6    6    0    0  0.14587741445E+01  0.10883793216E+03  0.80979315317E+03  0.81707574583E+03  0.00000000000E+00 0. -1.
        -14    1    6    6    0    0  0.32799966476E+02  0.36384837372E+02  0.15297524299E+03  0.16062726779E+03  0.00000000000E+00 0.  1.
</event>
<event>
12    1  0.2689284E-002  0.2041638E+03  0.7818608E-02  0.1146273E+00
          2   -1    0    0  502    0  0.00000000000E+00  0.00000000000E+00  0.32001962116E+03  0.32001962116E+03  0.00000000000E+00 0.  1.
         -2   -1    0    0    0  501 -0.00000000000E+00 -0.00000000000E+00 -0.23492830112E+03  0.23492830112E+03  0.00000000000E+00 0. -1.
          6    2    1    2  502    0  0.11499458582E+02  0.10626016747E+03 -0.14235614003E+03  0.25096951290E+03  0.17690948267E+03 0.  0.
         24    2    3    3    0    0 -0.24424817390E+02  0.91055880483E+02 -0.24024870629E+02  0.12628549922E+03  0.80517624342E+02 0.  0.
         -6    2    1    2    0  501 -0.11499458582E+02 -0.10626016747E+03  0.22744746008E+03  0.30397840938E+03  0.17101773456E+03 0.  0.
        -24    2    5    5    0    0  0.13913025799E+02 -0.82854831270E+02  0.23557300446E+03  0.26817731168E+03  0.96777759401E+02 0.  0.
          5    1    3    3  502    0  0.35924275972E+02  0.15204286985E+02 -0.11833126941E+03  0.12468401367E+03  0.47000000000E+01 0. -1.
        -11    1    4    4    0    0 -0.30172191430E+02  0.17041136403E+02  0.19966372282E+02  0.39992717933E+02  0.00000000000E+00 0.  1.
         12    1    4    4    0    0  0.57473740393E+01  0.74014744081E+02 -0.43991242911E+02  0.86292781288E+02  0.00000000000E+00 0. -1.
         -5    1    5    5    0  501 -0.25412484381E+02 -0.23405336198E+02 -0.81255443863E+01  0.35801097700E+02  0.47000000000E+01 0.  1.
         13    1    6    6    0    0  0.22090438289E+02 -0.76026441618E+01  0.15827123386E+03  0.15998615918E+03  0.00000000000E+00 0. -1.
        -14    1    6    6    0    0 -0.81774124904E+01 -0.75252187109E+02  0.77301770598E+02  0.10819115249E+03  0.00000000000E+00 0.  1.
</event>
<event>
12    1  0.2689284E-002  0.1745231E+03  0.7818608E-02  0.1173211E+00
         -1   -1    0    0    0  501 -0.00000000000E+00  0.00000000000E+00  0.36345286211E+02  0.36345286211E+02  0.00000000000E+00 0. -1.
          1   -1    0    0  502    0  0.00000000000E+00 -0.00000000000E+00 -0.10800263286E+04  0.10800263286E+04  0.00000000000E+00 0.  1.
          6    2    1    2  502    0 -0.19275286568E+02 -0.11739274934E+02 -0.25794421180E+03  0.31151649879E+03  0.17319920719E+03 0.  0.
         24    2    3    3    0    0  0.97874400781E+01 -0.37573337300E+02 -0.25653983059E+03  0.27232334703E+03  0.82702908052E+02 0.  0.
         -6    2    1    2    0  501  0.19275286568E+02  0.11739274934E+02 -0.78573683059E+03  0.80485511601E+03  0.17291629068E+03 0.  0.
        -24    2    5    5    0    0  0.89223901228E+01 -0.44177654432E+02 -0.66625261685E+03  0.67244494727E+03  0.79109945325E+02 0.  0.
          5    1    3    3  502    0 -0.29062726646E+02  0.25834062366E+02 -0.14043812070E+01  0.39193151762E+02  0.47000000000E+01 0. -1.
        -13    1    4    4    0    0  0.43142695865E+02 -0.29098336192E+01 -0.11877748028E+03  0.12640351720E+03  0.00000000000E+00 0.  1.
         14    1    4    4    0    0 -0.33355255787E+02 -0.34663503681E+02 -0.13776235031E+03  0.14591982983E+03  0.00000000000E+00 0. -1.
         -5    1    5    5    0  501  0.10352896445E+02  0.55916929366E+02 -0.11948421373E+03  0.13241016874E+03  0.47000000000E+01 0.  1.
         13    1    6    6    0    0  0.24369979711E+02  0.41028253505E+01 -0.73803570188E+02  0.77831202352E+02  0.00000000000E+00 0. -1.
        -14    1    6    6    0    0 -0.15447589588E+02 -0.48280479782E+02 -0.59244904667E+03  0.59461374492E+03  0.00000000000E+00 0.  1.
</event>
<event>
12    1  0.2689284E-002  0.2298062E+03  0.7818608E-02  0.1126776E+00
          2   -1    0    0  502    0  0.00000000000E+00  0.00000000000E+00  0.25087560570E+03  0.25087560570E+03  0.00000000000E+00 0. -1.
         -2   -1    0    0    0  501 -0.00000000000E+00 -0.00000000000E+00 -0.25816409448E+03  0.25816409448E+03  0.00000000000E+00 0.  1.
          6    2    1    2  502    0 -0.14202089002E+03  0.55222286075E+02 -0.11300047742E+03  0.25613489866E+03  0.17209457961E+03 0.  0.
         24    2    3    3    0    0 -0.62019824177E+02  0.54860243931E+02 -0.13056588904E+03  0.17409262116E+03  0.80029272197E+02 0.  0.
         -6    2    1    2    0  501  0.14202089002E+03 -0.55222286075E+02  0.10571198864E+03  0.25290480153E+03  0.17194877148E+03 0.  0.
        -24    2    5    5    0    0  0.90193903068E+02  0.27321320739E+02  0.96692139667E+02  0.15491025434E+03  0.75936962738E+02 0.  0.
          5    1    3    3  502    0 -0.80001065843E+02  0.36204214491E+00  0.17565411617E+02  0.82042277490E+02  0.47000000000E+01 0. -1.
        -13    1    4    4    0    0 -0.10986471360E+02 -0.20873021679E+02 -0.31548909598E+02  0.39391868245E+02  0.00000000000E+00 0.  1.
         14    1    4    4    0    0 -0.51033352818E+02  0.75733265610E+02 -0.99016979441E+02  0.13470075292E+03  0.00000000000E+00 0. -1.
         -5    1    5    5    0  501  0.51826986953E+02 -0.82543606815E+02  0.90198489717E+01  0.97994547185E+02  0.47000000000E+01 0.  1.
         11    1    6    6    0    0  0.25408685975E+02 -0.21196967690E+02  0.54181252134E+02  0.63486383147E+02  0.00000000000E+00 0. -1.
        -12    1    6    6    0    0  0.64785217092E+02  0.48518288429E+02  0.42510887533E+02  0.91423871197E+02  0.00000000000E+00 0.  1.
</event>
<event>
12    1  0.2689284E-002  0.2019918E+03  0.7818608E-02  0.1148069E+00
          2   -1    0    0  502    0  0.00000000000E+00  0.00000000000E+00  0.34503109937E+04  0.34503109937E+04  0.00000000000E+00 0. -1.
         -2   -1    0    0    0  501 -0.00000000000E+00 -0.00000000000E+00 -0.12292805151E+02  0.12292805151E+02  0.00000000000E+00 0.  1.
          6    2    1    2  502    0 -0.58460312703E+02  0.86780499561E+02  0.13861773042E+04  0.14009015582E+04  0.17346237071E+03 0.  0.
         24    2    3    3    0    0 -0.52476031743E+02  0.10624513286E+03  0.69511444420E+03  0.70952275471E+03  0.78719036715E+02 0.  0.
         -6    2    1    2    0  501  0.58460312703E+02 -0.86780499561E+02  0.20518408844E+04  0.20617022406E+04  0.17209488900E+03 0.  0.
        -24    2    5    5    0    0 -0.62717448417E+01  0.13756031136E+02  0.88009106684E+03  0.88385778645E+03  0.80098299313E+02 0.  0.
          5    1    3    3  502    0 -0.59842809608E+01 -0.19464633300E+02  0.69106285995E+03  0.69137880353E+03  0.47000000000E+01 0. -1.
        -11    1    4    4    0    0  0.16145013954E+02  0.48184027911E+02  0.20282487060E+03  0.20909397446E+03  0.00000000000E+00 0.  1.
         12    1    4    4    0    0 -0.68621045696E+02  0.58061104950E+02  0.49228957361E+03  0.50042878025E+03  0.00000000000E+00 0. -1.
         -5    1    5    5    0  501  0.64732057545E+02 -0.10053653070E+03  0.11717498176E+04  0.11778444542E+04  0.47000000000E+01 0.  1.
         11    1    6    6    0    0 -0.38137160758E+02 -0.12065419595E+02  0.38581827352E+03  0.38788626885E+03  0.00000000000E+00 0. -1.
        -12    1    6    6    0    0  0.31865415916E+02  0.25821450731E+02  0.49427279332E+03  0.49597151759E+03  0.00000000000E+00 0.  1.
</event>
<event>
12    1  0.2689284E-002  0.1834452E+03  0.7818608E-02  0.1164510E+00
         -2   -1    0    0    0  501 -0.00000000000E+00  0.00000000000E+00  0.28622608699E+02  0.28622608699E+02  0.00000000000E+00 0.  1.
          2   -1    0    0  502    0  0.00000000000E+00 -0.00000000000E+00 -0.11792458130E+04  0.11792458130E+04  0.00000000000E+00 0. -1.
          6    2    1    2  502    0  0.53994631506E+02 -0.54877355773E+02 -0.57450615214E+03  0.60091855927E+03  0.15848927922E+03 0.  0.
         24    2    3    3    0    0 -0.16055371629E+02 -0.64373112042E+02 -0.30590505028E+03  0.32313120491E+03  0.80213485687E+02 0.  0.
         -6    2    1    2    0  501 -0.53994631506E+02  0.54877355773E+02 -0.57611705213E+03  0.60694986239E+03  0.17478653637E+03 0.  0.
        -24    2    5    5    0    0 -0.75633516106E+01  0.45669927263E+02 -0.53849759389E+03  0.54630372376E+03  0.79530833195E+02 0.  0.
          5    1    3    3  502    0  0.70050003134E+02  0.94957562685E+01 -0.26860110185E+03  0.27778735436E+03  0.47000000000E+01 0. -1.
        -13    1    4    4    0    0 -0.41361508066E+02 -0.35535929437E+02 -0.24616305325E+03  0.25213057216E+03  0.00000000000E+00 0.  1.
         14    1    4    4    0    0  0.25306136437E+02 -0.28837182604E+02 -0.59741997032E+02  0.71000632753E+02  0.00000000000E+00 0. -1.
         -5    1    5    5    0  501 -0.46431279895E+02  0.92074285101E+01 -0.37619458241E+02  0.60646138631E+02  0.47000000000E+01 0.  1.
         13    1    6    6    0    0 -0.19080863564E+02  0.61500176116E+02 -0.29129737406E+03  0.29832953450E+03  0.00000000000E+00 0. -1.
        -14    1    6    6    0    0  0.11517511954E+02 -0.15830248853E+02 -0.24720021982E+03  0.24797418927E+03  0.00000000000E+00 0.  1.
</event>
<event>
12    1  0.2689284E-002  0.1924970E+03  0.7818608E-02  0.1156228E+00
         -2   -1    0    0    0  501 -0.00000000000E+00  0.00000000000E+00  0.11181531977E+03  0.11181531977E+03  0.00000000000E+00 0.  1.
          2   -1    0    0  502    0  0.00000000000E+00 -0.00000000000E+00 -0.35956013679E+03  0.35956013679E+03  0.00000000000E+00 0. -1.
          6    2    1    2  502    0  0.75101884101E+02 -0.37625385262E+02 -0.57040818465E+02  0.19933159857E+03  0.17153270419E+03 0.  0.
         24    2    3    3    0    0  0.14976493871E+02  0.26256113582E+02  0.13413022038E+02  0.86718357406E+02  0.80165363356E+02 0.  0.
         -6    2    1    2    0  501 -0.75101884101E+02  0.37625385262E+02 -0.19070399856E+03  0.27204385799E+03  0.17488248337E+03 0.  0.
        -24    2    5    5    0    0 -0.64255393446E+02  0.28151509205E+02 -0.21722177500E+03  0.24150399626E+03  0.78851871357E+02 0.  0.
          5    1    3    3  502    0  0.60125390230E+02 -0.63881498844E+02 -0.70453840503E+02  0.11261324117E+03  0.47000000000E+01 0. -1.
        -11    1    4    4    0    0  0.33085332598E+02  0.57760042694E+01  0.37458366081E+02  0.50310343348E+02  0.00000000000E+00 0.  1.
         12    1    4    4    0    0 -0.18108838727E+02  0.20480109312E+02 -0.24045344043E+02  0.36408014058E+02  0.00000000000E+00 0. -1.
         -5    1    5    5    0  501 -0.10846490655E+02  0.94738760570E+01  0.26517776441E+02  0.30539861729E+02  0.47000000000E+01 0.  1.
         13    1    6    6    0    0 -0.25063999738E+00  0.40112402839E+02 -0.73904465865E+02  0.84088868210E+02  0.00000000000E+00 0. -1.
        -14    1    6    6    0    0 -0.64004753448E+02 -0.11960893634E+02 -0.14331730914E+03  0.15741512805E+03  0.00000000000E+00 0.  1.
</event>
<event>
12    1  0.2689284E-002  0.1808285E+03  0.7818608E-02  0.1167004E+00
         -2   -1    0    0    0  501 -0.00000000000E+00  0.00000000000E+00  0.35921522754E+02  0.35921522754E+02  0.00000000000E+00 0. -1.
          2   -1    0    0  502    0  0.00000000000E+00 -0.00000000000E+00 -0.10955778857E+04  0.10955778857E+04  0.00000000000E+00 0.  1.
          6    2    1    2  502    0  0.19908394048E+02  0.53406678252E+02 -0.29730694359E+03  0.34801073439E+03  0.17167246461E+03 0.  0.
         24    2    3    3    0    0 -0.26334728568E+02  0.70371129724E+02 -0.17986414486E+03  0.22057008162E+03  0.10322032975E+03 0.  0.
         -6    2    1    2    0  501 -0.19908394048E+02 -0.53406678252E+02 -0.76234941934E+03  0.78348867405E+03  0.17154954900E+03 0.  0.
        -24    2    5    5    0    0 -0.45755743309E+02 -0.39504222345E+02 -0.24142858465E+03  0.26172055529E+03  0.80967375806E+02 0.  0.
          5    1    3    3  502    0  0.46243122616E+02 -0.16964451472E+02 -0.11744279873E+03  0.12744065277E+03  0.47000000000E+01 0. -1.
        -13    1    4    4    0    0 -0.24657058879E+02  0.16865343086E+01  0.33095160803E+01  0.24935273154E+02  0.00000000000E+00 0.  1.
         14    1    4    4    0    0 -0.16776696888E+01  0.68684595415E+02 -0.18317366094E+03  0.19563480847E+03  0.00000000000E+00 0. -1.
         -5    1    5    5    0  501  0.25847349261E+02 -0.13902455907E+02 -0.52092083469E+03  0.52176811876E+03  0.47000000000E+01 0.  1.
         11    1    6    6    0    0 -0.16376435351E+01  0.13047919563E+02 -0.28295269764E+01  0.13451256602E+02  0.00000000000E+00 0. -1.
        -12    1    6    6    0    0 -0.44118099774E+02 -0.52552141908E+02 -0.23859905768E+03  0.24826929869E+03  0.00000000000E+00 0.  1.
</event>
<event>
12    1  0.2689284E-002  0.2131813E+03  0.7818608E-02  0.1139071E+00
         -2   -1    0    0    0  501 -0.00000000000E+00  0.00000000000E+00  0.18987820101E+03  0.18987820101E+03  0.00000000000E+00 0. -1.
          2   -1    0    0  502    0  0.00000000000E+00 -0.00000000000E+00 -0.28552371896E+03  0.28552371896E+03  0.00000000000E+00 0.  1.
          6    2    1    2  502    0 -0.36323685615E+02  0.12070826217E+03 -0.14354640219E+03  0.25758928918E+03  0.17279113873E+03 0.  0.
         24    2    3    3    0    0 -0.76028313265E+02  0.11475596410E+03 -0.15119659255E+03  0.21644925124E+03  0.70997415797E+02 0.  0.
         -6    2    1    2    0  501  0.36323685615E+02 -0.12070826217E+03  0.47900884248E+02  0.21781263079E+03  0.17104956220E+03 0.  0.
        -24    2    5    5    0    0  0.70723049052E+02 -0.24500017701E+02  0.34382427519E+02  0.11464198971E+03  0.79741043061E+02 0.  0.
          5    1    3    3  502    0  0.39704627650E+02  0.59522980675E+01  0.76501903523E+01  0.41140037938E+02  0.47000000000E+01 0. -1.
        -11    1    4    4    0    0 -0.62581781340E+02  0.49484200088E+02 -0.46505651335E+02  0.92346851706E+02  0.00000000000E+00 0.  1.
         12    1    4    4    0    0 -0.13446531926E+02  0.65271764015E+02 -0.10469094121E+03  0.12410239953E+03  0.00000000000E+00 0. -1.
         -5    1    5    5    0  501 -0.34399363437E+02 -0.96208244470E+02  0.13518456729E+02  0.10317064108E+03  0.47000000000E+01 0.  1.
         13    1    6    6    0    0 -0.72723201971E+01 -0.28444293689E+02  0.11472186481E+00  0.29359455813E+02  0.00000000000E+00 0. -1.
        -14    1    6    6    0    0  0.77995369249E+02  0.39442759883E+01  0.34267705654E+02  0.85282533899E+02  0.00000000000E+00 0.  1.
</event>
<event>
12    1  0.2689284E-002  0.1828549E+03  0.7818608E-02  0.1165068E+00
         -2   -1    0    0    0  501 -0.00000000000E+00  0.00000000000E+00  0.20835380942E+03  0.20835380942E+03  0.00000000000E+00 0. -1.
          2   -1    0    0  502    0  0.00000000000E+00 -0.00000000000E+00 -0.31384404666E+03  0.31384404666E+03  0.00000000000E+00 0.  1.
          6    2    1    2  502    0 -0.49456465289E+02 -0.39705688906E+02  0.12964588319E+03  0.22485940368E+03  0.17242741286E+03 0.  0.
         24    2    3    3    0    0  0.10887402132E+02  0.36328794421E+02  0.26062270007E+02  0.82823211425E+02  0.68863093189E+02 0.  0.
         -6    2    1    2    0  501  0.49456465289E+02  0.39705688906E+02 -0.23513612044E+03  0.29733845240E+03  0.17058334165E+03 0.  0.
        -24    2    5    5    0    0  0.30973954519E+02  0.87994258915E+02 -0.12800817070E+03  0.17829276027E+03  0.81852557323E+02 0.  0.
          5    1    3    3  502    0 -0.60343867421E+02 -0.76034483327E+02  0.10358361318E+03  0.14203619226E+03  0.47000000000E+01 0. -1.
        -13    1    4    4    0    0  0.10647263337E+02 -0.18358897301E+02 -0.20695547956E+01  0.21323610945E+02  0.00000000000E+00 0.  1.
         14    1    4    4    0    0  0.24013879548E+00  0.54687691722E+02  0.28131824803E+02  0.61499600481E+02  0.00000000000E+00 0. -1.
         -5    1    5    5    0  501  0.18482510770E+02 -0.48288570009E+02 -0.10712794974E+03  0.11904569212E+03  0.47000000000E+01 0.  1.
         13    1    6    6    0    0  0.55886047741E+02  0.47031527032E+02 -0.96075368637E+02  0.12068840593E+03  0.00000000000E+00 0. -1.
        -14    1    6    6    0    0 -0.24912093222E+02  0.40962731883E+02 -0.31932802062E+02  0.57604354345E+02  0.00000000000E+00 0.  1.
</event>
<event>
12    1  0.2689284E-002  0.2695053E+03  0.7818608E-02  0.1101563E+00
         -1   -1    0    0    0  501 -0.00000000000E+00  0.00000000000E+00  0.32864443524E+03  0.32864443524E+03  0.00000000000E+00 0. -1.
          1   -1    0    0  502    0  0.00000000000E+00 -0.00000000000E+00 -0.24011847590E+03  0.24011847590E+03  0.00000000000E+00 0.  1.
          6    2    1    2  502    0  0.20557995808E+03  0.33611332740E+02  0.12460735702E+03  0.29764856250E+03  0.17226384554E+03 0.  0.
         24    2    3    3    0    0  0.11078544049E+03  0.13463561095E+02 -0.27082002120E+01  0.13757584658E+03  0.80405832578E+02 0.  0.
         -6    2    1    2    0  501 -0.20557995808E+03 -0.33611332740E+02 -0.36081397672E+02  0.27111434864E+03  0.16973002659E+03 0.  0.
        -24    2    5    5    0    0 -0.48806162209E+02  0.29884992691E+02 -0.12029802069E+02  0.10020391693E+03  0.81369248326E+02 0.  0.
          5    1    3    3  502    0  0.94794517591E+02  0.20147771646E+02  0.12731555723E+03  0.16007271591E+03  0.47000000000E+01 0. -1.
        -11    1    4    4    0    0 -0.48023653084E+01  0.19274397881E+02 -0.87037622132E+01  0.21686876282E+02  0.00000000000E+00 0.  1.
         12    1    4    4    0    0  0.11558780580E+03 -0.58108367859E+01  0.59955620011E+01  0.11588897030E+03  0.00000000000E+00 0. -1.
         -5    1    5    5    0  501 -0.15677379587E+03 -0.63496325432E+02 -0.24051595603E+02  0.17091043171E+03  0.47000000000E+01 0.  1.
         11    1    6    6    0    0  0.52560888305E+01  0.26627970549E+02 -0.32465524006E+02  0.42316492463E+02  0.00000000000E+00 0. -1.
        -12    1    6    6    0    0 -0.54062251039E+02  0.32570221422E+01  0.20435721937E+02  0.57887424470E+02  0.00000000000E+00 0.  1.
</event>
<event>
12    1  0.2689284E-002  0.2074406E+03  0.7818608E-02  0.1143609E+00
          1   -1    0    0  502    0  0.00000000000E+00  0.00000000000E+00  0.37605487738E+03  0.37605487738E+03  0.00000000000E+00 0.  1.
         -1   -1    0    0    0  501 -0.00000000000E+00 -0.00000000000E+00 -0.12947053211E+03  0.12947053211E+03  0.00000000000E+00 0. -1.
          6    2    1    2  502    0  0.10382424350E+03  0.50959334139E+02  0.37120788042E+02  0.21070242862E+03  0.17216629533E+03 0.  0.
         24    2    3    3    0    0  0.61929760957E+02 -0.16475787549E+02  0.70355994968E+02  0.12450897014E+03  0.80285557544E+02 0.  0.
         -6    2    1    2    0  501 -0.10382424350E+03 -0.50959334139E+02  0.20946355724E+03  0.29482298087E+03  0.17224773138E+03 0.  0.
        -24    2    5    5    0    0 -0.45670776460E+02  0.27240839968E+02  0.35200444332E+02  0.95106142626E+02  0.70556529814E+02 0.  0.
          5    1    3    3  502    0  0.41894482547E+02  0.67435121688E+02 -0.33235206926E+02  0.86193458478E+02  0.47000000000E+01 0. -1.
        -11    1    4    4    0    0  0.22346635189E+02  0.11714635754E+02  0.71581443045E+02  0.75898009088E+02  0.00000000000E+00 0.  1.
         12    1    4    4    0    0  0.39583125769E+02 -0.28190423302E+02 -0.12254480772E+01  0.48610961054E+02  0.00000000000E+00 0. -1.
         -5    1    5    5    0  501 -0.58153467044E+02 -0.78200174107E+02  0.17426311290E+03  0.19971683825E+03  0.47000000000E+01 0.  1.
         13    1    6    6    0    0 -0.23083623881E+02  0.63531529230E+01  0.53987776143E+02  0.59058413595E+02  0.00000000000E+00 0. -1.
        -14    1    6    6    0    0 -0.22587152579E+02  0.20887687045E+02 -0.18787331811E+02  0.36047729031E+02  0.00000000000E+00 0.  1.
</event>
<event>
12    1  0.2689284E-002  0.2182324E+03  0.7818608E-02  0.1135208E+00
         -2   -1    0    0    0  501 -0.00000000000E+00  0.00000000000E+00  0.91333700698E+02  0.91333700698E+02  0.00000000000E+00 0.  1.
          2   -1    0    0  502    0  0.00000000000E+00 -0.00000000000E+00 -0.67508160128E+03  0.67508160128E+03  0.00000000000E+00 0. -1.
          6    2    1    2  502    0 -0.13450033720E+03  0.12129429862E+02 -0.11021632702E+03  0.24547735066E+03  0.17284104596E+03 0.  0.
         24    2    3    3    0    0 -0.16529719315E+03  0.20823499966E+02 -0.80382443553E+02  0.20147526214E+03  0.79838360503E+02 0.  0.
         -6    2    1    2    0  501  0.13450033720E+03 -0.12129429862E+02 -0.47353157356E+03  0.52093795132E+03  0.17001980527E+03 0.  0.
        -24    2    5    5    0    0  0.19429997879E+02 -0.43823762128E+02 -0.26149634003E+03  0.27757249783E+03  0.79800430821E+02 0.  0.
          5    1    3    3  502    0  0.30796855950E+02 -0.86940701035E+01 -0.29833883463E+02  0.44002088517E+02  0.47000000000E+01 0. -1.
        -13    1    4    4    0    0 -0.86891999333E+01 -0.87132587791E+00  0.14616102014E+02  0.17026210452E+02  0.00000000000E+00 0.  1.
         14    1    4    4    0    0 -0.15660799322E+03  0.21694825844E+02 -0.94998545568E+02  0.18444905169E+03  0.00000000000E+00 0. -1.
         -5    1    5    5    0  501  0.11507033933E+03  0.31694332266E+02 -0.21203523353E+03  0.24336545348E+03  0.47000000000E+01 0.  1.
         13    1    6    6    0    0 -0.20532448778E+01 -0.37897979511E+02 -0.24929091215E+03  0.25216350162E+03  0.00000000000E+00 0. -1.
        -14    1    6    6    0    0  0.21483242757E+02 -0.59257826176E+01 -0.12205427875E+02  0.25408996214E+02  0.00000000000E+00 0.  1.
</event>
<event>
12    1  0.2689284E-002  0.3122087E+03  0.7818608E-02  0.1079292E+00
         -1   -1    0    0    0  501 -0.00000000000E+00  0.00000000000E+00  0.56277991349E+02  0.56277991349E+02  0.00000000000E+00 0. -1.
          1   -1    0    0  502    0  0.00000000000E+00 -0.00000000000E+00 -0.18093119994E+04  0.18093119994E+04  0.00000000000E+00 0.  1.
          6    2    1    2  502    0 -0.14749421732E+03  0.21432802320E+03 -0.10674303393E+04  0.11119560312E+04  0.17131152991E+03 0.  0.
         24    2    3    3    0    0 -0.79383701768E+02  0.12032234829E+03 -0.37082916537E+03  0.40573269908E+03  0.79533097550E+02 0.  0.
         -6    2    1    2    0  501  0.14749421732E+03 -0.21432802320E+03 -0.68560366878E+03  0.75363395962E+03  0.17384104460E+03 0.  0.
        -24    2    5    5    0    0  0.27190783493E+02 -0.87308001816E+02 -0.17522743219E+03  0.21408507871E+03  0.82254130879E+02 0.  0.
          5    1    3    3  502    0 -0.68110515556E+02  0.94005674904E+02 -0.69660117393E+03  0.70622333208E+03  0.47000000000E+01 0. -1.
        -13    1    4    4    0    0  0.21953104214E+00  0.39137927711E+02 -0.17469318923E+03  0.17902384183E+03  0.00000000000E+00 0.  1.
         14    1    4    4    0    0 -0.79603232810E+02  0.81184420580E+02 -0.19613597615E+03  0.22670885725E+03  0.00000000000E+00 0. -1.
         -5    1    5    5    0  501  0.12030343383E+03 -0.12702002138E+03 -0.51037623659E+03  0.53954888092E+03  0.47000000000E+01 0.  1.
         13    1    6    6    0    0  0.19430625677E+02  0.57635913202E+01 -0.65882552887E+01  0.21311342211E+02  0.00000000000E+00 0. -1.
        -14    1    6    6    0    0  0.77601578169E+01 -0.93071593137E+02 -0.16863917690E+03  0.19277373650E+03  0.00000000000E+00 0.  1.
</event>
<event>
12    1  0.2689284E-002  0.2351711E+03  0.7818608E-02  0.1123052E+00
         -2   -1    0    0    0  501 -0.00000000000E+00  0.00000000000E+00  0.99698624546E+02  0.99698624546E+02  0.00000000000E+00 0. -1.
          2   -1    0    0  502    0  0.00000000000E+00 -0.00000000000E+00 -0.73384472003E+03  0.73384472003E+03  0.00000000000E+00 0.  1.
          6    2    1    2  502    0 -0.30308342397E+01 -0.16131702148E+03 -0.52343900970E+03  0.57402770374E+03  0.17171790938E+03 0.  0.
         24    2    3    3    0    0  0.10503044956E+02 -0.15393123714E+03 -0.52906494374E+03  0.55695559695E+03  0.80527526717E+02 0.  0.
         -6    2    1    2    0  501  0.30308342397E+01  0.16131702148E+03 -0.11070708578E+03  0.25951564084E+03  0.17046976747E+03 0.  0.
        -24    2    5    5    0    0 -0.57914913382E+01  0.92099105572E+02  0.75407868194E+01  0.12213440964E+03  0.79650260090E+02 0.  0.
          5    1    3    3  502    0 -0.13533879196E+02 -0.73857843420E+01  0.56259340350E+01  0.17072106789E+02  0.47000000000E+01 0. -1.
        -13    1    4    4    0    0 -0.32249259988E+02 -0.80261211453E+02 -0.22075843971E+03  0.23709948447E+03  0.00000000000E+00 0.  1.
         14    1    4    4    0    0  0.42752304944E+02 -0.73670025688E+02 -0.30830650403E+03  0.31985611248E+03  0.00000000000E+00 0. -1.
         -5    1    5    5    0  501  0.88223255780E+01  0.69217915912E+02 -0.11824787260E+03  0.13738123120E+03  0.47000000000E+01 0.  1.
         11    1    6    6    0    0  0.14298589899E+01 -0.11171992485E+02  0.14519824682E+02  0.18376159054E+02  0.00000000000E+00 0. -1.
        -12    1    6    6    0    0 -0.72213503281E+01  0.10327109806E+03 -0.69790378622E+01  0.10375825058E+03  0.00000000000E+00 0.  1.
</event>
<event>
12    1  0.2689284E-002  0.2407036E+03  0.7818608E-02  0.1119325E+00
         -2   -1    0    0    0  501 -0.00000000000E+00  0.00000000000E+00  0.30369102177E+02  0.30369102177E+02  0.00000000000E+00 0.  1.
          2   -1    0    0  502    0  0.00000000000E+00 -0.00000000000E+00 -0.22539190846E+04  0.22539190846E+04  0.00000000000E+00 0. -1.
          6    2    1    2  502    0 -0.15636649165E+02 -0.16632622619E+03 -0.65545241264E+03  0.69747643574E+03  0.17013698851E+03 0.  0.
         24    2    3    3    0    0 -0.53163238869E+02 -0.15925960055E+03 -0.42543222883E+03  0.46426074782E+03  0.79721454476E+02 0.  0.
         -6    2    1    2    0  501  0.15636649165E+02  0.16632622619E+03 -0.15680975698E+04  0.15868117511E+04  0.17644440075E+03 0.  0.
        -24    2    5    5    0    0  0.48430169189E+01  0.16623602186E+03 -0.15633367837E+04  0.15741127071E+04  0.78428601035E+02 0.  0.
          5    1    3    3  502    0  0.37526589705E+02 -0.70666256457E+01 -0.23002018381E+03  0.23321568792E+03  0.47000000000E+01 0. -1.
        -11    1    4    4    0    0 -0.45724259499E+02 -0.16599532378E+03 -0.41701948952E+03  0.45116561268E+03  0.00000000000E+00 0.  1.
         12    1    4    4    0    0 -0.74389793705E+01  0.67357232378E+01 -0.84127393128E+01  0.13095135141E+02  0.00000000000E+00 0. -1.
         -5    1    5    5    0  501  0.10793632246E+02  0.90204328090E-01 -0.47607860756E+01  0.12699043977E+02  0.47000000000E+01 0.  1.
         11    1    6    6    0    0  0.48390583104E+01  0.39598244931E+01 -0.34027723281E+03  0.34033467626E+03  0.00000000000E+00 0. -1.
        -12    1    6    6    0    0  0.39586085053E-02  0.16227619737E+03 -0.12230595509E+04  0.12337780308E+04  0.00000000000E+00 0.  1.
</event>
<event>
12    1  0.2689284E-002  0.2050623E+03  0.7818608E-02  0.1145537E+00
         -2   -1    0    0    0  501 -0.00000000000E+00  0.00000000000E+00  0.49102101001E+02  0.49102101001E+02  0.00000000000E+00 0.  1.
          2   -1    0    0  502    0  0.00000000000E+00 -0.00000000000E+00 -0.85642982702E+03  0.85642982702E+03  0.00000000000E+00 0. -1.
          6    2    1    2  502    0  0.10233407572E+02 -0.11203234932E+03 -0.40780002682E+03  0.45684376623E+03  0.17248012915E+03 0.  0.
         24    2    3    3    0    0 -0.26937812396E+02  0.75630166064E+01 -0.13358084722E+03  0.15534252311E+03  0.74193071014E+02 0.  0.
         -6    2    1    2    0  501 -0.10233407572E+02  0.11203234932E+03 -0.39952769921E+03  0.44868816179E+03  0.17041923064E+03 0.  0.
        -24    2    5    5    0    0  0.12689563343E+02 -0.83908782108E+01 -0.14814701192E+03  0.16897124012E+03  0.79826756126E+02 0.  0.
          5    1    3    3  502    0  0.37171219968E+02 -0.11959536593E+03 -0.27421917960E+03  0.30150124312E+03  0.47000000000E+01 0. -1.
        -13    1    4    4    0    0 -0.65434398402E+01 -0.27623070800E+02 -0.20069306007E+02  0.34765323082E+02  0.00000000000E+00 0.  1.
         14    1    4    4    0    0 -0.20394372556E+02  0.35186087407E+02 -0.11351154121E+03  0.12057720003E+03  0.00000000000E+00 0. -1.
         -5    1    5    5    0  501 -0.22922970916E+02  0.12042322753E+03 -0.25138068729E+03  0.27971692167E+03  0.47000000000E+01 0.  1.
         11    1    6    6    0    0  0.31654955160E+02 -0.43645407837E+01 -0.14601001440E+03  0.14946574761E+03  0.00000000000E+00 0. -1.
        -12    1    6    6    0    0 -0.18965391816E+02 -0.40263374271E+01 -0.21369975142E+01  0.19505492514E+02  0.00000000000E+00 0.  1.
</event>
<event>
12    1  0.2689284E-002  0.2735639E+03  0.7818608E-02  0.1099257E+00
          2   -1    0    0  502    0  0.00000000000E+00  0.00000000000E+00  0.26641602456E+04  0.26641602456E+04  0.00000000000E+00 0.  1.
         -2   -1    0    0    0  501 -0.00000000000E+00 -0.00000000000E+00 -0.28568989488E+02  0.28568989488E+02  0.00000000000E+00 0. -1.
          6    2    1    2  502    0  0.16842603320E+03 -0.13057589340E+03  0.11422320863E+04  0.11744705854E+04  0.17108367703E+03 0.  0.
         24    2    3    3    0    0  0.88993479495E+02 -0.62306121675E+02  0.90898353245E+03  0.91874168566E+03  0.77674516484E+02 0.  0.
         -6    2    1    2    0  501 -0.16842603320E+03  0.13057589340E+03  0.14933591699E+04  0.15182586497E+04  0.17196024105E+03 0.  0.
        -24    2    5    5    0    0 -0.15676039540E+03  0.14039662612E+03  0.10163268719E+04  0.10409595430E+04  0.79946391438E+02 0.  0.
          5    1    3    3  502    0  0.79432553709E+02 -0.68269771727E+02  0.23324855380E+03  0.25572889976E+03  0.47000000000E+01 0. -1.
        -13    1    4    4    0    0  0.89190021602E+02 -0.27596638163E+02  0.52893593631E+03  0.53711233379E+03  0.00000000000E+00 0.  1.
         14    1    4    4    0    0 -0.19654210701E+00 -0.34709483513E+02  0.38004759614E+03  0.38162935187E+03  0.00000000000E+00 0. -1.
         -5    1    5    5    0  501 -0.11665637802E+02 -0.98207327196E+01  0.47703229800E+03  0.47729910667E+03  0.47000000000E+01 0.  1.
         11    1    6    6    0    0 -0.54210755653E+01  0.36813342195E+02  0.26362663995E+03  0.26623977072E+03  0.00000000000E+00 0. -1.
        -12    1    6    6    0    0 -0.15133931984E+03  0.10358328393E+03  0.75270023196E+03  0.77471977233E+03  0.00000000000E+00 0.  1.
</event>
<event>
12    1  0.2689284E-002  0.2288527E+03  0.7818608E-02  0.1127450E+00
         -2   -1    0    0    0  501 -0.00000000000E+00  0.00000000000E+00  0.12047487227E+03  0.12047487227E+03  0.00000000000E+00 0. -1.
          2   -1    0    0  502    0  0.00000000000E+00 -0.00000000000E+00 -0.49998592092E+03  0.49998592092E+03  0.00000000000E+00 0.  1.
          6    2    1    2  502    0  0.10359642664E+03  0.10742519136E+03 -0.30252126668E+03  0.37991374290E+03  0.17476539673E+03 0.  0.
         24    2    3    3    0    0  0.11771959653E+03  0.23405932182E+02 -0.18122214766E+03  0.23160910333E+03  0.79972300680E+02 0.  0.
         -6    2    1    2    0  501 -0.10359642664E+03 -0.10742519136E+03 -0.76989781972E+02  0.24054705029E+03  0.17222968828E+03 0.  0.
        -24    2    5    5    0    0 -0.11201540042E+03 -0.64414414096E+02 -0.10892183824E+03  0.18611771723E+03  0.77969039670E+02 0.  0.
          5    1    3    3  502    0 -0.14123169886E+02  0.84019259182E+02 -0.12129911902E+03  0.14830463956E+03  0.47000000000E+01 0. -1.
        -13    1    4    4    0    0  0.48704866419E+02 -0.23546814253E+01 -0.13762753096E+03  0.14601043050E+03  0.00000000000E+00 0.  1.
         14    1    4    4    0    0  0.69014730107E+02  0.25760613607E+02 -0.43594616705E+02  0.85598672833E+02  0.00000000000E+00 0. -1.
         -5    1    5    5    0  501  0.84189737755E+01 -0.43010777268E+02  0.31932056265E+02  0.54429333065E+02  0.47000000000E+01 0.  1.
         13    1    6    6    0    0  0.77476303714E+01 -0.19121860213E+02 -0.50467321587E+01  0.21240075797E+02  0.00000000000E+00 0. -1.
        -14    1    6    6    0    0 -0.11976303079E+03 -0.45292553883E+02 -0.10387510608E+03  0.16487764143E+03  0.00000000000E+00 0.  1.
</event>
<event>
12    1  0.2689284E-002  0.3438185E+03  0.7818608E-02  0.1065181E+00
          4   -1    0    0  502    0  0.00000000000E+00  0.00000000000E+00  0.20139338184E+03  0.20139338184E+03  0.00000000000E+00 0. -1.
         -4   -1    0    0    0  501 -0.00000000000E+00 -0.00000000000E+00 -0.70608266398E+03  0.70608266398E+03  0.00000000000E+00 0.  1.
          6    2    1    2  502    0  0.29667273037E+02  0.29528562106E+03 -0.66473262393E+02  0.35097507780E+03  0.17518865695E+03 0.  0.
         24    2    3    3    0    0  0.83552998228E+02  0.23082306301E+03 -0.34741575234E+02  0.26104130917E+03  0.81701885602E+02 0.  0.
         -6    2    1    2    0  501 -0.29667273037E+02 -0.29528562106E+03 -0.43821601975E+03  0.55650096802E+03  0.17200669273E+03 0.  0.
        -24    2    5    5    0    0  0.10986343489E+02 -0.22638753407E+03 -0.40175272177E+03  0.46845935838E+03  0.81712334907E+02 0.  0.
          5    1    3    3  502    0 -0.53885725191E+02  0.64462558049E+02 -0.31731687159E+02  0.89933768628E+02  0.47000000000E+01 0. -1.
        -13    1    4    4    0    0 -0.15926884893E+02  0.24573291231E+02  0.89793464110E+00  0.29297074785E+02  0.00000000000E+00 0.  1.
         14    1    4    4    0    0  0.99479883121E+02  0.20624977178E+03 -0.35639509875E+02  0.23174423439E+03  0.00000000000E+00 0. -1.
         -5    1    5    5    0  501 -0.40653616526E+02 -0.68898086995E+02 -0.36463297974E+02  0.88041609636E+02  0.47000000000E+01 0.  1.
         11    1    6    6    0    0  0.81644185289E+01 -0.23556715450E+02 -0.11210344990E+03  0.11484232692E+03  0.00000000000E+00 0. -1.
        -12    1    6    6    0    0  0.28219249601E+01 -0.20283081862E+03 -0.28964927187E+03  0.35361703146E+03  0.00000000000E+00 0.  1.
</event>
<event>
12    1  0.2689284E-002  0.2032559E+03  0.7818608E-02  0.1147021E+00
         -2   -1    0    0    0  501 -0.00000000000E+00  0.00000000000E+00  0.32106474792E+02  0.32106474792E+02  0.00000000000E+00 0. -1.
          2   -1    0    0  502    0  0.00000000000E+00 -0.00000000000E+00 -0.12892071907E+04  0.12892071907E+04  0.00000000000E+00 0.  1.
          6    2    1    2  502    0  0.49127764482E+02 -0.94915664802E+02 -0.65834655302E+03  0.68910127354E+03  0.17325663236E+03 0.  0.
         24    2    3    3    0    0  0.27378048316E+02 -0.10924391039E+03 -0.64044535138E+03  0.65714987616E+03  0.94825746151E+02 0.  0.
         -6    2    1    2    0  501 -0.49127764482E+02  0.94915664802E+02 -0.59875416289E+03  0.63221239195E+03  0.17252084017E+03 0.  0.
        -24    2    5    5    0    0  0.39922992405E+01  0.22428345627E+02 -0.14569268573E+03  0.17030012247E+03  0.85186876321E+02 0.  0.
          5    1    3    3  502    0  0.21749716165E+02  0.14328245591E+02 -0.17901201636E+02  0.31951397387E+02  0.47000000000E+01 0. -1.
        -11    1    4    4    0    0 -0.35536784198E+02 -0.43411715910E+02 -0.25358545892E+03  0.25971720213E+03  0.00000000000E+00 0.  1.
         12    1    4    4    0    0  0.62914832515E+02 -0.65832194483E+02 -0.38685989247E+03  0.39743267402E+03  0.00000000000E+00 0. -1.
         -5    1    5    5    0  501 -0.53120063722E+02  0.72487319174E+02 -0.45306147716E+03  0.46191226948E+03  0.47000000000E+01 0.  1.
         13    1    6    6    0    0 -0.22734563297E+02 -0.24294919867E+02 -0.68992949115E+02  0.76597196602E+02  0.00000000000E+00 0. -1.
        -14    1    6    6    0    0  0.26726862538E+02  0.46723265494E+02 -0.76699736613E+02  0.93702925867E+02  0.00000000000E+00 0.  1.
</event>
<event>
12    1  0.2689284E-002  0.2436175E+03  0.7818608E-02  0.1117406E+00
         -1   -1    0    0    0  501 -0.00000000000E+00  0.00000000000E+00  0.27042958867E+02  0.27042958867E+02  0.00000000000E+00 0.  1.
          1   -1    0    0  502    0  0.00000000000E+00 -0.00000000000E+00 -0.22550626620E+04  0.22550626620E+04  0.00000000000E+00 0. -1.
          6    2    1    2  502    0 -0.19746087047E+02 -0.17097757305E+03 -0.13006145604E+04  0.13232264910E+04  0.17235681970E+03 0.  0.
         24    2    3    3    0    0 -0.21191754794E+02 -0.17521826795E+03 -0.81568312006E+03  0.83825157898E+03  0.78588964997E+02 0.  0.
         -6    2    1    2    0  501  0.19746087047E+02  0.17097757305E+03 -0.92740514275E+03  0.95887912989E+03  0.17246926829E+03 0.  0.
        -24    2    5    5    0    0 -0.82559291781E+01  0.67540800347E+02 -0.21840168611E+03  0.24180781518E+03  0.78369655526E+02 0.  0.
          5    1    3    3  502    0  0.14456677474E+01  0.42406948982E+01 -0.48493144038E+03  0.48497491205E+03  0.47000000000E+01 0. -1.
        -11    1    4    4    0    0  0.59344644010E+01 -0.62793665344E+01 -0.56006404221E+01  0.10296382129E+02  0.00000000000E+00 0.  1.
         12    1    4    4    0    0 -0.27126219195E+02 -0.16893890141E+03 -0.81008247963E+03  0.82795519685E+03  0.00000000000E+00 0. -1.
         -5    1    5    5    0  501  0.28002016225E+02  0.10343677270E+03 -0.70900345664E+03  0.71707131471E+03  0.47000000000E+01 0.  1.
         13    1    6    6    0    0  0.48334034789E+01 -0.72061998738E+01 -0.10500414153E+03  0.10536204650E+03  0.00000000000E+00 0. -1.
        -14    1    6    6    0    0 -0.13089332657E+02  0.74747000221E+02 -0.11339754458E+03  0.13644576867E+03  0.00000000000E+00 0.  1.
</event>
<event>
12    1  0.2689284E-002  0.1814596E+03  0.7818608E-02  0.1166398E+00
         -1   -1    0    0    0  501 -0.00000000000E+00  0.00000000000E+00  0.16500673298E+03  0.16500673298E+03  0.00000000000E+00 0.  1.
          1   -1    0    0  502    0  0.00000000000E+00 -0.00000000000E+00 -0.45261516175E+03  0.45261516175E+03  0.00000000000E+00 0. -1.
          6    2    1    2  502    0  0.43620319524E+02  0.41493768860E+02 -0.37449078255E+03  0.41586287862E+03  0.17051135584E+03 0.  0.
         24    2    3    3    0    0 -0.85336599497E+01  0.85688265698E+02 -0.22905393060E+03  0.25509236194E+03  0.72049342608E+02 0.  0.
         -6    2    1    2    0  501 -0.43620319524E+02 -0.41493768860E+02  0.86882353775E+02  0.20175901611E+03  0.17185369375E+03 0.  0.
        -24    2    5    5    0    0 -0.22476453143E+02  0.21948441860E+02 -0.74377836604E+01  0.86042312424E+02  0.79756089771E+02 0.  0.
          5    1    3    3  502    0  0.52153979473E+02 -0.44194496838E+02 -0.14543685195E+03  0.16077051667E+03  0.47000000000E+01 0. -1.
        -13    1    4    4    0    0 -0.33660902599E+01 -0.15005368081E+01  0.44558752991E+01  0.57824734354E+01  0.00000000000E+00 0.  1.
         14    1    4    4    0    0 -0.51675696898E+01  0.87188802506E+02 -0.23350980589E+03  0.24930988851E+03  0.00000000000E+00 0. -1.
         -5    1    5    5    0  501 -0.21143866381E+02 -0.63442210721E+02  0.94320137436E+02  0.11571670369E+03  0.47000000000E+01 0.  1.
         13    1    6    6    0    0 -0.25084221910E+02  0.48510944130E+02  0.80211077770E+01  0.55198442543E+02  0.00000000000E+00 0. -1.
        -14    1    6    6    0    0  0.26077687672E+01 -0.26562502270E+02 -0.15458891437E+02  0.30843869881E+02  0.00000000000E+00 0.  1.
</event>
<event>
12    1  0.2689284E-002  0.1745305E+03  0.7818608E-02  0.1173204E+00
         -3   -1    0    0    0  501 -0.00000000000E+00  0.00000000000E+00  0.14693648124E+03  0.14693648124E+03  0.00000000000E+00 0.  1.
          3   -1    0    0  502    0  0.00000000000E+00 -0.00000000000E+00 -0.30105773558E+03  0.30105773558E+03  0.00000000000E+00 0. -1.
          6    2    1    2  502    0 -0.18520535342E+02 -0.39859646601E+02  0.47747169654E+02  0.18154364178E+03  0.16954792834E+03 0.  0.
         24    2    3    3    0    0 -0.52712349242E+01  0.25516241191E+02  0.70111219046E+02  0.11103271092E+03  0.82059828023E+02 0.  0.
         -6    2    1    2    0  501  0.18520535342E+02  0.39859646601E+02 -0.20186842400E+03  0.26645057504E+03  0.16826540546E+03 0.  0.
        -24    2    5    5    0    0  0.33176805714E+02 -0.97940482369E+01 -0.19683932805E+03  0.21422340320E+03  0.77131845527E+02 0.  0.
          5    1    3    3  502    0 -0.13249300418E+02 -0.65375887792E+02 -0.22364049391E+02  0.70510930864E+02  0.47000000000E+01 0. -1.
        -13    1    4    4    0    0  0.25713069554E+02 -0.18362015129E+02  0.33362095990E+02  0.45949483069E+02  0.00000000000E+00 0.  1.
         14    1    4    4    0    0 -0.30984304478E+02  0.43878256320E+02  0.36749123055E+02  0.65083227847E+02  0.00000000000E+00 0. -1.
         -5    1    5    5    0  501 -0.14656270372E+02  0.49653694838E+02 -0.50290959534E+01  0.52227171840E+02  0.47000000000E+01 0.  1.
         13    1    6    6    0    0 -0.20327824393E+02 -0.21539178617E+02 -0.63326211391E+02  0.69909696818E+02  0.00000000000E+00 0. -1.
        -14    1    6    6    0    0  0.53504630107E+02  0.11745130380E+02 -0.13351311666E+03  0.14431370638E+03  0.00000000000E+00 0.  1.
</event>
<event>
12    1  0.2689284E-002  0.2390107E+03  0.7818608E-02  0.1120454E+00
         -2   -1    0    0    0  501 -0.00000000000E+00  0.00000000000E+00  0.45804419429E+02  0.45804419429E+02  0.00000000000E+00 0.  1.
          2   -1    0    0  502    0  0.00000000000E+00 -0.00000000000E+00 -0.25001929275E+04  0.25001929275E+04  0.00000000000E+00 0. -1.
          6    2    1    2  502    0  0.21025813541E+02  0.16480373595E+03 -0.32452890527E+03  0.40270468561E+03  0.17102542863E+03 0.  0.
         24    2    3    3    0    0 -0.34626395965E+02  0.31368827592E+02 -0.12137150218E+03  0.15331129431E+03  0.81180790714E+02 0.  0.
         -6    2    1    2    0  501 -0.21025813541E+02 -0.16480373595E+03 -0.21298596028E+04  0.21432926613E+04  0.17262429787E+03 0.  0.
        -24    2    5    5    0    0 -0.57509126854E+02 -0.17439037431E+03 -0.18685216814E+04  0.18792045417E+04  0.79480395066E+02 0.  0.
          5    1    3    3  502    0  0.55652209506E+02  0.13343490835E+03 -0.20315740309E+03  0.24939339130E+03  0.47000000000E+01 0. -1.
        -13    1    4    4    0    0 -0.17178743097E+01  0.53296079126E+02 -0.59663396939E+02  0.80019648066E+02  0.00000000000E+00 0.  1.
         14    1    4    4    0    0 -0.32908521655E+02 -0.21927251534E+02 -0.61708105237E+02  0.73291646245E+02  0.00000000000E+00 0. -1.
         -5    1    5    5    0  501  0.36483313313E+02  0.95866383669E+01 -0.26133792139E+03  0.26408811965E+03  0.47000000000E+01 0.  1.
         13    1    6    6    0    0 -0.51410112318E+02 -0.59880187901E+02 -0.10064211939E+04  0.10095108995E+04  0.00000000000E+00 0. -1.
        -14    1    6    6    0    0 -0.60990145361E+01 -0.11451018641E+03 -0.86210048750E+03  0.86969364222E+03  0.00000000000E+00 0.  1.
</event>
<event>
12    1  0.2689284E-002  0.2497855E+03  0.7818608E-02  0.1113440E+00
         -2   -1    0    0    0  501 -0.00000000000E+00  0.00000000000E+00  0.65177244470E+02  0.65177244470E+02  0.00000000000E+00 0. -1.
          2   -1    0    0  502    0  0.00000000000E+00 -0.00000000000E+00 -0.24774743109E+04  0.24774743109E+04  0.00000000000E+00 0.  1.
          6    2    1    2  502    0  0.15786364767E+03 -0.88697690816E+02 -0.21025256933E+03  0.32648367717E+03  0.17203847516E+03 0.  0.
         24    2    3    3    0    0  0.27880579804E+02 -0.74685618622E+02 -0.13265745527E+03  0.17438164620E+03  0.80347306946E+02 0.  0.
         -6    2    1    2    0  501 -0.15786364767E+03  0.88697690816E+02 -0.22020444971E+04  0.22161678782E+04  0.17208104356E+03 0.  0.
        -24    2    5    5    0    0 -0.14851679718E+03  0.10516800271E+03 -0.21668725649E+04  0.21759461229E+04  0.79292302423E+02 0.  0.
          5    1    3    3  502    0  0.12998306787E+03 -0.14012072194E+02 -0.77595114063E+02  0.15210203097E+03  0.47000000000E+01 0. -1.
        -13    1    4    4    0    0  0.50352051484E+02 -0.69838327183E+02 -0.82667398878E+02  0.11935920522E+03  0.00000000000E+00 0.  1.
         14    1    4    4    0    0 -0.22471471680E+02 -0.48472914390E+01 -0.49990056393E+02  0.55022440985E+02  0.00000000000E+00 0. -1.
         -5    1    5    5    0  501 -0.93468504875E+01 -0.16470311892E+02 -0.35171932158E+02  0.40221755302E+02  0.47000000000E+01 0.  1.
         11    1    6    6    0    0 -0.11978128733E+03  0.11693048347E+03 -0.18474414973E+04  0.18550095366E+04  0.00000000000E+00 0. -1.
        -12    1    6    6    0    0 -0.28735509851E+02 -0.11762480765E+02 -0.31943106758E+03  0.32093658628E+03  0.00000000000E+00 0.  1.
</event>
<event>
12    1  0.2689284E-002  0.2323611E+03  0.7818608E-02  0.1124989E+00
         -2   -1    0    0    0  501 -0.00000000000E+00  0.00000000000E+00  0.43340032481E+02  0.43340032481E+02  0.00000000000E+00 0.  1.
          2   -1    0    0  502    0  0.00000000000E+00 -0.00000000000E+00 -0.15540476439E+04  0.15540476439E+04  0.00000000000E+00 0. -1.
          6    2    1    2  502    0  0.15535159246E+03 -0.54365738074E+01 -0.40147481217E+03  0.46422326669E+03  0.17365927247E+03 0.  0.
         24    2    3    3    0    0  0.16689035792E+03  0.32007776106E+02 -0.36240965116E+03  0.40869490228E+03  0.82546220985E+02 0.  0.
         -6    2    1    2    0  501 -0.15535159246E+03  0.54365738074E+01 -0.11092327993E+04  0.11331644097E+04  0.17175710423E+03 0.  0.
        -24    2    5    5    0    0 -0.16159608617E+03  0.20652078628E+02 -0.10972139637E+04  0.11122587239E+04  0.81860756853E+02 0.  0.
          5    1    3    3  502    0 -0.11538765464E+02 -0.37444349914E+02 -0.39065161012E+02  0.55528364408E+02  0.47000000000E+01 0. -1.
        -13    1    4    4    0    0  0.19871993980E+02  0.33538378398E+02 -0.49861294634E+02  0.63291924231E+02  0.00000000000E+00 0.  1.
         14    1    4    4    0    0  0.14701836394E+03 -0.15306022915E+01 -0.31254835652E+03  0.34540297805E+03  0.00000000000E+00 0. -1.
         -5    1    5    5    0  501  0.62444937134E+01 -0.15215504821E+02 -0.12018835636E+02  0.20905685799E+02  0.47000000000E+01 0.  1.
         11    1    6    6    0    0 -0.37927812836E+02 -0.30316438351E+02 -0.28813858023E+03  0.29220103839E+03  0.00000000000E+00 0. -1.
        -12    1    6    6    0    0 -0.12366827334E+03  0.50968516979E+02 -0.80907538343E+03  0.82005768554E+03  0.00000000000E+00 0.  1.
</event>
<event>
12    1  0.2689284E-002  0.2007121E+03  0.7818608E-02  0.1149140E+00
         -2   -1    0    0    0  501 -0.00000000000E+00  0.00000000000E+00  0.72349680894E+02  0.72349680894E+02  0.00000000000E+00 0. -1.
          2   -1    0    0  502    0  0.00000000000E+00 -0.00000000000E+00 -0.63998374858E+03  0.63998374858E+03  0.00000000000E+00 0.  1.
          6    2    1    2  502    0  0.87394810539E+02 -0.55449842715E+02 -0.15514015803E+03  0.25349944594E+03  0.17170021111E+03 0.  0.
         24    2    3    3    0    0  0.17687052860E+02 -0.36407493922E+02 -0.15734547924E+03  0.18105128538E+03  0.79897626044E+02 0.  0.
         -6    2    1    2    0  501 -0.87394810539E+02  0.55449842715E+02 -0.41249390966E+03  0.45883398353E+03  0.17223490056E+03 0.  0.
        -24    2    5    5    0    0 -0.37650152802E+02  0.46201811335E+02 -0.95950173512E+02  0.13823753322E+03  0.79693402599E+02 0.  0.
          5    1    3    3  502    0  0.69707757679E+02 -0.19042348793E+02  0.22053212060E+01  0.72448160569E+02  0.47000000000E+01 0. -1.
        -13    1    4    4    0    0  0.20669878494E+02  0.22485697939E+02 -0.56703756113E+02  0.64406260923E+02  0.00000000000E+00 0.  1.
         14    1    4    4    0    0 -0.29828256337E+01 -0.58893191861E+02 -0.10064172312E+03  0.11664502445E+03  0.00000000000E+00 0. -1.
         -5    1    5    5    0  501 -0.49744657736E+02  0.92480313797E+01 -0.31654373614E+03  0.32059645031E+03  0.47000000000E+01 0.  1.
         11    1    6    6    0    0  0.14923694052E+02  0.29977837282E+02 -0.78933552422E+01  0.34404831481E+02  0.00000000000E+00 0. -1.
        -12    1    6    6    0    0 -0.52573846855E+02  0.16223974054E+02 -0.88056818270E+02  0.10383270174E+03  0.00000000000E+00 0.  1.
</event>
<event>
12    1  0.2689284E-002  0.1763453E+03  0.7818608E-02  0.1171388E+00
          1   -1    0    0  502    0  0.00000000000E+00  0.00000000000E+00  0.42543760578E+03  0.42543760578E+03  0.00000000000E+00 0.  1.
         -1   -1    0    0    0  501 -0.00000000000E+00 -0.00000000000E+00 -0.76824615609E+02  0.76824615609E+02  0.00000000000E+00 0. -1.
          6    2    1    2  502    0  0.26042084133E+02  0.23162738029E+01  0.22594908892E+03  0.28440688218E+03  0.17073584445E+03 0.  0.
         24    2    3    3    0    0 -0.35977797844E+02 -0.39421474109E+02  0.15117219374E+03  0.17856653348E+03  0.78641720227E+02 0.  0.
         -6    2    1    2    0  501 -0.26042084133E+02 -0.23162738029E+01  0.12266390125E+03  0.21785533920E+03  0.17813186374E+03 0.  0.
        -24    2    5    5    0    0 -0.31350296961E+02  0.66863243458E+02  0.56787416418E+02  0.12206502661E+03  0.78876648088E+02 0.  0.
          5    1    3    3  502    0  0.62019881977E+02  0.41737747911E+02  0.74776895176E+02  0.10584034870E+03  0.47000000000E+01 0. -1.
        -13    1    4    4    0    0  0.23822483419E+02 -0.15867562837E+02  0.30383239033E+02  0.41742442200E+02  0.00000000000E+00 0.  1.
         14    1    4    4    0    0 -0.59800281264E+02 -0.23553911271E+02  0.12078895471E+03  0.13682409128E+03  0.00000000000E+00 0. -1.
         -5    1    5    5    0  501  0.53082128283E+01 -0.69179517261E+02  0.65876484832E+02  0.95790312588E+02  0.47000000000E+01 0.  1.
         13    1    6    6    0    0 -0.50656054084E+01  0.28386775451E+02 -0.17968456605E+02  0.33975503107E+02  0.00000000000E+00 0. -1.
        -14    1    6    6    0    0 -0.26284691553E+02  0.38476468007E+02  0.74755873022E+02  0.88089523507E+02  0.00000000000E+00 0.  1.
</event>
<event>
12    1  0.2689284E-002  0.1895142E+03  0.7818608E-02  0.1158900E+00
         -1   -1    0    0    0  501 -0.00000000000E+00  0.00000000000E+00  0.20732206155E+04  0.20732206155E+04  0.00000000000E+00 0.  1.
          1   -1    0    0  502    0  0.00000000000E+00 -0.00000000000E+00 -0.18171628151E+02  0.18171628151E+02  0.00000000000E+00 0. -1.
          6    2    1    2  502    0 -0.83553740430E+02  0.68001868880E+01  0.12587094884E+04  0.12730515423E+04  0.17112329758E+03 0.  0.
         24    2    3    3    0    0 -0.49074204684E+02 -0.60878269337E+02  0.84170444738E+03  0.84915944979E+03  0.80566451968E+02 0.  0.
         -6    2    1    2    0  501  0.83553740430E+02 -0.68001868880E+01  0.79633949892E+03  0.81834070137E+03  0.16881183575E+03 0.  0.
        -24    2    5    5    0    0  0.59661580664E+02 -0.45563985316E+02  0.72848609131E+03  0.73648935873E+03  0.78032104455E+02 0.  0.
          5    1    3    3  502    0 -0.34479535746E+02  0.67678456225E+02  0.41700504101E+03  0.42389209246E+03  0.47000000000E+01 0. -1.
        -11    1    4    4    0    0  0.33290591285E+01  0.13392868934E+02  0.26281822692E+03  0.26318030317E+03  0.00000000000E+00 0.  1.
         12    1    4    4    0    0 -0.52403263812E+02 -0.74271138271E+02  0.57888622046E+03  0.58597914662E+03  0.00000000000E+00 0. -1.
         -5    1    5    5    0  501  0.23892159765E+02  0.38763798428E+02  0.67853407613E+02  0.81851342637E+02  0.47000000000E+01 0.  1.
         11    1    6    6    0    0  0.67864768010E+01  0.21059678231E+02  0.11212963004E+03  0.11429182056E+03  0.00000000000E+00 0. -1.
        -12    1    6    6    0    0  0.52875103863E+02 -0.66623663547E+02  0.61635646127E+03  0.62219753817E+03  0.00000000000E+00 0.  1.
</event>
<event>
12    1  0.2689284E-002  0.1760092E+03  0.7818608E-02  0.1171722E+00
          1   -1    0    0  502    0  0.00000000000E+00  0.00000000000E+00  0.73936871389E+03  0.73936871389E+03  0.00000000000E+00 0. -1.
         -1   -1    0    0    0  501 -0.00000000000E+00 -0.00000000000E+00 -0.47848464702E+02  0.47848464702E+02  0.00000000000E+00 0.  1.
          6    2    1    2  502    0 -0.14629856957E+02 -0.43192503761E+02  0.48832767226E+03  0.51985126246E+03  0.17234208568E+03 0.  0.
         24    2    3    3    0    0 -0.53947843902E+02  0.25696255438E+02  0.24973572859E+03  0.26837607318E+03  0.78019966138E+02 0.  0.
         -6    2    1    2    0  501  0.14629856957E+02  0.43192503761E+02  0.20319257692E+03  0.26736591612E+03  0.16768328686E+03 0.  0.
        -24    2    5    5    0    0  0.36063568367E+02 -0.32737004484E+02  0.12668960027E+03  0.15736823595E+03  0.79638021338E+02 0.  0.
          5    1    3    3  502    0  0.39317986946E+02 -0.68888759199E+02  0.23859194366E+03  0.25147518928E+03  0.47000000000E+01 0. -1.
        -13    1    4    4    0    0 -0.54901747957E+02  0.13849459021E+02  0.25015552788E+03  0.25648352301E+03  0.00000000000E+00 0.  1.
         14    1    4    4    0    0  0.95390405443E+00  0.11846796417E+02 -0.41979928796E+00  0.11892550178E+02  0.00000000000E+00 0. -1.
         -5    1    5    5    0  501 -0.21433711411E+02  0.75929508245E+02  0.76502976652E+02  0.10999768017E+03  0.47000000000E+01 0.  1.
         13    1    6    6    0    0  0.18215982350E+02 -0.58915444584E+02  0.83981539427E+02  0.10419093333E+03  0.00000000000E+00 0. -1.
        -14    1    6    6    0    0  0.17847586017E+02  0.26178440100E+02  0.42708060846E+02  0.53177302620E+02  0.00000000000E+00 0.  1.
</event>
<event>
12    1  0.2689284E-002  0.2803130E+03  0.7818608E-02  0.1095518E+00
          1   -1    0    0  502    0  0.00000000000E+00  0.00000000000E+00  0.40590957776E+03  0.40590957776E+03  0.00000000000E+00 0. -1.
         -1   -1    0    0    0  501 -0.00000000000E+00 -0.00000000000E+00 -0.20769516974E+03  0.20769516974E+03  0.00000000000E+00 0.  1.
          6    2    1    2  502    0  0.13870126168E+03 -0.16997877648E+03  0.17849558286E+03  0.33085450047E+03  0.17167761338E+03 0.  0.
         24    2    3    3    0    0  0.22165020880E+02 -0.73350068851E+02  0.13206306477E+03  0.17243773591E+03  0.80141118896E+02 0.  0.
         -6    2    1    2    0  501 -0.13870126168E+03  0.16997877648E+03  0.19718825163E+02  0.28275024703E+03  0.17727956928E+03 0.  0.
        -24    2    5    5    0    0 -0.68183633328E+02  0.95479207033E+02  0.80678284213E+02  0.16333053591E+03  0.80016195789E+02 0.  0.
          5    1    3    3  502    0  0.11653624080E+03 -0.96628707625E+02  0.46432518088E+02  0.15841676456E+03  0.47000000000E+01 0. -1.
        -11    1    4    4    0    0  0.42002650528E+02 -0.21149171180E+02  0.93231511493E+02  0.10442042342E+03  0.00000000000E+00 0.  1.
         12    1    4    4    0    0 -0.19837629648E+02 -0.52200897672E+02  0.38831553281E+02  0.68017312488E+02  0.00000000000E+00 0. -1.
         -5    1    5    5    0  501 -0.70517628354E+02  0.74499569444E+02 -0.60959459050E+02  0.11941971112E+03  0.47000000000E+01 0.  1.
         11    1    6    6    0    0 -0.82461578206E+02  0.59889961871E+02  0.69608365756E+02  0.12341816721E+03  0.00000000000E+00 0. -1.
        -12    1    6    6    0    0  0.14277944878E+02  0.35589245163E+02  0.11069918457E+02  0.39912368707E+02  0.00000000000E+00 0.  1.
</event>
<event>
12    1  0.2689284E-002  0.1793125E+03  0.7818608E-02  0.1168470E+00
          1   -1    0    0  502    0  0.00000000000E+00  0.00000000000E+00  0.28082169158E+03  0.28082169158E+03  0.00000000000E+00 0.  1.
         -1   -1    0    0    0  501 -0.00000000000E+00 -0.00000000000E+00 -0.12892505580E+03  0.12892505580E+03  0.00000000000E+00 0. -1.
          6    2    1    2  502    0  0.45540213685E+02  0.27022005923E+02  0.79310162209E+01  0.18083257359E+03  0.17272353281E+03 0.  0.
         24    2    3    3    0    0 -0.19523973482E+01  0.44900408055E+00  0.64055530501E+02  0.10251448096E+03  0.80013088670E+02 0.  0.
         -6    2    1    2    0  501 -0.45540213685E+02 -0.27022005923E+02  0.14396561955E+03  0.22891417380E+03  0.16991615428E+03 0.  0.
        -24    2    5    5    0    0 -0.72597891223E+02 -0.34838954600E+02  0.38116329159E+02  0.11928121854E+03  0.79315496473E+02 0.  0.
          5    1    3    3  502    0  0.47492611033E+02  0.26573001842E+02 -0.56124514280E+02  0.78318092627E+02  0.47000000000E+01 0. -1.
        -11    1    4    4    0    0 -0.82723831926E+01  0.31338948467E+02  0.63137633876E+02  0.70971281700E+02  0.00000000000E+00 0.  1.
         12    1    4    4    0    0  0.63199858444E+01 -0.30889944386E+02  0.91789662478E+00  0.31543199259E+02  0.00000000000E+00 0. -1.
         -5    1    5    5    0  501  0.27057677538E+02  0.78169486771E+01  0.10584929040E+03  0.10963295525E+03  0.47000000000E+01 0.  1.
         13    1    6    6    0    0 -0.52370711791E+02  0.18108118139E+02  0.11191118232E+02  0.56531730234E+02  0.00000000000E+00 0. -1.
        -14    1    6    6    0    0 -0.20227179432E+02 -0.52947072739E+02  0.26925210927E+02  0.62749488308E+02  0.00000000000E+00 0.  1.
</event>
<event>
12    1  0.2689284E-002  0.1862384E+03  0.7818608E-02  0.1161898E+00
         -1   -1    0    0    0  501 -0.00000000000E+00  0.00000000000E+00  0.23266806448E+03  0.23266806448E+03  0.00000000000E+00 0.  1.
          1   -1    0    0  502    0  0.00000000000E+00 -0.00000000000E+00 -0.22169225096E+03  0.22169225096E+03  0.00000000000E+00 0. -1.
          6    2    1    2  502    0 -0.54708275702E+02  0.20434303188E+02 -0.12455010127E+03  0.22313777216E+03  0.17569058443E+03 0.  0.
         24    2    3    3    0    0 -0.78774644202E+02  0.52025218283E+02 -0.13468301332E+03  0.18188317343E+03  0.77652474486E+02 0.  0.
         -6    2    1    2    0  501  0.54708275702E+02 -0.20434303188E+02  0.13552591480E+03  0.23122254329E+03  0.17800571555E+03 0.  0.
        -24    2    5    5    0    0  0.12107978921E+02 -0.67450566470E+02  0.13024414758E+03  0.16738445620E+03  0.79736040323E+02 0.  0.
          5    1    3    3  502    0  0.24066368501E+02 -0.31590915095E+02  0.10132912046E+02  0.41254598724E+02  0.47000000000E+01 0. -1.
        -13    1    4    4    0    0  0.39683521662E+01  0.33072455669E+02 -0.18840552920E+02  0.38268806844E+02  0.00000000000E+00 0.  1.
         14    1    4    4    0    0 -0.82742996369E+02  0.18952762614E+02 -0.11584246040E+03  0.14361436659E+03  0.00000000000E+00 0. -1.
         -5    1    5    5    0  501  0.42600296780E+02  0.47016263283E+02  0.52817672121E+01  0.63838087093E+02  0.47000000000E+01 0.  1.
         11    1    6    6    0    0  0.42047374904E+00  0.26612651241E+01 -0.98921550828E+01  0.10252505178E+02  0.00000000000E+00 0. -1.
        -12    1    6    6    0    0  0.11687505172E+02 -0.70111831595E+02  0.14013630267E+03  0.15713195102E+03  0.00000000000E+00 0.  1.
</event>
<event>
12    1  0.2689284E-002  0.1806704E+03  0.7818608E-02  0.1167156E+00
          2   -1    0    0  502    0  0.00000000000E+00  0.00000000000E+00  0.17860411666E+04  0.17860411666E+04  0.00000000000E+00 0. -1.
         -2   -1    0    0    0  501 -0.00000000000E+00 -0.00000000000E+00 -0.18865948901E+02  0.18865948901E+02  0.00000000000E+00 0.  1.
          6    2    1    2  502    0 -0.53039597574E+02 -0.23357420356E+02  0.10481788940E+04  0.10638197871E+04  0.17226368646E+03 0.  0.
         24    2    3    3    0    0 -0.19638565178E+02 -0.30319144515E+02  0.10043857803E+04  0.10081060422E+04  0.78626158987E+02 0.  0.
         -6    2    1    2    0  501  0.53039597574E+02  0.23357420356E+02  0.71899632366E+03  0.74108732833E+03  0.16998807834E+03 0.  0.
        -24    2    5    5    0    0  0.98408954874E+02  0.18575561882E+02  0.61163031321E+03  0.62433633282E+03  0.75331550787E+02 0.  0.
          5    1    3    3  502    0 -0.33401032396E+02  0.69617241595E+01  0.43793113744E+02  0.55713744981E+02  0.47000000000E+01 0. -1.
        -13    1    4    4    0    0 -0.94448410518E+01 -0.44497717529E+02  0.29336084203E+03  0.29686669655E+03  0.00000000000E+00 0.  1.
         14    1    4    4    0    0 -0.10193724126E+02  0.14178573013E+02  0.71102493824E+03  0.71123934561E+03  0.00000000000E+00 0. -1.
         -5    1    5    5    0  501 -0.45369357300E+02  0.47818584740E+01  0.10736601045E+03  0.11675099551E+03  0.47000000000E+01 0.  1.
         13    1    6    6    0    0  0.17668872903E+02 -0.26816414646E+02  0.18504056487E+03  0.18780660215E+03  0.00000000000E+00 0. -1.
        -14    1    6    6    0    0  0.80740081971E+02  0.45391976527E+02  0.42658974834E+03  0.43652973067E+03  0.00000000000E+00 0.  1.
</event>
<event>
12    1  0.2689284E-002  0.1781729E+03  0.7818608E-02  0.1169583E+00
         -1   -1    0    0    0  501 -0.00000000000E+00  0.00000000000E+00  0.58425750173E+02  0.58425750173E+02  0.00000000000E+00 0.  1.
          1   -1    0    0  502    0  0.00000000000E+00 -0.00000000000E+00 -0.75568930542E+03  0.75568930542E+03  0.00000000000E+00 0. -1.
          6    2    1    2  502    0 -0.54416208823E+01  0.51464569115E+02 -0.56392091384E+03  0.59129518492E+03  0.17013225895E+03 0.  0.
         24    2    3    3    0    0 -0.14356860014E+02  0.19674942744E+02 -0.54882543398E+03  0.55468882829E+03  0.76662353517E+02 0.  0.
         -6    2    1    2    0  501  0.54416208823E+01 -0.51464569115E+02 -0.13334264140E+03  0.22281987067E+03  0.17085146074E+03 0.  0.
        -24    2    5    5    0    0  0.23596848564E+02 -0.44142362703E+02 -0.16216542658E+03  0.18766208427E+03  0.80087907011E+02 0.  0.
          5    1    3    3  502    0  0.89152391319E+01  0.31789626371E+02 -0.15095479859E+02  0.36606356631E+02  0.47000000000E+01 0. -1.
        -13    1    4    4    0    0  0.65812788874E+01 -0.25553532416E+02 -0.11388140169E+03  0.11689854534E+03  0.00000000000E+00 0.  1.
         14    1    4    4    0    0 -0.20938138902E+02  0.45228475160E+02 -0.43494403229E+03  0.43779028296E+03  0.00000000000E+00 0. -1.
         -5    1    5    5    0  501 -0.18155227682E+02 -0.73222064128E+01  0.28822785174E+02  0.35157786394E+02  0.47000000000E+01 0.  1.
         13    1    6    6    0    0 -0.25006244761E+02 -0.27839113958E+02 -0.38010626179E+02  0.53339818574E+02  0.00000000000E+00 0. -1.
        -14    1    6    6    0    0  0.48603093325E+02 -0.16303248745E+02 -0.12415480040E+03  0.13432226570E+03  0.00000000000E+00 0.  1.
</event>
<event>
12    1  0.2689284E-002  0.1877157E+03  0.7818608E-02  0.1160538E+00
         -1   -1    0    0    0  501 -0.00000000000E+00  0.00000000000E+00  0.48991260906E+02  0.48991260906E+02  0.00000000000E+00 0. -1.
          1   -1    0    0  502    0  0.00000000000E+00 -0.00000000000E+00 -0.79676843760E+03  0.79676843760E+03  0.00000000000E+00 0.  1.
          6    2    1    2  502    0 -0.86819728250E+01 -0.74457891272E+02 -0.24213583263E+03  0.30642688838E+03  0.17218688177E+03 0.  0.
         24    2    3    3    0    0 -0.39004524498E+02 -0.93304518845E+02 -0.23657350426E+03  0.26998951735E+03  0.81854935054E+02 0.  0.
         -6    2    1    2    0  501  0.86819728250E+01  0.74457891272E+02 -0.50564134406E+03  0.53933281012E+03  0.17200975852E+03 0.  0.
        -24    2    5    5    0    0 -0.41731196325E+02  0.48858182632E+02 -0.16635875500E+03  0.19533920851E+03  0.79709198097E+02 0.  0.
          5    1    3    3  502    0  0.30322551673E+02  0.18846627574E+02 -0.55623283720E+01  0.36437371033E+02  0.47000000000E+01 0. -1.
        -13    1    4    4    0    0  0.56845236256E+01 -0.70821721937E+02 -0.18483888076E+03  0.19802384187E+03  0.00000000000E+00 0.  1.
         14    1    4    4    0    0 -0.44689048124E+02 -0.22482796909E+02 -0.51734623498E+02  0.71965675482E+02  0.00000000000E+00 0. -1.
         -5    1    5    5    0  501  0.50413169150E+02  0.25599708640E+02 -0.33928258906E+03  0.34399360160E+03  0.47000000000E+01 0.  1.
         13    1    6    6    0    0 -0.11403871007E+02  0.33812152900E+02 -0.12514959284E+02  0.37814470293E+02  0.00000000000E+00 0. -1.
        -14    1    6    6    0    0 -0.30327325318E+02  0.15046029732E+02 -0.15384379572E+03  0.15752473822E+03  0.00000000000E+00 0.  1.
</event>
<event>
12    1  0.2689284E-002  0.2532925E+03  0.7818608E-02  0.1111242E+00
         -3   -1    0    0    0  501 -0.00000000000E+00  0.00000000000E+00  0.33926710819E+04  0.33926710819E+04  0.00000000000E+00 0.  1.
          3   -1    0    0  502    0  0.00000000000E+00 -0.00000000000E+00 -0.23317909499E+02  0.23317909499E+02  0.00000000000E+00 0. -1.
          6    2    1    2  502    0 -0.43373728388E+02  0.18057698152E+03  0.95894072450E+03  0.99262155302E+03  0.17675097692E+03 0.  0.
         24    2    3    3    0    0 -0.94893869053E+02  0.10218903976E+03  0.67049397176E+03  0.68926926034E+03  0.77990389465E+02 0.  0.
         -6    2    1    2    0  501  0.43373728388E+02 -0.18057698152E+03  0.24104124479E+04  0.24233674384E+04  0.16772669985E+03 0.  0.
        -24    2    5    5    0    0  0.65747836340E+02 -0.16340699036E+03  0.14928072633E+04  0.15053169092E+04  0.80503722371E+02 0.  0.
          5    1    3    3  502    0  0.51520140665E+02  0.78387941765E+02  0.28844675274E+03  0.30335229268E+03  0.47000000000E+01 0. -1.
        -11    1    4    4    0    0 -0.19710829733E+02  0.18997980005E+02  0.32241426566E+03  0.32357440992E+03  0.00000000000E+00 0.  1.
         12    1    4    4    0    0 -0.75183039321E+02  0.83191059751E+02  0.34807970610E+03  0.36569485042E+03  0.00000000000E+00 0. -1.
         -5    1    5    5    0  501 -0.22374107952E+02 -0.17169991165E+02  0.91760518458E+03  0.91805052915E+03  0.47000000000E+01 0.  1.
         11    1    6    6    0    0  0.24007197954E+02 -0.75614296329E+02  0.37552151503E+03  0.38381020780E+03  0.00000000000E+00 0. -1.
        -12    1    6    6    0    0  0.41740638386E+02 -0.87792694027E+02  0.11172857483E+04  0.11215067014E+04  0.00000000000E+00 0.  1.
</event>
<event>
12    1  0.2689284E-002  0.1835642E+03  0.7818608E-02  0.1164398E+00
         -2   -1    0    0    0  501 -0.00000000000E+00  0.00000000000E+00  0.97966508565E+02  0.97966508565E+02  0.00000000000E+00 0. -1.
          2   -1    0    0  502    0  0.00000000000E+00 -0.00000000000E+00 -0.43427163949E+03  0.43427163949E+03  0.00000000000E+00 0.  1.
          6    2    1    2  502    0 -0.46835488328E+02  0.46184769041E+02 -0.28927234047E+03  0.34242085323E+03  0.17101741989E+03 0.  0.
         24    2    3    3    0    0 -0.74040148381E+01 -0.36731475306E+02 -0.11036923486E+03  0.14127822752E+03  0.79838266858E+02 0.  0.
         -6    2    1    2    0  501  0.46835488328E+02 -0.46184769041E+02 -0.47032790454E+02  0.18981729483E+03  0.17173213496E+03 0.  0.
        -24    2    5    5    0    0 -0.23703645155E+02  0.99961651743E+01 -0.54576097281E+02  0.99202405322E+02  0.78745036132E+02 0.  0.
          5    1    3    3  502    0 -0.39431473490E+02  0.82916244348E+02 -0.17890310561E+03  0.20114262571E+03  0.47000000000E+01 0. -1.
        -13    1    4    4    0    0  0.11242691606E+02 -0.53390036940E+02 -0.10058087541E+03  0.11442642465E+03  0.00000000000E+00 0.  1.
         14    1    4    4    0    0 -0.18646706445E+02  0.16658561634E+02 -0.97883594443E+01  0.26851802873E+02  0.00000000000E+00 0. -1.
         -5    1    5    5    0  501  0.70539133483E+02 -0.56180934216E+02  0.75433068270E+01  0.90614889504E+02  0.47000000000E+01 0.  1.
         13    1    6    6    0    0 -0.51222950246E+02  0.31437565802E+01 -0.21521634741E+02  0.55649389927E+02  0.00000000000E+00 0. -1.
        -14    1    6    6    0    0  0.27519305091E+02  0.68524085941E+01 -0.33054462539E+02  0.43553015395E+02  0.00000000000E+00 0.  1.
</event>
<event>
12    1  0.2689284E-002  0.2375626E+03  0.7818608E-02  0.1121427E+00
         -1   -1    0    0    0  501 -0.00000000000E+00  0.00000000000E+00  0.39295624834E+02  0.39295624834E+02  0.00000000000E+00 0.  1.
          1   -1    0    0  502    0  0.00000000000E+00 -0.00000000000E+00 -0.18290028157E+04  0.18290028157E+04  0.00000000000E+00 0. -1.
          6    2    1    2  502    0 -0.12694328010E+03 -0.10357886285E+03 -0.13266220888E+04  0.13476568165E+04  0.17149213241E+03 0.  0.
         24    2    3    3    0    0 -0.69694425637E+02 -0.77288630892E+01 -0.89981374973E+03  0.90646286588E+03  0.84220512569E+02 0.  0.
         -6    2    1    2    0  501  0.12694328010E+03  0.10357886285E+03 -0.46308510209E+03  0.52064162402E+03  0.17255929906E+03 0.  0.
        -24    2    5    5    0    0  0.77499266457E+02  0.31006720447E+02 -0.38702915657E+03  0.40437459006E+03  0.82217321981E+02 0.  0.
          5    1    3    3  502    0 -0.57248854458E+02 -0.95849999763E+02 -0.42680833903E+03  0.44119395061E+03  0.47000000000E+01 0. -1.
        -13    1    4    4    0    0 -0.59805894309E+01 -0.97454744750E+01 -0.12807469357E+02  0.17168954366E+02  0.00000000000E+00 0.  1.
         14    1    4    4    0    0 -0.63713836206E+02  0.20166113858E+01 -0.88700628037E+03  0.88929391152E+03  0.00000000000E+00 0. -1.
         -5    1    5    5    0  501  0.49444013638E+02  0.72572142405E+02 -0.76055945523E+02  0.11626703397E+03  0.47000000000E+01 0.  1.
         13    1    6    6    0    0  0.11311257323E+02  0.96554808834E+01 -0.25245025693E+03  0.25288792988E+03  0.00000000000E+00 0. -1.
        -14    1    6    6    0    0  0.66188009134E+02  0.21351239564E+02 -0.13457889964E+03  0.15148666018E+03  0.00000000000E+00 0.  1.
</event>
<event>
12    1  0.2689284E-002  0.3027753E+03  0.7818608E-02  0.1083861E+00
         -1   -1    0    0    0  501 -0.00000000000E+00  0.00000000000E+00  0.50081131293E+02  0.50081131293E+02  0.00000000000E+00 0.  1.
          1   -1    0    0  502    0  0.00000000000E+00 -0.00000000000E+00 -0.20102317259E+04  0.20102317259E+04  0.00000000000E+00 0. -1.
          6    2    1    2  502    0 -0.18711282830E+03 -0.16428436974E+03 -0.12889041536E+04  0.13240503447E+04  0.17272762813E+03 0.  0.
         24    2    3    3    0    0 -0.22405859880E+02 -0.45542252262E+02 -0.51910467474E+03  0.52790877215E+03  0.81497785743E+02 0.  0.
         -6    2    1    2    0  501  0.18711282830E+03  0.16428436974E+03 -0.67124644101E+03  0.73626251248E+03  0.17178515087E+03 0.  0.
        -24    2    5    5    0    0  0.66833732570E+02  0.28609764647E+02 -0.16156245757E+03  0.19526850853E+03  0.82110269059E+02 0.  0.
          5    1    3    3  502    0 -0.16470696842E+03 -0.11874211747E+03 -0.76979947889E+03  0.79614157259E+03  0.47000000000E+01 0. -1.
        -13    1    4    4    0    0  0.83595376664E+00  0.13019836960E+02 -0.14991743000E+02  0.19873785028E+02  0.00000000000E+00 0.  1.
         14    1    4    4    0    0 -0.23241813647E+02 -0.58562089222E+02 -0.50411293174E+03  0.50803498712E+03  0.00000000000E+00 0. -1.
         -5    1    5    5    0  501  0.12027909573E+03  0.13567460509E+03 -0.50968398343E+03  0.54099400395E+03  0.47000000000E+01 0.  1.
         11    1    6    6    0    0  0.28653175828E+02  0.21018115821E+02 -0.74400535406E+01  0.36305923406E+02  0.00000000000E+00 0. -1.
        -12    1    6    6    0    0  0.38180556742E+02  0.75916488261E+01 -0.15412240403E+03  0.15896258513E+03  0.00000000000E+00 0.  1.
</event>
<event>
12    1  0.2689284E-002  0.1720968E+03  0.7818608E-02  0.1175679E+00
          2   -1    0    0  502    0  0.00000000000E+00  0.00000000000E+00  0.42770493143E+03  0.42770493143E+03  0.00000000000E+00 0. -1.
         -2   -1    0    0    0  501 -0.00000000000E+00 -0.00000000000E+00 -0.95466130355E+02  0.95466130355E+02  0.00000000000E+00 0.  1.
          6    2    1    2  502    0 -0.83181071463E+00 -0.17288611671E+02  0.29463034585E+02  0.17520453888E+03  0.17183996053E+03 0.  0.
         24    2    3    3    0    0  0.36845087585E+01 -0.34304717882E+02 -0.45212967503E+02  0.98337508887E+02  0.80222590023E+02 0.  0.
         -6    2    1    2    0  501  0.83181071463E+00  0.17288611671E+02  0.30277576648E+03  0.34796652290E+03  0.17061051634E+03 0.  0.
        -24    2    5    5    0    0  0.45310493009E+02  0.57833518757E+02  0.16543786377E+03  0.19794641695E+03  0.80095821010E+02 0.  0.
          5    1    3    3  502    0 -0.45163194732E+01  0.17016106211E+02  0.74676002089E+02  0.76867029994E+02  0.47000000000E+01 0. -1.
        -13    1    4    4    0    0 -0.30761282163E+02 -0.32438571374E+02 -0.45573473538E+02  0.63839320825E+02  0.00000000000E+00 0.  1.
         14    1    4    4    0    0  0.34445790922E+02 -0.18661465085E+01  0.36050603449E+00  0.34498188063E+02  0.00000000000E+00 0. -1.
         -5    1    5    5    0  501 -0.44478682294E+02 -0.40544907086E+02  0.13733790271E+03  0.15002010595E+03  0.47000000000E+01 0.  1.
         11    1    6    6    0    0  0.20145853940E+02 -0.10561147553E+02  0.90895521340E+02  0.93698394161E+02  0.00000000000E+00 0. -1.
        -12    1    6    6    0    0  0.25164639069E+02  0.68394666310E+02  0.74542342433E+02  0.10424802278E+03  0.00000000000E+00 0.  1.
</event>
<event>
12    1  0.2689284E-002  0.1956006E+03  0.7818608E-02  0.1153505E+00
         -2   -1    0    0    0  501 -0.00000000000E+00  0.00000000000E+00  0.38940610135E+02  0.38940610135E+02  0.00000000000E+00 0. -1.
          2   -1    0    0  502    0  0.00000000000E+00 -0.00000000000E+00 -0.98368399798E+03  0.98368399798E+03  0.00000000000E+00 0.  1.
          6    2    1    2  502    0 -0.95365799655E+02 -0.23310476797E+02 -0.45835693336E+03  0.49888440987E+03  0.17075292672E+03 0.  0.
         24    2    3    3    0    0  0.13436426017E+02 -0.28803920175E+02 -0.22260834051E+03  0.23913916687E+03  0.81380983684E+02 0.  0.
         -6    2    1    2    0  501  0.95365799655E+02  0.23310476797E+02 -0.48638645448E+03  0.52374019824E+03  0.16761264295E+03 0.  0.
        -24    2    5    5    0    0  0.12545439234E+03  0.21521687115E+02 -0.45769876390E+03  0.48186422937E+03  0.80641115426E+02 0.  0.
          5    1    3    3  502    0 -0.10880222567E+03  0.54934433777E+01 -0.23574859285E+03  0.25974524300E+03  0.47000000000E+01 0. -1.
        -11    1    4    4    0    0 -0.14845099693E+02 -0.26241263229E+02 -0.20153277559E+03  0.20377546593E+03  0.00000000000E+00 0.  1.
         12    1    4    4    0    0  0.28281525710E+02 -0.25626569458E+01 -0.21075564923E+02  0.35363700937E+02  0.00000000000E+00 0. -1.
         -5    1    5    5    0  501 -0.30088592682E+02  0.17887896823E+01 -0.28687690587E+02  0.41875968876E+02  0.47000000000E+01 0.  1.
         13    1    6    6    0    0  0.63844853687E+02  0.25147482311E+02 -0.11713883310E+03  0.13575738444E+03  0.00000000000E+00 0. -1.
        -14    1    6    6    0    0  0.61609538650E+02 -0.36257951962E+01 -0.34055993079E+03  0.34610684493E+03  0.00000000000E+00 0.  1.
</event>
<event>
12    1  0.2689284E-002  0.2268754E+03  0.7818608E-02  0.1128859E+00
          2   -1    0    0  502    0  0.00000000000E+00  0.00000000000E+00  0.55153280571E+03  0.55153280571E+03  0.00000000000E+00 0.  1.
         -2   -1    0    0    0  501 -0.00000000000E+00 -0.00000000000E+00 -0.10055263738E+03  0.10055263738E+03  0.00000000000E+00 0. -1.
          6    2    1    2  502    0 -0.48055844043E+02  0.14007619000E+03  0.31316138068E+03  0.38687682745E+03  0.17225831218E+03 0.  0.
         24    2    3    3    0    0 -0.95137157713E+02  0.70503581500E+02  0.20842201273E+03  0.25252868586E+03  0.79430271365E+02 0.  0.
         -6    2    1    2    0  501  0.48055844043E+02 -0.14007619000E+03  0.13781878765E+03  0.26520861564E+03  0.17149603036E+03 0.  0.
        -24    2    5    5    0    0  0.50607787233E+02 -0.13351442226E+03  0.16753072134E+03  0.23431430849E+03  0.80308178241E+02 0.  0.
          5    1    3    3  502    0  0.47081313670E+02  0.69572608499E+02  0.10473936795E+03  0.13434814159E+03  0.47000000000E+01 0. -1.
        -13    1    4    4    0    0 -0.24422679491E+02  0.29050895675E+02  0.14212439003E+03  0.14710460242E+03  0.00000000000E+00 0.  1.
         14    1    4    4    0    0 -0.70714478222E+02  0.41452685826E+02  0.66297622700E+02  0.10542408343E+03  0.00000000000E+00 0. -1.
         -5    1    5    5    0  501 -0.25519431908E+01 -0.65617677375E+01 -0.29711933694E+02  0.30894307141E+02  0.47000000000E+01 0.  1.
         13    1    6    6    0    0  0.45695295664E+02 -0.21145663609E+02  0.40278653684E+02  0.64479214309E+02  0.00000000000E+00 0. -1.
        -14    1    6    6    0    0  0.49124915694E+01 -0.11236875865E+03  0.12725206766E+03  0.16983509419E+03  0.00000000000E+00 0.  1.
</event>
<event>
12    1  0.2689284E-002  0.2104909E+03  0.7818608E-02  0.1141178E+00
         -1   -1    0    0    0  501 -0.00000000000E+00  0.00000000000E+00  0.15604518351E+03  0.15604518351E+03  0.00000000000E+00 0. -1.
          1   -1    0    0  502    0  0.00000000000E+00 -0.00000000000E+00 -0.33658798686E+03  0.33658798686E+03  0.00000000000E+00 0.  1.
          6    2    1    2  502    0 -0.12169896911E+03  0.96617868438E+01  0.70514380254E+01  0.21088509598E+03  0.17181039468E+03 0.  0.
         24    2    3    3    0    0 -0.99936189824E+02  0.70015113717E+02 -0.56109995333E+01  0.14532161566E+03  0.78724395686E+02 0.  0.
         -6    2    1    2    0  501  0.12169896911E+03 -0.96617868438E+01 -0.18759424137E+03  0.28174807439E+03  0.17113266439E+03 0.  0.
        -24    2    5    5    0    0  0.12166747240E+03  0.15259029779E+02 -0.71398178192E+02  0.16281673625E+03  0.79848468518E+02 0.  0.
          5    1    3    3  502    0 -0.21762779281E+02 -0.60353326874E+02  0.12662437559E+02  0.65563480320E+02  0.47000000000E+01 0. -1.
        -13    1    4    4    0    0 -0.88653930822E+02  0.16377177607E+02 -0.76014824925E+01  0.90473830098E+02  0.00000000000E+00 0.  1.
         14    1    4    4    0    0 -0.11282259002E+02  0.53637936110E+02  0.19904829592E+01  0.54847785559E+02  0.00000000000E+00 0. -1.
         -5    1    5    5    0  501  0.31496706702E-01 -0.24920816623E+02 -0.11619606318E+03  0.11893133814E+03  0.47000000000E+01 0.  1.
         11    1    6    6    0    0  0.37027669697E+02  0.43416628232E+02 -0.30220915392E+02  0.64570547909E+02  0.00000000000E+00 0. -1.
        -12    1    6    6    0    0  0.84639802702E+02 -0.28157598452E+02 -0.41177262799E+02  0.98246188342E+02  0.00000000000E+00 0.  1.
</event>
<event>
12    1  0.2689284E-002  0.1755744E+03  0.7818608E-02  0.1172156E+00
          2   -1    0    0  502    0  0.00000000000E+00  0.00000000000E+00  0.25532614192E+03  0.25532614192E+03  0.00000000000E+00 0. -1.
         -2   -1    0    0    0  501 -0.00000000000E+00 -0.00000000000E+00 -0.12073783957E+03  0.12073783957E+03  0.00000000000E+00 0.  1.
          6    2    1    2  502    0  0.15842514932E+01 -0.33663917154E+02  0.66078701639E+02  0.18722662068E+03  0.17190591470E+03 0.  0.
         24    2    3    3    0    0 -0.23445665380E+02  0.31668294730E+02  0.28638082868E+00  0.91073024144E+02  0.82107451529E+02 0.  0.
         -6    2    1    2    0  501 -0.15842514932E+01  0.33663917154E+02  0.68509600715E+02  0.18883736081E+03  0.17271425615E+03 0.  0.
        -24    2    5    5    0    0  0.48392666549E+01 -0.21338207670E+02 -0.20000479542E+02  0.84326023494E+02  0.78943786634E+02 0.  0.
          5    1    3    3  502    0  0.25029916873E+02 -0.65332211884E+02  0.65792320810E+02  0.96153596531E+02  0.47000000000E+01 0. -1.
        -13    1    4    4    0    0 -0.49393010650E+02  0.15640946465E+02  0.19122903746E+02  0.55226752168E+02  0.00000000000E+00 0.  1.
         14    1    4    4    0    0  0.25947345270E+02  0.16027348265E+02 -0.18836522917E+02  0.35846271976E+02  0.00000000000E+00 0. -1.
         -5    1    5    5    0  501 -0.64235181481E+01  0.55002124824E+02  0.88510080257E+02  0.10451133732E+03  0.47000000000E+01 0.  1.
         11    1    6    6    0    0 -0.27978347684E+01  0.21956401934E+02  0.16157319644E+02  0.27403839938E+02  0.00000000000E+00 0. -1.
        -12    1    6    6    0    0  0.76371014233E+01 -0.43294609603E+02 -0.36157799186E+02  0.56922183556E+02  0.00000000000E+00 0.  1.
</event>
<event>
12    1  0.2689284E-002  0.1704016E+03  0.7818608E-02  0.1177430E+00
          2   -1    0    0  502    0  0.00000000000E+00  0.00000000000E+00  0.13169652485E+04  0.13169652485E+04  0.00000000000E+00 0.  1.
         -2   -1    0    0    0  501 -0.00000000000E+00 -0.00000000000E+00 -0.26748681302E+02  0.26748681302E+02  0.00000000000E+00 0. -1.
          6    2    1    2  502    0 -0.15280444893E+02 -0.99221771872E+01  0.38068806358E+03  0.41930324483E+03  0.17481380888E+03 0.  0.
         24    2    3    3    0    0 -0.72177740874E+02  0.13220768639E+02  0.28755711730E+03  0.30764142778E+03  0.81053916478E+02 0.  0.
         -6    2    1    2    0  501  0.15280444893E+02  0.99221771872E+01  0.90952850361E+03  0.92441068496E+03  0.16419827648E+03 0.  0.
        -24    2    5    5    0    0 -0.27456700070E+02  0.34599847513E+02  0.78727958272E+03  0.79249275733E+03  0.79275527279E+02 0.  0.
          5    1    3    3  502    0  0.56897295981E+02 -0.23142945826E+02  0.93130946278E+02  0.11166181705E+03  0.47000000000E+01 0. -1.
        -13    1    4    4    0    0 -0.20164669692E+02 -0.57873523537E+01  0.21669204960E+03  0.21770519449E+03  0.00000000000E+00 0.  1.
         14    1    4    4    0    0 -0.52013071182E+02  0.19008120993E+02  0.70865067705E+02  0.89936233290E+02  0.00000000000E+00 0. -1.
         -5    1    5    5    0  501  0.42737144963E+02 -0.24677670326E+02  0.12224892088E+03  0.13191792763E+03  0.47000000000E+01 0.  1.
         11    1    6    6    0    0 -0.19220286237E+02 -0.52446347559E+01  0.46394677658E+02  0.50491501381E+02  0.00000000000E+00 0. -1.
        -12    1    6    6    0    0 -0.82364138337E+01  0.39844482269E+02  0.74088490507E+03  0.74200125595E+03  0.00000000000E+00 0.  1.
</event>
<event>
12    1  0.2689284E-002  0.3024649E+03  0.7818608E-02  0.1084015E+00
          2   -1    0    0  502    0  0.00000000000E+00  0.00000000000E+00  0.41577643191E+03  0.41577643191E+03  0.00000000000E+00 0. -1.
         -2   -1    0    0    0  501 -0.00000000000E+00 -0.00000000000E+00 -0.23783021306E+03  0.23783021306E+03  0.00000000000E+00 0.  1.
          6    2    1    2  502    0 -0.22718186210E+03 -0.96368779818E+02  0.17770692145E+03  0.34882886988E+03  0.17088970227E+03 0.  0.
         24    2    3    3    0    0 -0.18476883888E+03 -0.23379517967E+02  0.16848574368E+03  0.26377937251E+03  0.80659691648E+02 0.  0.
         -6    2    1    2    0  501  0.22718186210E+03  0.96368779818E+02  0.23929740536E+00  0.30477777509E+03  0.17885998639E+03 0.  0.
        -24    2    5    5    0    0  0.18676339496E+03  0.73175282548E+02 -0.64189234815E+02  0.22512404595E+03  0.79532323766E+02 0.  0.
          5    1    3    3  502    0 -0.42413023226E+02 -0.72989261851E+02  0.92211777670E+01  0.85049497377E+02  0.47000000000E+01 0. -1.
        -13    1    4    4    0    0 -0.34329717555E+02 -0.38537391669E+02  0.47307210288E+02  0.70011657667E+02  0.00000000000E+00 0.  1.
         14    1    4    4    0    0 -0.15043912132E+03  0.15157873702E+02  0.12117853339E+03  0.19376771484E+03  0.00000000000E+00 0. -1.
         -5    1    5    5    0  501  0.40418467142E+02  0.23193497270E+02  0.64428532221E+02  0.79653729139E+02  0.47000000000E+01 0.  1.
         11    1    6    6    0    0  0.14692067720E+03  0.90216420391E+02 -0.49632207422E+02  0.17941026702E+03  0.00000000000E+00 0. -1.
        -12    1    6    6    0    0  0.39842717760E+02 -0.17041137843E+02 -0.14557027393E+02  0.45713778929E+02  0.00000000000E+00 0.  1.
</event>
<event>
12    1  0.2689284E-002  0.2105454E+03  0.7818608E-02  0.1141135E+00
         -2   -1    0    0    0  501 -0.00000000000E+00  0.00000000000E+00  0.49242418569E+02  0.49242418569E+02  0.00000000000E+00 0. -1.
          2   -1    0    0  502    0  0.00000000000E+00 -0.00000000000E+00 -0.90847123320E+03  0.90847123320E+03  0.00000000000E+00 0.  1.
          6    2    1    2  502    0  0.12249708730E+03 -0.17832951363E+02 -0.47584330176E+03  0.52046646287E+03  0.17068960306E+03 0.  0.
         24    2    3    3    0    0  0.15022715076E+03 -0.16405467637E+02 -0.45066222259E+03  0.48268854766E+03  0.83990826761E+02 0.  0.
         -6    2    1    2    0  501 -0.12249708730E+03  0.17832951363E+02 -0.38338551287E+03  0.43724718890E+03  0.16993264010E+03 0.  0.
        -24    2    5    5    0    0 -0.13709638636E+03 -0.25643762969E+02 -0.26364560337E+03  0.30893857598E+03  0.80504768931E+02 0.  0.
          5    1    3    3  502    0 -0.27730063463E+02 -0.14274837263E+01 -0.25181079170E+02  0.37777915210E+02  0.47000000000E+01 0. -1.
        -11    1    4    4    0    0 -0.33253217672E+01 -0.25987971966E+01 -0.94447895529E+02  0.94542141300E+02  0.00000000000E+00 0.  1.
         12    1    4    4    0    0  0.15355247253E+03 -0.13806670440E+02 -0.35621432706E+03  0.38814640636E+03  0.00000000000E+00 0. -1.
         -5    1    5    5    0  501  0.14599299057E+02  0.43476714333E+02 -0.11973990950E+03  0.12830861292E+03  0.47000000000E+01 0.  1.
         13    1    6    6    0    0 -0.37290633777E+02 -0.45653375407E+02 -0.10591804051E+03  0.12121655563E+03  0.00000000000E+00 0. -1.
        -14    1    6    6    0    0 -0.99805752579E+02  0.20009612438E+02 -0.15772756286E+03  0.18772202035E+03  0.00000000000E+00 0.  1.
</event>
<event>
12    1  0.2689284E-002  0.1726517E+03  0.7818608E-02  0.1175110E+00
         -4   -1    0    0    0  501 -0.00000000000E+00  0.00000000000E+00  0.19268275788E+03  0.19268275788E+03  0.00000000000E+00 0. -1.
          4   -1    0    0  502    0  0.00000000000E+00 -0.00000000000E+00 -0.16199965320E+03  0.16199965320E+03  0.00000000000E+00 0.  1.
          6    2    1    2  502    0 -0.78150980997E+01 -0.15723871136E+01 -0.22005534405E+02  0.17648246862E+03  0.17492361197E+03 0.  0.
         24    2    3    3    0    0 -0.25323772421E+02  0.67034947137E+02 -0.38760216414E+02  0.10356930548E+03  0.63947393021E+02 0.  0.
         -6    2    1    2    0  501  0.78150980997E+01  0.15723871136E+01  0.52688639081E+02  0.17819994247E+03  0.17004581338E+03 0.  0.
        -24    2    5    5    0    0  0.28036812233E+02 -0.16578120902E+02 -0.29302896704E+02  0.91695257019E+02  0.80550999198E+02 0.  0.
          5    1    3    3  502    0  0.17508674321E+02 -0.68607334251E+02  0.16754682009E+02  0.72913163138E+02  0.47000000000E+01 0. -1.
        -13    1    4    4    0    0 -0.21454570008E+02 -0.35100107154E+01  0.22871411396E+01  0.21859775022E+02  0.00000000000E+00 0.  1.
         14    1    4    4    0    0 -0.38692024132E+01  0.70544957853E+02 -0.41047357554E+02  0.81709530459E+02  0.00000000000E+00 0. -1.
         -5    1    5    5    0  501 -0.20221714134E+02  0.18150508016E+02  0.81991535785E+02  0.86504685446E+02  0.47000000000E+01 0.  1.
         13    1    6    6    0    0 -0.83659838060E+01 -0.39834506161E+02 -0.26156649754E+02  0.48383343131E+02  0.00000000000E+00 0. -1.
        -14    1    6    6    0    0  0.36402796039E+02  0.23256385259E+02 -0.31462469496E+01  0.43311913888E+02  0.00000000000E+00 0.  1.
</event>
<event>
12    1  0.2689284E-002  0.2003514E+03  0.7818608E-02  0.1149443E+00
         -2   -1    0    0    0  501 -0.00000000000E+00  0.00000000000E+00  0.97339750267E+02  0.97339750267E+02  0.00000000000E+00 0.  1.
          2   -1    0    0  502    0  0.00000000000E+00 -0.00000000000E+00 -0.41310126926E+03  0.41310126926E+03  0.00000000000E+00 0. -1.
          6    2    1    2  502    0 -0.28392863432E+02  0.10101206521E+03 -0.14772497761E+03  0.24943518396E+03  0.17142243137E+03 0.  0.
         24    2    3    3    0    0  0.43703527201E+02  0.88204031422E+02 -0.99700146277E+02  0.16174020294E+03  0.80807330298E+02 0.  0.
         -6    2    1    2    0  501  0.28392863432E+02 -0.10101206521E+03 -0.16803654138E+03  0.26100583556E+03  0.16993579655E+03 0.  0.
        -24    2    5    5    0    0  0.57703429142E+02 -0.56121894900E+02 -0.17342974713E+03  0.20691874541E+03  0.79108388880E+02 0.  0.
          5    1    3    3  502    0 -0.72096390634E+02  0.12808033785E+02 -0.48024831336E+02  0.87694981024E+02  0.47000000000E+01 0. -1.
        -13    1    4    4    0    0  0.22437806965E+02  0.86693299734E+02 -0.39496412493E+02  0.97873132166E+02  0.00000000000E+00 0.  1.
         14    1    4    4    0    0  0.21265720237E+02  0.15107316877E+01 -0.60203733784E+02  0.63867070772E+02  0.00000000000E+00 0. -1.
         -5    1    5    5    0  501 -0.29310565710E+02 -0.44890170308E+02  0.53932057547E+01  0.54087090149E+02  0.47000000000E+01 0.  1.
         11    1    6    6    0    0  0.28765016228E+02 -0.53004074966E+02 -0.16637866391E+03  0.17697095221E+03  0.00000000000E+00 0. -1.
        -12    1    6    6    0    0  0.28938412915E+02 -0.31178199339E+01 -0.70510832224E+01  0.29947793204E+02  0.00000000000E+00 0.  1.
</event>
<event>
12    1  0.2689284E-002  0.2101421E+03  0.7818608E-02  0.1141453E+00
         -1   -1    0    0    0  501 -0.00000000000E+00  0.00000000000E+00  0.11569431417E+03  0.11569431417E+03  0.00000000000E+00 0.  1.
          1   -1    0    0  502    0  0.00000000000E+00 -0.00000000000E+00 -0.64594359552E+03  0.64594359552E+03  0.00000000000E+00 0. -1.
          6    2    1    2  502    0  0.28169324149E+02  0.11788891474E+03 -0.21610474025E+02  0.21132890509E+03  0.17176025879E+03 0.  0.
         24    2    3    3    0    0 -0.13622902083E+02  0.61753306002E+02  0.48325927997E+02  0.11227847819E+03  0.79196004219E+02 0.  0.
         -6    2    1    2    0  501 -0.28169324149E+02 -0.11788891474E+03 -0.50863880733E+03  0.55030900460E+03  0.17156706323E+03 0.  0.
        -24    2    5    5    0    0  0.25939813294E+02 -0.33717489142E+02 -0.35793206802E+03  0.36934702265E+03  0.80573660892E+02 0.  0.
          5    1    3    3  502    0  0.41792226232E+02  0.56135608742E+02 -0.69936402022E+02  0.99050426905E+02  0.47000000000E+01 0. -1.
        -13    1    4    4    0    0 -0.42027793466E+02  0.38495570634E+02  0.76815047654E+01  0.57508694104E+02  0.00000000000E+00 0.  1.
         14    1    4    4    0    0  0.28404891383E+02  0.23257735367E+02  0.40644423231E+02  0.54769784085E+02  0.00000000000E+00 0. -1.
         -5    1    5    5    0  501 -0.54109137443E+02 -0.84171425601E+02 -0.15070673930E+03  0.18096198196E+03  0.47000000000E+01 0.  1.
         13    1    6    6    0    0  0.14509011124E+02 -0.24107656849E+02 -0.35224531945E+03  0.35336730975E+03  0.00000000000E+00 0. -1.
        -14    1    6    6    0    0  0.11430802170E+02 -0.96098322939E+01 -0.56867485709E+01  0.15979712897E+02  0.00000000000E+00 0.  1.
</event>
<event>
12    1  0.2689284E-002  0.1884784E+03  0.7818608E-02  0.1159841E+00
         -1   -1    0    0    0  501 -0.00000000000E+00  0.00000000000E+00  0.35963978167E+02  0.35963978167E+02  0.00000000000E+00 0.  1.
          1   -1    0    0  502    0  0.00000000000E+00 -0.00000000000E+00 -0.99423520359E+03  0.99423520359E+03  0.00000000000E+00 0. -1.
          6    2    1    2  502    0  0.25915197863E+02 -0.60104690956E+02 -0.50894625726E+03  0.54134697880E+03  0.17247054044E+03 0.  0.
         24    2    3    3    0    0  0.25612712967E+02 -0.79744857439E+02 -0.20016637676E+03  0.23190727184E+03  0.81848341440E+02 0.  0.
         -6    2    1    2    0  501 -0.25915197863E+02  0.60104690956E+02 -0.44932496816E+03  0.48885220296E+03  0.18110598546E+03 0.  0.
        -24    2    5    5    0    0  0.12707650008E+02  0.85075437948E+02 -0.41502780918E+03  0.43128791110E+03  0.79761302370E+02 0.  0.
          5    1    3    3  502    0  0.30248489636E+00  0.19640166482E+02 -0.30877988051E+03  0.30943970696E+03  0.47000000000E+01 0. -1.
        -13    1    4    4    0    0  0.51345933666E+01 -0.75513889923E+02 -0.80759861470E+02  0.11068363404E+03  0.00000000000E+00 0.  1.
         14    1    4    4    0    0  0.20478119600E+02 -0.42309675151E+01 -0.11940651529E+03  0.12122363780E+03  0.00000000000E+00 0. -1.
         -5    1    5    5    0  501 -0.38622847871E+02 -0.24970746992E+02 -0.34297158980E+02  0.57564291858E+02  0.47000000000E+01 0.  1.
         13    1    6    6    0    0  0.39634195081E+02  0.51735266257E+02 -0.32639584883E+03  0.33283878579E+03  0.00000000000E+00 0. -1.
        -14    1    6    6    0    0 -0.26926545073E+02  0.33340171692E+02 -0.88631960355E+02  0.98449125310E+02  0.00000000000E+00 0.  1.
</event>
<event>
12    1  0.2689284E-002  0.1814129E+03  0.7818608E-02  0.1166443E+00
          1   -1    0    0  502    0  0.00000000000E+00  0.00000000000E+00  0.22835337044E+04  0.22835337044E+04  0.00000000000E+00 0. -1.
         -1   -1    0    0    0  501 -0.00000000000E+00 -0.00000000000E+00 -0.14448643477E+02  0.14448643477E+02  0.00000000000E+00 0.  1.
          6    2    1    2  502    0  0.54983697702E+02 -0.96386111066E+01  0.11934494773E+04  0.12071872786E+04  0.17281018734E+03 0.  0.
         24    2    3    3    0    0  0.34035040199E+02 -0.59889090981E+02  0.10184663603E+04  0.10238702357E+04  0.79318631366E+02 0.  0.
         -6    2    1    2    0  501 -0.54983697702E+02  0.96386111066E+01  0.10756355836E+04  0.10907950693E+04  0.17241190394E+03 0.  0.
        -24    2    5    5    0    0 -0.42930201298E+02 -0.28453338586E+02  0.10059201478E+04  0.10103052227E+04  0.78668320701E+02 0.  0.
          5    1    3    3  502    0  0.20948657503E+02  0.50250479874E+02  0.17498311703E+03  0.18331704291E+03  0.47000000000E+01 0. -1.
        -11    1    4    4    0    0  0.97237436499E+01 -0.33785196484E+02  0.12946669750E+03  0.13415519540E+03  0.00000000000E+00 0.  1.
         12    1    4    4    0    0  0.24311296549E+02 -0.26103894496E+02  0.88899966282E+03  0.88971504030E+03  0.00000000000E+00 0. -1.
         -5    1    5    5    0  501 -0.12053496404E+02  0.38091949692E+02  0.69715435777E+02  0.80489846518E+02  0.47000000000E+01 0.  1.
         13    1    6    6    0    0 -0.64223410578E+02 -0.88098278078E+01  0.72714263479E+03  0.73002648641E+03  0.00000000000E+00 0. -1.
        -14    1    6    6    0    0  0.21293209280E+02 -0.19643510778E+02  0.27877751302E+03  0.28027873634E+03  0.00000000000E+00 0.  1.
</event>
<event>
12    1  0.2689284E-002  0.2061221E+03  0.7818608E-02  0.1144674E+00
         -1   -1    0    0    0  501 -0.00000000000E+00  0.00000000000E+00  0.74742757477E+02  0.74742757477E+02  0.00000000000E+00 0. -1.
          1   -1    0    0  502    0  0.00000000000E+00 -0.00000000000E+00 -0.63239621227E+03  0.63239621227E+03  0.00000000000E+00 0.  1.
          6    2    1    2  502    0 -0.10441525395E+03  0.42499562206E+02 -0.16602613603E+03  0.26444356052E+03  0.17221196477E+03 0.  0.
         24    2    3    3    0    0 -0.25973433899E+02  0.63866814469E+02 -0.37708700205E+02  0.11246615122E+03  0.80455576806E+02 0.  0.
         -6    2    1    2    0  501  0.10441525395E+03 -0.42499562206E+02 -0.39162731876E+03  0.44269540923E+03  0.17291185762E+03 0.  0.
        -24    2    5    5    0    0  0.43702123027E+02 -0.84844224068E+02 -0.18786352293E+03  0.22585231123E+03  0.81290499617E+02 0.  0.
          5    1    3    3  502    0 -0.78441820049E+02 -0.21367252263E+02 -0.12831743583E+03  0.15197740931E+03  0.47000000000E+01 0. -1.
        -11    1    4    4    0    0 -0.18429471416E+02 -0.16725191333E+02 -0.65788153878E+01  0.25742149360E+02  0.00000000000E+00 0.  1.
         12    1    4    4    0    0 -0.75439624833E+01  0.80592005802E+02 -0.31129884818E+02  0.86724001856E+02  0.00000000000E+00 0. -1.
         -5    1    5    5    0  501  0.60713130921E+02  0.42344661862E+02 -0.20376379584E+03  0.21684309800E+03  0.47000000000E+01 0.  1.
         13    1    6    6    0    0  0.50707522297E+02 -0.11939389256E+02 -0.80563413069E+02  0.95938862609E+02  0.00000000000E+00 0. -1.
        -14    1    6    6    0    0 -0.70053992699E+01 -0.72904834813E+02 -0.10730010986E+03  0.12991344862E+03  0.00000000000E+00 0.  1.
</event>
<event>
12    1  0.2689284E-002  0.2521477E+03  0.7818608E-02  0.1111955E+00
         -2   -1    0    0    0  501 -0.00000000000E+00  0.00000000000E+00  0.13172228009E+03  0.13172228009E+03  0.00000000000E+00 0.  1.
          2   -1    0    0  502    0  0.00000000000E+00 -0.00000000000E+00 -0.83831250494E+03  0.83831250494E+03  0.00000000000E+00 0. -1.
          6    2    1    2  502    0  0.16220305316E+03  0.88452767359E+02 -0.36586936825E+02  0.25380297901E+03  0.17012826250E+03 0.  0.
         24    2    3    3    0    0  0.13012705277E+03  0.27041078700E+02  0.28020093908E+02  0.15895349970E+03  0.82564033365E+02 0.  0.
         -6    2    1    2    0  501 -0.16220305316E+03 -0.88452767359E+02 -0.67000328803E+03  0.71623180602E+03  0.17306031168E+03 0.  0.
        -24    2    5    5    0    0 -0.78158881723E+02 -0.28627910832E+02 -0.52928691755E+03  0.54168776249E+03  0.79703342922E+02 0.  0.
          5    1    3    3  502    0  0.32076000387E+02  0.61411688660E+02 -0.64607030733E+02  0.94849479308E+02  0.47000000000E+01 0. -1.
        -13    1    4    4    0    0  0.42110771925E+02  0.49821939417E+02  0.16672995474E+02  0.67331504791E+02  0.00000000000E+00 0.  1.
         14    1    4    4    0    0  0.88016280846E+02 -0.22780860717E+02  0.11347098434E+02  0.91621994913E+02  0.00000000000E+00 0. -1.
         -5    1    5    5    0  501 -0.84044171435E+02 -0.59824856527E+02 -0.14071637047E+03  0.17454404353E+03  0.47000000000E+01 0.  1.
         11    1    6    6    0    0 -0.11863580351E+02  0.21020092990E+02 -0.52793267514E+02  0.58049271683E+02  0.00000000000E+00 0. -1.
        -12    1    6    6    0    0 -0.66295301372E+02 -0.49648003823E+02 -0.47649365004E+03  0.48363849081E+03  0.00000000000E+00 0.  1.
</event>
<event>
12    1  0.2689284E-002  0.2241907E+03  0.7818608E-02  0.1130797E+00
         -2   -1    0    0    0  501 -0.00000000000E+00  0.00000000000E+00  0.37964463218E+02  0.37964463218E+02  0.00000000000E+00 0. -1.
          2   -1    0    0  502    0  0.00000000000E+00 -0.00000000000E+00 -0.15106823861E+04  0.15106823861E+04  0.00000000000E+00 0.  1.
          6    2    1    2  502    0  0.17004023126E+02 -0.14564687374E+03 -0.10050722589E+04  0.10295077651E+04  0.16796977127E+03 0.  0.
         24    2    3    3    0    0 -0.40185889423E+01 -0.15165224308E+03 -0.98394567711E+03  0.99874354661E+03  0.79530022610E+02 0.  0.
         -6    2    1    2    0  501 -0.17004023126E+02  0.14564687374E+03 -0.46764566398E+03  0.51913908427E+03  0.17120389348E+03 0.  0.
        -24    2    5    5    0    0 -0.62417467159E+01  0.11207825858E+03 -0.16056569760E+03  0.21000663002E+03  0.75636935142E+02 0.  0.
          5    1    3    3  502    0  0.21022612068E+02  0.60053693441E+01 -0.21126581827E+02  0.30764218482E+02  0.47000000000E+01 0. -1.
        -11    1    4    4    0    0 -0.10736125683E+02 -0.50546847922E+02 -0.57944104667E+03  0.58174064221E+03  0.00000000000E+00 0.  1.
         12    1    4    4    0    0  0.67175367405E+01 -0.10110539516E+03 -0.40450463044E+03  0.41700290439E+03  0.00000000000E+00 0. -1.
         -5    1    5    5    0  501 -0.10762276410E+02  0.33568615158E+02 -0.30707996638E+03  0.30913245425E+03  0.47000000000E+01 0.  1.
         11    1    6    6    0    0  0.33563499142E+01  0.11141744957E+03 -0.16523061855E+03  0.19931450138E+03  0.00000000000E+00 0. -1.
        -12    1    6    6    0    0 -0.95980966301E+01  0.66080900689E+00  0.46649209458E+01  0.10692128642E+02  0.00000000000E+00 0.  1.
</event>
<event>
12    1  0.2689284E-002  0.2046102E+03  0.7818608E-02  0.1145907E+00
         -2   -1    0    0    0  501 -0.00000000000E+00  0.00000000000E+00  0.22996902359E+02  0.22996902359E+02  0.00000000000E+00 0.  1.
          2   -1    0    0  502    0  0.00000000000E+00 -0.00000000000E+00 -0.20234388788E+04  0.20234388788E+04  0.00000000000E+00 0. -1.
          6    2    1    2  502    0 -0.10698202752E+03  0.31031636830E+02 -0.13217200471E+04  0.13373752340E+04  0.17094009782E+03 0.  0.
         24    2    3    3    0    0 -0.91939293594E+02  0.82917841626E+02 -0.89474942815E+03  0.90697488375E+03  0.81845576596E+02 0.  0.
         -6    2    1    2    0  501  0.10698202752E+03 -0.31031636830E+02 -0.67872192939E+03  0.70906054716E+03  0.17232320043E+03 0.  0.
        -24    2    5    5    0    0 -0.15796147776E+02 -0.84470295746E+01 -0.26717978352E+03  0.27897500609E+03  0.78237757546E+02 0.  0.
          5    1    3    3  502    0 -0.15042733926E+02 -0.51886204797E+02 -0.42697061892E+03  0.43040035027E+03  0.47000000000E+01 0. -1.
        -11    1    4    4    0    0 -0.31173826266E+02  0.47218457399E+02 -0.17817536950E+03  0.18694344722E+03  0.00000000000E+00 0.  1.
         12    1    4    4    0    0 -0.60765467328E+02  0.35699384227E+02 -0.71657405865E+03  0.72003143652E+03  0.00000000000E+00 0. -1.
         -5    1    5    5    0  501  0.12277817530E+03 -0.22584607255E+02 -0.41154214588E+03  0.43008554108E+03  0.47000000000E+01 0.  1.
         13    1    6    6    0    0  0.11257534471E+02  0.82928458010E+01 -0.49654388333E+01  0.14837754434E+02  0.00000000000E+00 0. -1.
        -14    1    6    6    0    0 -0.27053682247E+02 -0.16739875376E+02 -0.26221434469E+03  0.26413725165E+03  0.00000000000E+00 0.  1.
</event>
<event>
12    1  0.2689284E-002  0.2545270E+03  0.7818608E-02  0.1110477E+00
         -1   -1    0    0    0  501 -0.00000000000E+00  0.00000000000E+00  0.50396866565E+02  0.50396866565E+02  0.00000000000E+00 0.  1.
          1   -1    0    0  502    0  0.00000000000E+00 -0.00000000000E+00 -0.15232363629E+04  0.15232363629E+04  0.00000000000E+00 0. -1.
          6    2    1    2  502    0  0.36948076178E+02 -0.18337743180E+03 -0.42486707252E+03  0.49512687195E+03  0.17218056566E+03 0.  0.
         24    2    3    3    0    0  0.23809684435E+02 -0.20773447594E+03 -0.35351725004E+03  0.41845373386E+03  0.80053530438E+02 0.  0.
         -6    2    1    2    0  501 -0.36948076178E+02  0.18337743180E+03 -0.10479724238E+04  0.10785063575E+04  0.17302404254E+03 0.  0.
        -24    2    5    5    0    0 -0.67999429746E+02  0.17177333743E+03 -0.69275400540E+03  0.72171362168E+03  0.82658561689E+02 0.  0.
          5    1    3    3  502    0  0.13138391743E+02  0.24357044145E+02 -0.71349822481E+02  0.76673138094E+02  0.47000000000E+01 0. -1.
        -13    1    4    4    0    0  0.39509242737E+02 -0.17742951902E+03 -0.33080418813E+03  0.37745678609E+03  0.00000000000E+00 0.  1.
         14    1    4    4    0    0 -0.15699558302E+02 -0.30304956920E+02 -0.22713061909E+02  0.40996947765E+02  0.00000000000E+00 0. -1.
         -5    1    5    5    0  501  0.31051353568E+02  0.11604094365E+02 -0.35521841842E+03  0.35679273584E+03  0.47000000000E+01 0.  1.
         11    1    6    6    0    0 -0.25460869925E+02  0.15141617238E+03 -0.48731903978E+03  0.51093537721E+03  0.00000000000E+00 0. -1.
        -12    1    6    6    0    0 -0.42538559821E+02  0.20357165050E+02 -0.20543496562E+03  0.21077824447E+03  0.00000000000E+00 0.  1.
</event>
<event>
12    1  0.2689284E-002  0.2720357E+03  0.7818608E-02  0.1100120E+00
         -2   -1    0    0    0  501 -0.00000000000E+00  0.00000000000E+00  0.49479337769E+02  0.49479337769E+02  0.00000000000E+00 0. -1.
          2   -1    0    0  502    0  0.00000000000E+00 -0.00000000000E+00 -0.14958161190E+04  0.14958161190E+04  0.00000000000E+00 0.  1.
          6    2    1    2  502    0  0.21067548719E+03  0.11888026338E+02 -0.71576896702E+03  0.76583615260E+03  0.17220427521E+03 0.  0.
         24    2    3    3    0    0  0.79116167554E+02  0.66043286162E+02 -0.34343217438E+03  0.36721675529E+03  0.79255304902E+02 0.  0.
         -6    2    1    2    0  501 -0.21067548719E+03 -0.11888026338E+02 -0.73056781421E+03  0.77945930417E+03  0.17117823936E+03 0.  0.
        -24    2    5    5    0    0 -0.10743632802E+03  0.38498237997E+02 -0.26988150257E+03  0.30464242647E+03  0.83344487933E+02 0.  0.
          5    1    3    3  502    0  0.13155931963E+03 -0.54155259824E+02 -0.37233679265E+03  0.39861939730E+03  0.47000000000E+01 0. -1.
        -13    1    4    4    0    0  0.72769730058E+02  0.29088860994E+02 -0.29889274460E+03  0.30899590325E+03  0.00000000000E+00 0.  1.
         14    1    4    4    0    0  0.63464374961E+01  0.36954425168E+02 -0.44539429772E+02  0.58220852045E+02  0.00000000000E+00 0. -1.
         -5    1    5    5    0  501 -0.10323915916E+03 -0.50386264335E+02 -0.46068631163E+03  0.47481687770E+03  0.47000000000E+01 0.  1.
         13    1    6    6    0    0  0.10559588502E+02 -0.62069630804E+01 -0.10245260804E+02  0.15968615123E+02  0.00000000000E+00 0. -1.
        -14    1    6    6    0    0 -0.11799591652E+03  0.44705201077E+02 -0.25963624177E+03  0.28867381135E+03  0.00000000000E+00 0.  1.
</event>
<event>
12    1  0.2689284E-002  0.2165655E+03  0.7818608E-02  0.1136470E+00
         -2   -1    0    0    0  501 -0.00000000000E+00  0.00000000000E+00  0.12299250867E+03  0.12299250867E+03  0.00000000000E+00 0.  1.
          2   -1    0    0  502    0  0.00000000000E+00 -0.00000000000E+00 -0.38201355411E+03  0.38201355411E+03  0.00000000000E+00 0. -1.
          6    2    1    2  502    0 -0.10755078073E+03 -0.68330476024E+02 -0.11921871504E+03  0.24775979525E+03  0.17588516066E+03 0.  0.
         24    2    3    3    0    0  0.12143228558E+02 -0.68185051116E+02 -0.76553289533E+02  0.12060199746E+03  0.62352036509E+02 0.  0.
         -6    2    1    2    0  501  0.10755078073E+03  0.68330476024E+02 -0.13980233039E+03  0.25724626752E+03  0.17434083338E+03 0.  0.
        -24    2    5    5    0    0 -0.16781176832E+01  0.53232183062E+02 -0.10141820793E+03  0.14039447441E+03  0.81169416351E+02 0.  0.
          5    1    3    3  502    0 -0.11969400928E+03 -0.14542490752E+00 -0.42665425507E+02  0.12715779780E+03  0.47000000000E+01 0. -1.
        -11    1    4    4    0    0  0.15546257515E+01  0.84136200373E+01  0.35512135446E+01  0.92637455167E+01  0.00000000000E+00 0.  1.
         12    1    4    4    0    0  0.10588602806E+02 -0.76598671154E+02 -0.80104503078E+02  0.11133825194E+03  0.00000000000E+00 0. -1.
         -5    1    5    5    0  501  0.10922889841E+03  0.15098292961E+02 -0.38384122461E+02  0.11685179312E+03  0.47000000000E+01 0.  1.
         13    1    6    6    0    0  0.10050263850E+02  0.27169586480E+01 -0.85522866802E+02  0.86154224584E+02  0.00000000000E+00 0. -1.
        -14    1    6    6    0    0 -0.11728381534E+02  0.50515224414E+02 -0.15895341132E+02  0.54240249822E+02  0.00000000000E+00 0.  1.
</event>
<event>
12    1  0.2689284E-002  0.1756132E+03  0.7818608E-02  0.1172117E+00
          2   -1    0    0  502    0  0.00000000000E+00  0.00000000000E+00  0.17796056925E+04  0.17796056925E+04  0.00000000000E+00 0.  1.
         -2   -1    0    0    0  501 -0.00000000000E+00 -0.00000000000E+00 -0.17357333739E+02  0.17357333739E+02  0.00000000000E+00 0. -1.
          6    2    1    2  502    0 -0.28278937655E+02 -0.22866680619E+02  0.91138545656E+03  0.92795493437E+03  0.17074638029E+03 0.  0.
         24    2    3    3    0    0  0.45387506003E+02  0.13938791097E+02  0.44666313163E+03  0.45596942934E+03  0.78395482851E+02 0.  0.
         -6    2    1    2    0  501  0.28278937655E+02  0.22866680619E+02  0.85086290222E+03  0.86900809189E+03  0.17287221294E+03 0.  0.
        -24    2    5    5    0    0  0.47163698959E+02  0.56497577669E+02  0.34650737042E+03  0.36315805097E+03  0.80000134046E+02 0.  0.
          5    1    3    3  502    0 -0.73666443658E+02 -0.36805471717E+02  0.46472232493E+03  0.47198550503E+03  0.47000000000E+01 0. -1.
        -11    1    4    4    0    0  0.25278476072E+02  0.23021304698E+02  0.41987147440E+03  0.42126124536E+03  0.00000000000E+00 0.  1.
         12    1    4    4    0    0  0.20109029931E+02 -0.90825136008E+01  0.26791657231E+02  0.34708183981E+02  0.00000000000E+00 0. -1.
         -5    1    5    5    0  501 -0.18884761304E+02 -0.33630897049E+02  0.50435553179E+03  0.50585004092E+03  0.47000000000E+01 0.  1.
         11    1    6    6    0    0  0.39921168618E+01  0.52859476265E+02  0.27072001849E+03  0.27586117820E+03  0.00000000000E+00 0. -1.
        -12    1    6    6    0    0  0.43171582097E+02  0.36381014033E+01  0.75787351934E+02  0.87296872772E+02  0.00000000000E+00 0.  1.
</event>
<event>
12    1  0.2689284E-002  0.2004188E+03  0.7818608E-02  0.1149386E+00
          1   -1    0    0  502    0  0.00000000000E+00  0.00000000000E+00  0.79524977945E+02  0.79524977945E+02  0.00000000000E+00 0. -1.
         -1   -1    0    0    0  501 -0.00000000000E+00 -0.00000000000E+00 -0.50708915440E+03  0.50708915440E+03  0.00000000000E+00 0.  1.
          6    2    1    2  502    0 -0.10163681119E+03  0.14090636920E+02 -0.23295583089E+03  0.30780749338E+03  0.17305619435E+03 0.  0.
         24    2    3    3    0    0 -0.54983413110E+02  0.67579920777E+02 -0.98324730453E+02  0.15554040487E+03  0.83275707860E+02 0.  0.
         -6    2    1    2    0  501  0.10163681119E+03 -0.14090636920E+02 -0.19460834556E+03  0.27880663896E+03  0.17126630237E+03 0.  0.
        -24    2    5    5    0    0  0.88208939903E+02 -0.63376274618E+02 -0.91500314474E+02  0.16364267808E+03  0.81297289477E+02 0.  0.
          5    1    3    3  502    0 -0.46653398077E+02 -0.53489283857E+02 -0.13463110043E+03  0.15226708851E+03  0.47000000000E+01 0. -1.
        -11    1    4    4    0    0  0.20065264366E+02  0.23495607632E+02 -0.40925487506E+02  0.51279176472E+02  0.00000000000E+00 0.  1.
         12    1    4    4    0    0 -0.75048677476E+02  0.44084313145E+02 -0.57399242947E+02  0.10426122840E+03  0.00000000000E+00 0. -1.
         -5    1    5    5    0  501  0.13427871284E+02  0.49285637697E+02 -0.10310803109E+03  0.11516396088E+03  0.47000000000E+01 0.  1.
         11    1    6    6    0    0  0.79594061856E+02 -0.12871767543E+02 -0.36589698035E+02  0.88542097811E+02  0.00000000000E+00 0. -1.
        -12    1    6    6    0    0  0.86148780468E+01 -0.50504507075E+02 -0.54910616439E+02  0.75100580267E+02  0.00000000000E+00 0.  1.
</event>
<event>
12    1  0.2689284E-002  0.2251605E+03  0.7818608E-02  0.1130093E+00
          2   -1    0    0  502    0  0.00000000000E+00  0.00000000000E+00  0.36737710116E+03  0.36737710116E+03  0.00000000000E+00 0. -1.
         -2   -1    0    0    0  501 -0.00000000000E+00 -0.00000000000E+00 -0.33546177238E+03  0.33546177238E+03  0.00000000000E+00 0.  1.
          6    2    1    2  502    0  0.97464483903E+02 -0.10795182683E+03  0.28558431063E+03  0.36386992934E+03  0.17230787697E+03 0.  0.
         24    2    3    3    0    0  0.85472706886E+02 -0.19864959936E+01  0.17624141941E+03  0.21106151362E+03  0.78590042806E+02 0.  0.
         -6    2    1    2    0  501 -0.97464483903E+02  0.10795182683E+03 -0.25366898184E+03  0.33896894420E+03  0.17146157075E+03 0.  0.
        -24    2    5    5    0    0 -0.92279850323E+02  0.14216726290E+03 -0.19329982294E+03  0.26922583101E+03  0.79941385527E+02 0.  0.
          5    1    3    3  502    0  0.11991777017E+02 -0.10596533083E+03  0.10934289122E+03  0.15280841572E+03  0.47000000000E+01 0. -1.
        -11    1    4    4    0    0  0.59152808012E+02 -0.33254706869E+02  0.71245676023E+02  0.98391445648E+02  0.00000000000E+00 0.  1.
         12    1    4    4    0    0  0.26319898873E+02  0.31268210875E+02  0.10499574339E+03  0.11267006798E+03  0.00000000000E+00 0. -1.
         -5    1    5    5    0  501 -0.51846335802E+01 -0.34215436070E+02 -0.60369158897E+02  0.69743113185E+02  0.47000000000E+01 0.  1.
         13    1    6    6    0    0 -0.59941217215E+02  0.23630796077E+02 -0.62398954475E+02  0.89693888108E+02  0.00000000000E+00 0. -1.
        -14    1    6    6    0    0 -0.32338633107E+02  0.11853646682E+03 -0.13090086847E+03  0.17953194290E+03  0.00000000000E+00 0.  1.
</event>
<event>
12    1  0.2689284E-002  0.2128320E+03  0.7818608E-02  0.1139343E+00
          2   -1    0    0  502    0  0.00000000000E+00  0.00000000000E+00  0.98545614842E+03  0.98545614842E+03  0.00000000000E+00 0. -1.
         -2   -1    0    0    0  501 -0.00000000000E+00 -0.00000000000E+00 -0.48074274093E+02  0.48074274093E+02  0.00000000000E+00 0.  1.
          6    2    1    2  502    0  0.92966468114E+02  0.79584510927E+02  0.36487805033E+03  0.42344959145E+03  0.17662702600E+03 0.  0.
         24    2    3    3    0    0  0.53648540224E+02  0.93764251374E+02  0.13898783544E+03  0.19367700024E+03  0.80766709198E+02 0.  0.
         -6    2    1    2    0  501 -0.92966468114E+02 -0.79584510927E+02  0.57250382400E+03  0.61008083106E+03  0.17164362314E+03 0.  0.
        -24    2    5    5    0    0 -0.99768896678E+01 -0.92409023412E+02  0.39493546031E+03  0.41360092870E+03  0.80328976546E+02 0.  0.
          5    1    3    3  502    0  0.39317927890E+02 -0.14179740447E+02  0.22589021488E+03  0.22977259121E+03  0.47000000000E+01 0. -1.
        -13    1    4    4    0    0  0.51761366927E+02  0.10832629130E+03  0.12096829413E+03  0.17043225246E+03  0.00000000000E+00 0.  1.
         14    1    4    4    0    0  0.18871732968E+01 -0.14562039929E+02  0.18019541316E+02  0.23244747777E+02  0.00000000000E+00 0. -1.
         -5    1    5    5    0  501 -0.82989578446E+02  0.12824512485E+02  0.17756836368E+03  0.19647990236E+03  0.47000000000E+01 0.  1.
         13    1    6    6    0    0 -0.26349086591E+02  0.24029241653E+01  0.94575901700E+02  0.98207176881E+02  0.00000000000E+00 0. -1.
        -14    1    6    6    0    0  0.16372196923E+02 -0.94811947577E+02  0.30035955861E+03  0.31539375182E+03  0.00000000000E+00 0.  1.
</event>
<event>
12    1  0.2689284E-002  0.2292707E+03  0.7818608E-02  0.1127154E+00
         -2   -1    0    0    0  501 -0.00000000000E+00  0.00000000000E+00  0.66615253609E+02  0.66615253609E+02  0.00000000000E+00 0.  1.
          2   -1    0    0  502    0  0.00000000000E+00 -0.00000000000E+00 -0.83586666312E+03  0.83586666312E+03  0.00000000000E+00 0. -1.
          6    2    1    2  502    0 -0.96892431039E+02 -0.11635482365E+03 -0.49174632969E+03  0.54266599839E+03  0.17246838801E+03 0.  0.
         24    2    3    3    0    0 -0.99290389089E+02 -0.43328865229E+02 -0.19491405708E+03  0.23693731333E+03  0.80073896321E+02 0.  0.
         -6    2    1    2    0  501  0.96892431039E+02  0.11635482365E+03 -0.27750507982E+03  0.35981591834E+03  0.17184829818E+03 0.  0.
        -24    2    5    5    0    0  0.88108487755E+02  0.14935215782E+03 -0.20796791428E+03  0.28220477794E+03  0.79496607886E+02 0.  0.
          5    1    3    3  502    0  0.23979580502E+01 -0.73025958422E+02 -0.29683227261E+03  0.30572868506E+03  0.47000000000E+01 0. -1.
        -13    1    4    4    0    0 -0.47519908094E+02 -0.63341908982E+02 -0.11237524217E+03  0.13747193950E+03  0.00000000000E+00 0.  1.
         14    1    4    4    0    0 -0.51770480995E+02  0.20013043753E+02 -0.82538814915E+02  0.99465373826E+02  0.00000000000E+00 0. -1.
         -5    1    5    5    0  501  0.87839432837E+01 -0.32997334170E+02 -0.69537165547E+02  0.77611140400E+02  0.47000000000E+01 0.  1.
         11    1    6    6    0    0  0.78110844885E+02  0.12456640512E+03 -0.20890856227E+03  0.25546209262E+03  0.00000000000E+00 0. -1.
        -12    1    6    6    0    0  0.99976428703E+01  0.24785752700E+02  0.94064799535E+00  0.26742685327E+02  0.00000000000E+00 0.  1.
</event>
<event>
12    1  0.2689284E-002  0.5719745E+03  0.7818608E-02  0.9965319E-01
          1   -1    0    0  502    0  0.00000000000E+00  0.00000000000E+00  0.14992163891E+04  0.14992163891E+04  0.00000000000E+00 0. -1.
         -1   -1    0    0    0  501 -0.00000000000E+00 -0.00000000000E+00 -0.24812772910E+03  0.24812772910E+03  0.00000000000E+00 0.  1.
          6    2    1    2  502    0  0.43498352795E+03  0.32923000116E+03  0.32217494439E+03  0.65643795796E+03  0.17178776034E+03 0.  0.
         24    2    3    3    0    0  0.41454971886E+03  0.31849211988E+03  0.25958863046E+03  0.58956509845E+03  0.83138729856E+02 0.  0.
         -6    2    1    2    0  501 -0.43498352795E+03 -0.32923000116E+03  0.92891371559E+03  0.10909061602E+04  0.17202469635E+03 0.  0.
        -24    2    5    5    0    0 -0.25173580939E+03 -0.17598778362E+03  0.39997917832E+03  0.51051255386E+03  0.79354312084E+02 0.  0.
          5    1    3    3  502    0  0.20433809089E+02  0.10737881271E+02  0.62586313929E+02  0.66872859512E+02  0.47000000000E+01 0. -1.
        -11    1    4    4    0    0  0.22239315801E+03  0.19699625994E+03  0.10707419748E+03  0.31580235421E+03  0.00000000000E+00 0.  1.
         12    1    4    4    0    0  0.19215656086E+03  0.12149585994E+03  0.15251443298E+03  0.27376274423E+03  0.00000000000E+00 0. -1.
         -5    1    5    5    0  501 -0.18324771857E+03 -0.15324221753E+03  0.52893453727E+03  0.58039360637E+03  0.47000000000E+01 0.  1.
         13    1    6    6    0    0 -0.21811380767E+03 -0.13798966300E+03  0.37141399603E+03  0.45228656473E+03  0.00000000000E+00 0. -1.
        -14    1    6    6    0    0 -0.33622001718E+02 -0.37998120622E+02  0.28565182286E+02  0.58225989123E+02  0.00000000000E+00 0.  1.
</event>
<event>
12    1  0.2689284E-002  0.1909468E+03  0.7818608E-02  0.1157610E+00
         -2   -1    0    0    0  501 -0.00000000000E+00  0.00000000000E+00  0.22429256347E+02  0.22429256347E+02  0.00000000000E+00 0. -1.
          2   -1    0    0  502    0  0.00000000000E+00 -0.00000000000E+00 -0.16499783943E+04  0.16499783943E+04  0.00000000000E+00 0.  1.
          6    2    1    2  502    0  0.58744430830E+02  0.61725953494E+02 -0.70920485432E+03  0.73427889064E+03  0.17009692049E+03 0.  0.
         24    2    3    3    0    0 -0.11326153932E+02  0.27747738143E+00 -0.48157376370E+03  0.48826302635E+03  0.79744180102E+02 0.  0.
         -6    2    1    2    0  501 -0.58744430830E+02 -0.61725953494E+02 -0.91834428360E+03  0.93812875997E+03  0.17166346606E+03 0.  0.
        -24    2    5    5    0    0 -0.48213997824E+02 -0.95789643115E+02 -0.85448111772E+03  0.86483606643E+03  0.79392669399E+02 0.  0.
          5    1    3    3  502    0  0.70070584761E+02  0.61448476113E+02 -0.22763109062E+03  0.24601586429E+03  0.47000000000E+01 0. -1.
        -13    1    4    4    0    0  0.24511307603E+02 -0.16481288161E+02 -0.33953940384E+03  0.34082171853E+03  0.00000000000E+00 0.  1.
         14    1    4    4    0    0 -0.35837461534E+02  0.16758765543E+02 -0.14203435985E+03  0.14744130782E+03  0.00000000000E+00 0. -1.
         -5    1    5    5    0  501 -0.10530433005E+02  0.34063689620E+02 -0.63863165882E+02  0.73292693539E+02  0.47000000000E+01 0.  1.
         11    1    6    6    0    0 -0.45284969027E+02 -0.40133270453E+02 -0.22840888662E+03  0.23628801769E+03  0.00000000000E+00 0. -1.
        -12    1    6    6    0    0 -0.29290287972E+01 -0.55656372662E+02 -0.62607223109E+03  0.62854804874E+03  0.00000000000E+00 0.  1.
</event>
<event>
12    1  0.2689284E-002  0.1826856E+03  0.7818608E-02  0.1165229E+00
          2   -1    0    0  502    0  0.00000000000E+00  0.00000000000E+00  0.28357537427E+03  0.28357537427E+03  0.00000000000E+00 0. -1.
         -2   -1    0    0    0  501 -0.00000000000E+00 -0.00000000000E+00 -0.11906604407E+03  0.11906604407E+03  0.00000000000E+00 0.  1.
          6    2    1    2  502    0  0.43198426295E+02  0.40396656823E+02  0.60825869168E+02  0.19298752364E+03  0.17333898581E+03 0.  0.
         24    2    3    3    0    0  0.69813178242E+02  0.67635437403E+02  0.80905814515E+02  0.14967943670E+03  0.80060918682E+02 0.  0.
         -6    2    1    2    0  501 -0.43198426295E+02 -0.40396656823E+02  0.10368346103E+03  0.20965389470E+03  0.17235574129E+03 0.  0.
        -24    2    5    5    0    0 -0.40470164914E+01 -0.84522858366E+02  0.94492511896E+02  0.14976634927E+03  0.79628089510E+02 0.  0.
          5    1    3    3  502    0 -0.26614751947E+02 -0.27238780580E+02 -0.20079945347E+02  0.43308086934E+02  0.47000000000E+01 0. -1.
        -11    1    4    4    0    0  0.26368118474E+02  0.38058413440E+02 -0.74281998971E+01  0.46892415795E+02  0.00000000000E+00 0.  1.
         12    1    4    4    0    0  0.43445059769E+02  0.29577023963E+02  0.88334014413E+02  0.10278702091E+03  0.00000000000E+00 0. -1.
         -5    1    5    5    0  501 -0.39151409804E+02  0.44126201542E+02  0.91909491345E+01  0.59887545434E+02  0.47000000000E+01 0.  1.
         11    1    6    6    0    0  0.96702604170E+01  0.99292857469E+01  0.34130487018E+02  0.36837410279E+02  0.00000000000E+00 0. -1.
        -12    1    6    6    0    0 -0.13717276908E+02 -0.94452144112E+02  0.60362024879E+02  0.11292893899E+03  0.00000000000E+00 0.  1.
</event>
<event>
12    1  0.2689284E-002  0.1733238E+03  0.7818608E-02  0.1174425E+00
          2   -1    0    0  502    0  0.00000000000E+00  0.00000000000E+00  0.10033627101E+04  0.10033627101E+04  0.00000000000E+00 0. -1.
         -2   -1    0    0    0  501 -0.00000000000E+00 -0.00000000000E+00 -0.30763791977E+02  0.30763791977E+02  0.00000000000E+00 0.  1.
          6    2    1    2  502    0 -0.30751347481E+01 -0.22681175511E+02  0.40243822093E+03  0.43828043570E+03  0.17207360771E+03 0.  0.
         24    2    3    3    0    0  0.17906270259E+02  0.15106712029E+02  0.87353019175E+02  0.12020981749E+03  0.79189664718E+02 0.  0.
         -6    2    1    2    0  501  0.30751347481E+01  0.22681175511E+02  0.57016069716E+03  0.59584606635E+03  0.17153839811E+03 0.  0.
        -24    2    5    5    0    0 -0.18933832225E+02 -0.28130553273E+02  0.49319863455E+03  0.50091727467E+03  0.80767598137E+02 0.  0.
          5    1    3    3  502    0 -0.20981405007E+02 -0.37787887540E+02  0.31508520176E+03  0.31807061821E+03  0.47000000000E+01 0. -1.
        -13    1    4    4    0    0  0.10412888742E+02 -0.19792491945E+02 -0.34628388419E+01  0.22631001794E+02  0.00000000000E+00 0.  1.
         14    1    4    4    0    0  0.74933815173E+01  0.34899203974E+02  0.90815858017E+02  0.97578815692E+02  0.00000000000E+00 0. -1.
         -5    1    5    5    0  501  0.22008966973E+02  0.50811728784E+02  0.76962062605E+02  0.94928791679E+02  0.47000000000E+01 0.  1.
         11    1    6    6    0    0 -0.42863040037E+02 -0.13885047565E+02  0.15077479018E+03  0.15736286761E+03  0.00000000000E+00 0. -1.
        -12    1    6    6    0    0  0.23929207811E+02 -0.14245505708E+02  0.34242384437E+03  0.34355440706E+03  0.00000000000E+00 0.  1.
</event>
<event>
12    1  0.2689284E-002  0.1928491E+03  0.7818608E-02  0.1155916E+00
         -2   -1    0    0    0  501 -0.00000000000E+00  0.00000000000E+00  0.22481497901E+03  0.22481497901E+03  0.00000000000E+00 0.  1.
          2   -1    0    0  502    0  0.00000000000E+00 -0.00000000000E+00 -0.19247205589E+03  0.19247205589E+03  0.00000000000E+00 0. -1.
          6    2    1    2  502    0  0.56352049372E+02  0.66427238473E+02 -0.62030044160E+02  0.20267029946E+03  0.17216094918E+03 0.  0.
         24    2    3    3    0    0  0.42244786880E+02  0.10251878562E+03 -0.81715363499E+02  0.15895283810E+03  0.79333981904E+02 0.  0.
         -6    2    1    2    0  501 -0.56352049372E+02 -0.66427238473E+02  0.94372967274E+02  0.21461673544E+03  0.17194753473E+03 0.  0.
        -24    2    5    5    0    0 -0.46207866833E+02 -0.14117294671E+02 -0.14315278403E+02  0.93478552329E+02  0.78732760549E+02 0.  0.
          5    1    3    3  502    0  0.14107262492E+02 -0.36091547143E+02  0.19685319338E+02  0.43717461358E+02  0.47000000000E+01 0. -1.
        -13    1    4    4    0    0 -0.18546987318E+02  0.19378565132E+02  0.10192452533E+01  0.26843218623E+02  0.00000000000E+00 0.  1.
         14    1    4    4    0    0  0.60791774198E+02  0.83140220484E+02 -0.82734608752E+02  0.13210961947E+03  0.00000000000E+00 0. -1.
         -5    1    5    5    0  501 -0.10144182540E+02 -0.52309943803E+02  0.10868824568E+03  0.12113818311E+03  0.47000000000E+01 0.  1.
         13    1    6    6    0    0 -0.66061914433E+02 -0.11279884261E+02 -0.24027319202E+02  0.71194974510E+02  0.00000000000E+00 0. -1.
        -14    1    6    6    0    0  0.19854047600E+02 -0.28374104101E+01  0.97120407988E+01  0.22283577819E+02  0.00000000000E+00 0.  1.
</event>
<event>
12    1  0.2689284E-002  0.1891294E+03  0.7818608E-02  0.1159249E+00
          2   -1    0    0  502    0  0.00000000000E+00  0.00000000000E+00  0.11876155935E+04  0.11876155935E+04  0.00000000000E+00 0.  1.
         -2   -1    0    0    0  501 -0.00000000000E+00 -0.00000000000E+00 -0.30217374187E+02  0.30217374187E+02  0.00000000000E+00 0. -1.
          6    2    1    2  502    0  0.36280680252E+02  0.81422221569E+02  0.54000655453E+03  0.57171015664E+03  0.16522577993E+03 0.  0.
         24    2    3    3    0    0  0.70343445949E+01 -0.14501652964E+02  0.25354342418E+03  0.26816452103E+03  0.85838001195E+02 0.  0.
         -6    2    1    2    0  501 -0.36280680252E+02 -0.81422221569E+02  0.61739166483E+03  0.64612281109E+03  0.16839344785E+03 0.  0.
        -24    2    5    5    0    0  0.11616359504E+02 -0.59248433201E+02  0.18761759706E+03  0.21309435632E+03  0.81015586926E+02 0.  0.
          5    1    3    3  502    0  0.29246335657E+02  0.95923874533E+02  0.28646313035E+03  0.30354563562E+03  0.47000000000E+01 0. -1.
        -11    1    4    4    0    0  0.32263312769E+02 -0.43090419896E+01  0.34476999740E+02  0.47414688702E+02  0.00000000000E+00 0.  1.
         12    1    4    4    0    0 -0.25228968174E+02 -0.10192610974E+02  0.21906642444E+03  0.22074983232E+03  0.00000000000E+00 0. -1.
         -5    1    5    5    0  501 -0.47897039755E+02 -0.22173788368E+02  0.42977406777E+03  0.43302845477E+03  0.47000000000E+01 0.  1.
         13    1    6    6    0    0  0.36594825435E+02 -0.53384236945E+01  0.42813098271E+02  0.56574211437E+02  0.00000000000E+00 0. -1.
        -14    1    6    6    0    0 -0.24978465932E+02 -0.53910009506E+02  0.14480449879E+03  0.15652014488E+03  0.00000000000E+00 0.  1.
</event>
<event>
12    1  0.2689284E-002  0.1828426E+03  0.7818608E-02  0.1165080E+00
         -4   -1    0    0    0  501 -0.00000000000E+00  0.00000000000E+00  0.17958672693E+04  0.17958672693E+04  0.00000000000E+00 0. -1.
          4   -1    0    0  502    0  0.00000000000E+00 -0.00000000000E+00 -0.18950952389E+02  0.18950952389E+02  0.00000000000E+00 0.  1.
          6    2    1    2  502    0  0.32636436171E+02  0.52771442356E+02  0.77199883277E+03  0.79355699776E+03  0.17291775158E+03 0.  0.
         24    2    3    3    0    0  0.27950313291E+02  0.45973484959E+02  0.20376058424E+03  0.22523933214E+03  0.79495910086E+02 0.  0.
         -6    2    1    2    0  501 -0.32636436171E+02 -0.52771442356E+02  0.10049174841E+04  0.10212612239E+04  0.17107125843E+03 0.  0.
        -24    2    5    5    0    0 -0.69754261263E+02 -0.26936820428E+02  0.39966590873E+03  0.41430428956E+03  0.79523307840E+02 0.  0.
          5    1    3    3  502    0  0.46861228797E+01  0.67979573980E+01  0.56823824852E+03  0.56831766562E+03  0.47000000000E+01 0. -1.
        -13    1    4    4    0    0  0.32971774082E+02  0.66835983262E+02  0.15932071667E+03  0.17588995794E+03  0.00000000000E+00 0.  1.
         14    1    4    4    0    0 -0.50214607910E+01 -0.20862498304E+02  0.44439867574E+02  0.49349374201E+02  0.00000000000E+00 0. -1.
         -5    1    5    5    0  501  0.37117825092E+02 -0.25834621929E+02  0.60525157540E+03  0.60695693435E+03  0.47000000000E+01 0.  1.
         11    1    6    6    0    0  0.69582976758E+01  0.16994088847E+02  0.10750816873E+03  0.10906522500E+03  0.00000000000E+00 0. -1.
        -12    1    6    6    0    0 -0.76712558939E+02 -0.43930909275E+02  0.29215774001E+03  0.30523906456E+03  0.00000000000E+00 0.  1.
</event>
<event>
12    1  0.2689284E-002  0.1942893E+03  0.7818608E-02  0.1154649E+00
         -2   -1    0    0    0  501 -0.00000000000E+00  0.00000000000E+00  0.96515378028E+02  0.96515378028E+02  0.00000000000E+00 0.  1.
          2   -1    0    0  502    0  0.00000000000E+00 -0.00000000000E+00 -0.50168738264E+03  0.50168738264E+03  0.00000000000E+00 0. -1.
          6    2    1    2  502    0  0.78447662187E+02  0.50196556707E+02 -0.62336652088E+02  0.20424493809E+03  0.17075247154E+03 0.  0.
         24    2    3    3    0    0  0.82834600356E+02  0.60089475006E+02  0.12224298734E+02  0.12875626049E+03  0.77177879687E+02 0.  0.
         -6    2    1    2    0  501 -0.78447662187E+02 -0.50196556707E+02 -0.34283535253E+03  0.39395782258E+03  0.17027318350E+03 0.  0.
        -24    2    5    5    0    0 -0.11579763803E+03 -0.44830243952E+02 -0.31174348142E+03  0.34483947105E+03  0.79444438700E+02 0.  0.
          5    1    3    3  502    0 -0.43869381689E+01 -0.98929182985E+01 -0.74560950823E+02  0.75488677605E+02  0.47000000000E+01 0. -1.
        -11    1    4    4    0    0  0.57216623141E+02  0.58572406500E+02 -0.23115873155E+02  0.85081210373E+02  0.00000000000E+00 0.  1.
         12    1    4    4    0    0  0.25617977215E+02  0.15170685058E+01  0.35340171890E+02  0.43675050116E+02  0.00000000000E+00 0. -1.
         -5    1    5    5    0  501  0.37349975840E+02 -0.53663127551E+01 -0.31091871107E+02  0.49118351527E+02  0.47000000000E+01 0.  1.
         13    1    6    6    0    0 -0.23015827152E+02 -0.47947896485E+02 -0.13711091163E+03  0.14706505759E+03  0.00000000000E+00 0. -1.
        -14    1    6    6    0    0 -0.92781810875E+02  0.31176525327E+01 -0.17463256979E+03  0.19777441346E+03  0.00000000000E+00 0.  1.
</event>
<event>
12    1  0.2689284E-002  0.2283963E+03  0.7818608E-02  0.1127774E+00
         -2   -1    0    0    0  501 -0.00000000000E+00  0.00000000000E+00  0.20475064867E+02  0.20475064867E+02  0.00000000000E+00 0.  1.
          2   -1    0    0  502    0  0.00000000000E+00 -0.00000000000E+00 -0.25567639146E+04  0.25567639146E+04  0.00000000000E+00 0. -1.
          6    2    1    2  502    0  0.14709692574E+03 -0.36846775719E+02 -0.13410470863E+04  0.13602479056E+04  0.16991729367E+03 0.  0.
         24    2    3    3    0    0  0.10839956255E+03  0.26528917631E+02 -0.59178000532E+03  0.60729557444E+03  0.78422518469E+02 0.  0.
         -6    2    1    2    0  501 -0.14709692574E+03  0.36846775719E+02 -0.11952417634E+04  0.12169910738E+04  0.17166598461E+03 0.  0.
        -24    2    5    5    0    0 -0.13830118019E+02  0.45612999349E+02 -0.38714190812E+03  0.39791576906E+03  0.78652936186E+02 0.  0.
          5    1    3    3  502    0  0.38697363187E+02 -0.63375693350E+02 -0.74926708099E+03  0.75295233121E+03  0.47000000000E+01 0. -1.
        -13    1    4    4    0    0  0.77514179996E+02  0.43451579246E+02 -0.51769084451E+03  0.52526212345E+03  0.00000000000E+00 0.  1.
         14    1    4    4    0    0  0.30885382557E+02 -0.16922661615E+02 -0.74089160812E+02  0.82033450992E+02  0.00000000000E+00 0. -1.
         -5    1    5    5    0  501 -0.13326680772E+03 -0.87662236297E+01 -0.80809985528E+03  0.81907530473E+03  0.47000000000E+01 0.  1.
         11    1    6    6    0    0 -0.42912556433E+02  0.67861300344E+01 -0.18600542738E+03  0.19101193177E+03  0.00000000000E+00 0. -1.
        -12    1    6    6    0    0  0.29082438413E+02  0.38826869315E+02 -0.20113648073E+03  0.20690383729E+03  0.00000000000E+00 0.  1.
</event>
<event>
12    1  0.2689284E-002  0.2033843E+03  0.7818608E-02  0.1146915E+00
          1   -1    0    0  502    0  0.00000000000E+00  0.00000000000E+00  0.84211704648E+02  0.84211704648E+02  0.00000000000E+00 0. -1.
         -1   -1    0    0    0  501 -0.00000000000E+00 -0.00000000000E+00 -0.49574099474E+03  0.49574099474E+03  0.00000000000E+00 0.  1.
          6    2    1    2  502    0  0.10668144315E+03  0.28246390911E+02 -0.23341601136E+03  0.30953583120E+03  0.17073548995E+03 0.  0.
         24    2    3    3    0    0  0.53856404056E+02 -0.22563874981E+02 -0.21015287163E+03  0.23249407924E+03  0.80496128581E+02 0.  0.
         -6    2    1    2    0  501 -0.10668144315E+03 -0.28246390911E+02 -0.17811327874E+03  0.27041686819E+03  0.17094488476E+03 0.  0.
        -24    2    5    5    0    0 -0.50553611753E+02  0.10352455690E+02 -0.18924513827E+02  0.97202096042E+02  0.80170251660E+02 0.  0.
          5    1    3    3  502    0  0.52825039094E+02  0.50810265892E+02 -0.23263139733E+02  0.77041751964E+02  0.47000000000E+01 0. -1.
        -11    1    4    4    0    0  0.19124402913E+02 -0.50808309215E+02 -0.12533183889E+03  0.13658439484E+03  0.00000000000E+00 0.  1.
         12    1    4    4    0    0  0.34732001142E+02  0.28244434234E+02 -0.84821032732E+02  0.95909684403E+02  0.00000000000E+00 0. -1.
         -5    1    5    5    0  501 -0.56127831397E+02 -0.38598846601E+02 -0.15918876491E+03  0.17321477215E+03  0.47000000000E+01 0.  1.
         13    1    6    6    0    0 -0.69314589992E+02 -0.50927530127E+01 -0.62160189346E+01  0.69778846439E+02  0.00000000000E+00 0. -1.
        -14    1    6    6    0    0  0.18760978239E+02  0.15445208703E+02 -0.12708494892E+02  0.27423249603E+02  0.00000000000E+00 0.  1.
</event>
<event>
12    1  0.2689284E-002  0.1764855E+03  0.7818608E-02  0.1171248E+00
         -2   -1    0    0    0  501 -0.00000000000E+00  0.00000000000E+00  0.33098114527E+03  0.33098114527E+03  0.00000000000E+00 0.  1.
          2   -1    0    0  502    0  0.00000000000E+00 -0.00000000000E+00 -0.10586552461E+03  0.10586552461E+03  0.00000000000E+00 0. -1.
          6    2    1    2  502    0  0.30496179253E+02 -0.21592306337E+02  0.18531716256E+03  0.25586083228E+03  0.17241249988E+03 0.  0.
         24    2    3    3    0    0  0.82882819568E+02  0.37952632255E+01  0.14314436156E+03  0.18382248197E+03  0.80102626846E+02 0.  0.
         -6    2    1    2    0  501 -0.30496179253E+02  0.21592306337E+02  0.39798458095E+02  0.18098583759E+03  0.17255640092E+03 0.  0.
        -24    2    5    5    0    0 -0.29608835282E+02 -0.52668622129E+02  0.37215805513E+02  0.10652623129E+03  0.79449071043E+02 0.  0.
          5    1    3    3  502    0 -0.52386640315E+02 -0.25387569563E+02  0.42172801002E+02  0.72038350316E+02  0.47000000000E+01 0. -1.
        -11    1    4    4    0    0  0.57453183725E+02 -0.27341559135E+02  0.12383343899E+03  0.13922338090E+03  0.00000000000E+00 0.  1.
         12    1    4    4    0    0  0.25429635843E+02  0.31136822361E+02  0.19310922570E+02  0.44599101071E+02  0.00000000000E+00 0. -1.
         -5    1    5    5    0  501 -0.88734397090E+00  0.74260928466E+02  0.25826525819E+01  0.74459606300E+02  0.47000000000E+01 0.  1.
         11    1    6    6    0    0 -0.47313574289E+02 -0.19284787315E+02 -0.32045275713E+01  0.51193225438E+02  0.00000000000E+00 0. -1.
        -12    1    6    6    0    0  0.17704739007E+02 -0.33383834814E+02  0.40420333084E+02  0.55333005854E+02  0.00000000000E+00 0.  1.
</event>
<event>
12    1  0.2689284E-002  0.1843687E+03  0.7818608E-02  0.1163641E+00
         -2   -1    0    0    0  501 -0.00000000000E+00  0.00000000000E+00  0.95570872014E+02  0.95570872014E+02  0.00000000000E+00 0. -1.
          2   -1    0    0  502    0  0.00000000000E+00 -0.00000000000E+00 -0.52449539737E+03  0.52449539737E+03  0.00000000000E+00 0.  1.
          6    2    1    2  502    0 -0.18300308424E+02  0.65492225385E+02 -0.38442267384E+02  0.18817907607E+03  0.17119995291E+03 0.  0.
         24    2    3    3    0    0  0.45209644160E+02  0.75698022331E+02 -0.33408425386E+02  0.12348671228E+03  0.79741725038E+02 0.  0.
         -6    2    1    2    0  501  0.18300308424E+02 -0.65492225385E+02 -0.39048225798E+03  0.43188719331E+03  0.17154014422E+03 0.  0.
        -24    2    5    5    0    0 -0.20534060440E+02 -0.67133180618E+01 -0.87522362848E+02  0.12080865627E+03  0.80422951666E+02 0.  0.
          5    1    3    3  502    0 -0.63509952584E+02 -0.10205796945E+02 -0.50338419972E+01  0.64692363798E+02  0.47000000000E+01 0. -1.
        -11    1    4    4    0    0  0.64697544075E+02  0.34539654893E+02 -0.21017737910E+02  0.76292236016E+02  0.00000000000E+00 0.  1.
         12    1    4    4    0    0 -0.19487899916E+02  0.41158367438E+02 -0.12390687476E+02  0.47194476259E+02  0.00000000000E+00 0. -1.
         -5    1    5    5    0  501  0.38834368863E+02 -0.58778907323E+02 -0.30295989513E+03  0.31107853704E+03  0.47000000000E+01 0.  1.
         13    1    6    6    0    0  0.27184374228E+02  0.12386634431E+02 -0.45438121902E+02  0.54378689178E+02  0.00000000000E+00 0. -1.
        -14    1    6    6    0    0 -0.47718434668E+02 -0.19099952493E+02 -0.42084240946E+02  0.66429967096E+02  0.00000000000E+00 0.  1.
</event>
<event>
12    1  0.2689284E-002  0.1773558E+03  0.7818608E-02  0.1170387E+00
         -2   -1    0    0    0  501 -0.00000000000E+00  0.00000000000E+00  0.75991362100E+02  0.75991362100E+02  0.00000000000E+00 0.  1.
          2   -1    0    0  502    0  0.00000000000E+00 -0.00000000000E+00 -0.41413529623E+03  0.41413529623E+03  0.00000000000E+00 0. -1.
          6    2    1    2  502    0  0.41679728028E+02 -0.14670407294E+02 -0.16383908291E+03  0.24161893170E+03  0.17200012351E+03 0.  0.
         24    2    3    3    0    0 -0.41949641359E+02 -0.16467471890E+00 -0.65542476570E+02  0.11166278325E+03  0.80080967781E+02 0.  0.
         -6    2    1    2    0  501 -0.41679728028E+02  0.14670407294E+02 -0.17430485122E+03  0.24850772663E+03  0.17152693216E+03 0.  0.
        -24    2    5    5    0    0 -0.60913403403E+01 -0.25609347350E+02 -0.17719366707E+03  0.19447600234E+03  0.75699251901E+02 0.  0.
          5    1    3    3  502    0  0.83629369387E+02 -0.14505732575E+02 -0.98296606341E+02  0.12995614845E+03  0.47000000000E+01 0. -1.
        -13    1    4    4    0    0  0.20968068806E+02  0.86800062074E+01 -0.33608074668E+02  0.40552498075E+02  0.00000000000E+00 0.  1.
         14    1    4    4    0    0 -0.62917710165E+02 -0.88446809263E+01 -0.31934401902E+02  0.71110285177E+02  0.00000000000E+00 0. -1.
         -5    1    5    5    0  501 -0.35588387688E+02  0.40279754643E+02  0.28888158524E+01  0.54031724287E+02  0.47000000000E+01 0.  1.
         13    1    6    6    0    0 -0.23443176989E+02 -0.44813010148E+02 -0.86893127213E+02  0.10053956427E+03  0.00000000000E+00 0. -1.
        -14    1    6    6    0    0  0.17351836648E+02  0.19203662799E+02 -0.90300539858E+02  0.93936438077E+02  0.00000000000E+00 0.  1.
</event>
<event>
12    1  0.2689284E-002  0.1766555E+03  0.7818608E-02  0.1171080E+00
         -2   -1    0    0    0  501 -0.00000000000E+00  0.00000000000E+00  0.67320201827E+03  0.67320201827E+03  0.00000000000E+00 0. -1.
          2   -1    0    0  502    0  0.00000000000E+00 -0.00000000000E+00 -0.99456992171E+02  0.99456992171E+02  0.00000000000E+00 0.  1.
          6    2    1    2  502    0 -0.30222409489E+02  0.26986894804E+02  0.56890433397E+03  0.59560130241E+03  0.17160152592E+03 0.  0.
         24    2    3    3    0    0 -0.25906656401E+02  0.83125744867E+02  0.32790847607E+03  0.34807092097E+03  0.77771158159E+02 0.  0.
         -6    2    1    2    0  501  0.30222409489E+02 -0.26986894804E+02  0.48406921310E+01  0.17705770803E+03  0.17229136121E+03 0.  0.
        -24    2    5    5    0    0 -0.56824032738E+01  0.46544304542E+02 -0.17159437053E+02  0.92192588335E+02  0.77500742394E+02 0.  0.
          5    1    3    3  502    0 -0.43157530877E+01 -0.56138850064E+02  0.24099585789E+03  0.24753038143E+03  0.47000000000E+01 0. -1.
        -11    1    4    4    0    0  0.21819899362E+02  0.45211456400E+02  0.20256016959E+03  0.20868829891E+03  0.00000000000E+00 0.  1.
         12    1    4    4    0    0 -0.47726555764E+02  0.37914288468E+02  0.12534830649E+03  0.13938262207E+03  0.00000000000E+00 0. -1.
         -5    1    5    5    0  501  0.35904812763E+02 -0.73531199346E+02  0.22000129184E+02  0.84865119695E+02  0.47000000000E+01 0.  1.
         13    1    6    6    0    0  0.24796622066E+02  0.43034823057E+02  0.10635998569E+02  0.50793630771E+02  0.00000000000E+00 0. -1.
        -14    1    6    6    0    0 -0.30479025339E+02  0.35094814856E+01 -0.27795435622E+02  0.41398957564E+02  0.00000000000E+00 0.  1.
</event>
<event>
12    1  0.2689284E-002  0.2074504E+03  0.7818608E-02  0.1143601E+00
          1   -1    0    0  502    0  0.00000000000E+00  0.00000000000E+00  0.26017682151E+03  0.26017682151E+03  0.00000000000E+00 0.  1.
         -1   -1    0    0    0  501 -0.00000000000E+00 -0.00000000000E+00 -0.24758274117E+03  0.24758274117E+03  0.00000000000E+00 0. -1.
          6    2    1    2  502    0  0.26796588253E+02  0.11472564009E+03 -0.13993716584E+03  0.25116898701E+03  0.17211455492E+03 0.  0.
         24    2    3    3    0    0 -0.44118681225E+02  0.63428395804E+02 -0.41621927682E+02  0.11945581845E+03  0.81041275109E+02 0.  0.
         -6    2    1    2    0  501 -0.26796588253E+02 -0.11472564009E+03  0.15253124618E+03  0.25659057566E+03  0.16938982503E+03 0.  0.
        -24    2    5    5    0    0 -0.28622769111E+02 -0.83216203132E+02  0.17886828150E+03  0.21521535382E+03  0.81114653536E+02 0.  0.
          5    1    3    3  502    0  0.70915269478E+02  0.51297244283E+02 -0.98315238162E+02  0.13171316856E+03  0.47000000000E+01 0. -1.
        -11    1    4    4    0    0 -0.15107738636E+02 -0.20264411560E+01  0.19893804899E+02  0.25062196708E+02  0.00000000000E+00 0.  1.
         12    1    4    4    0    0 -0.29010942589E+02  0.65454836960E+02 -0.61515732582E+02  0.94393621746E+02  0.00000000000E+00 0. -1.
         -5    1    5    5    0  501  0.18261808578E+01 -0.31509436955E+02 -0.26337035314E+02  0.41375221847E+02  0.47000000000E+01 0.  1.
         11    1    6    6    0    0 -0.27367206967E+01 -0.49384476356E+02  0.24728678011E+02  0.55297591822E+02  0.00000000000E+00 0. -1.
        -12    1    6    6    0    0 -0.25886048414E+02 -0.33831726776E+02  0.15413960348E+03  0.15991776200E+03  0.00000000000E+00 0.  1.
</event>
<event>
12    1  0.2689284E-002  0.1969987E+03  0.7818608E-02  0.1152296E+00
          2   -1    0    0  502    0  0.00000000000E+00  0.00000000000E+00  0.21256888640E+04  0.21256888640E+04  0.00000000000E+00 0. -1.
         -2   -1    0    0    0  501 -0.00000000000E+00 -0.00000000000E+00 -0.21255534107E+02  0.21255534107E+02  0.00000000000E+00 0.  1.
          6    2    1    2  502    0 -0.32841091915E+02  0.90691497635E+02  0.14577147925E+04  0.14710336114E+04  0.17234843922E+03 0.  0.
         24    2    3    3    0    0 -0.99140986189E+00  0.11242939799E+02  0.11093177188E+04  0.11122452524E+04  0.79851823009E+02 0.  0.
         -6    2    1    2    0  501  0.32841091915E+02 -0.90691497635E+02  0.64671853743E+03  0.67591078676E+03  0.17119299032E+03 0.  0.
        -24    2    5    5    0    0 -0.33053399520E+02 -0.39740579147E+02  0.19808232003E+03  0.21958346381E+03  0.79425759189E+02 0.  0.
          5    1    3    3  502    0 -0.31849682053E+02  0.79448557836E+02  0.34839707374E+03  0.35878835904E+03  0.47000000000E+01 0. -1.
        -13    1    4    4    0    0 -0.33266368463E+02  0.29399424457E+01  0.24268962897E+03  0.24497663264E+03  0.00000000000E+00 0.  1.
         14    1    4    4    0    0  0.32274958601E+02  0.83029973534E+01  0.86662808979E+03  0.86726861971E+03  0.00000000000E+00 0. -1.
         -5    1    5    5    0  501  0.65894491435E+02 -0.50950918488E+02  0.44863621741E+03  0.45632732295E+03  0.47000000000E+01 0.  1.
         11    1    6    6    0    0 -0.52579582372E+02 -0.23823909043E+02  0.17871853004E+03  0.18780975508E+03  0.00000000000E+00 0. -1.
        -12    1    6    6    0    0  0.19526182852E+02 -0.15916670104E+02  0.19363789989E+02  0.31773708734E+02  0.00000000000E+00 0.  1.
</event>
<event>
12    1  0.2689284E-002  0.2168242E+03  0.7818608E-02  0.1136273E+00
         -2   -1    0    0    0  501 -0.00000000000E+00  0.00000000000E+00  0.88006960982E+02  0.88006960982E+02  0.00000000000E+00 0. -1.
          2   -1    0    0  502    0  0.00000000000E+00 -0.00000000000E+00 -0.54565235776E+03  0.54565235776E+03  0.00000000000E+00 0.  1.
          6    2    1    2  502    0  0.46321192733E+02  0.11741177024E+03 -0.18667273357E+03  0.28870430553E+03  0.18047794847E+03 0.  0.
         24    2    3    3    0    0  0.93210214431E+02  0.72074195589E+02 -0.17315272373E+03  0.22192888567E+03  0.73401163579E+02 0.  0.
         -6    2    1    2    0  501 -0.46321192733E+02 -0.11741177024E+03 -0.27097266321E+03  0.34495501322E+03  0.17215283979E+03 0.  0.
        -24    2    5    5    0    0 -0.10185097281E+02 -0.23634409963E+02 -0.44857308210E+02  0.97467125706E+02  0.82615621723E+02 0.  0.
          5    1    3    3  502    0 -0.46889021699E+02  0.45337574655E+02 -0.13520009840E+02  0.66775419861E+02  0.47000000000E+01 0. -1.
        -11    1    4    4    0    0  0.42225619732E+02 -0.67293007531E+01 -0.36910937244E+02  0.56486314614E+02  0.00000000000E+00 0.  1.
         12    1    4    4    0    0  0.50984594699E+02  0.78803496342E+02 -0.13624178648E+03  0.16544257105E+03  0.00000000000E+00 0. -1.
         -5    1    5    5    0  501 -0.36136095452E+02 -0.93777360281E+02 -0.22611535500E+03  0.24748788751E+03  0.47000000000E+01 0.  1.
         11    1    6    6    0    0  0.31573133263E+02 -0.93757576513E+01  0.21353702556E+01  0.33004959956E+02  0.00000000000E+00 0. -1.
        -12    1    6    6    0    0 -0.41758230544E+02 -0.14258652312E+02 -0.46992678465E+02  0.64462165750E+02  0.00000000000E+00 0.  1.
</event>
<event>
12    1  0.2689284E-002  0.2855576E+03  0.7818608E-02  0.1092692E+00
          2   -1    0    0  502    0  0.00000000000E+00  0.00000000000E+00  0.61317240240E+03  0.61317240240E+03  0.00000000000E+00 0.  1.
         -2   -1    0    0    0  501 -0.00000000000E+00 -0.00000000000E+00 -0.13497874541E+03  0.13497874541E+03  0.00000000000E+00 0. -1.
          6    2    1    2  502    0 -0.21620975047E+03 -0.83647723670E+02  0.19636986886E+03  0.34912382493E+03  0.17199628444E+03 0.  0.
         24    2    3    3    0    0 -0.49433568636E+02 -0.41814489185E+02  0.13753500341E+03  0.16733288531E+03  0.69944893512E+02 0.  0.
         -6    2    1    2    0  501  0.21620975047E+03  0.83647723670E+02  0.28182378813E+03  0.39902732288E+03  0.16141424651E+03 0.  0.
        -24    2    5    5    0    0  0.23505103543E+03  0.87973617566E+02  0.25668730323E+03  0.36697049444E+03  0.76096159618E+02 0.  0.
          5    1    3    3  502    0 -0.16677618184E+03 -0.41833234485E+02  0.58834865456E+02  0.18179093962E+03  0.47000000000E+01 0. -1.
        -13    1    4    4    0    0 -0.25747470523E+02 -0.45894993694E+02  0.37929492990E+02  0.64868552650E+02  0.00000000000E+00 0.  1.
         14    1    4    4    0    0 -0.23686098113E+02  0.40805045088E+01  0.99605510418E+02  0.10246433266E+03  0.00000000000E+00 0. -1.
         -5    1    5    5    0  501 -0.18841284952E+02 -0.43258938955E+01  0.25136484898E+02  0.32056828440E+02  0.47000000000E+01 0.  1.
         11    1    6    6    0    0  0.16597352228E+03  0.92006511483E+02  0.16086912699E+03  0.24877958974E+03  0.00000000000E+00 0. -1.
        -12    1    6    6    0    0  0.69077513144E+02 -0.40328939170E+01  0.95818176242E+02  0.11819090470E+03  0.00000000000E+00 0.  1.
</event>
<event>
12    1  0.2689284E-002  0.1924566E+03  0.7818608E-02  0.1156264E+00
         -2   -1    0    0    0  501 -0.00000000000E+00  0.00000000000E+00  0.46210227287E+02  0.46210227287E+02  0.00000000000E+00 0. -1.
          2   -1    0    0  502    0  0.00000000000E+00 -0.00000000000E+00 -0.90712593793E+03  0.90712593793E+03  0.00000000000E+00 0.  1.
          6    2    1    2  502    0 -0.36966205889E+02 -0.78053580064E+02 -0.59659860303E+03  0.62743403441E+03  0.17402503458E+03 0.  0.
         24    2    3    3    0    0 -0.29348784872E+02 -0.10462076284E+03 -0.30295090127E+03  0.33245114838E+03  0.83292630443E+02 0.  0.
         -6    2    1    2    0  501  0.36966205889E+02  0.78053580064E+02 -0.26431710762E+03  0.32590213081E+03  0.16997000838E+03 0.  0.
        -24    2    5    5    0    0  0.82543080980E+01  0.11291268753E+03 -0.15566227998E+03  0.20814181484E+03  0.79214020675E+02 0.  0.
          5    1    3    3  502    0 -0.76174210179E+01  0.26567182778E+02 -0.29364770175E+03  0.29498288603E+03  0.47000000000E+01 0. -1.
        -13    1    4    4    0    0 -0.44587219764E+02 -0.46005768561E+02 -0.22378903400E+03  0.23277904254E+03  0.00000000000E+00 0.  1.
         14    1    4    4    0    0  0.15238434893E+02 -0.58614994280E+02 -0.79161867274E+02  0.99672105841E+02  0.00000000000E+00 0. -1.
         -5    1    5    5    0  501  0.28711897791E+02 -0.34859107462E+02 -0.10865482764E+03  0.11776031597E+03  0.47000000000E+01 0.  1.
         11    1    6    6    0    0  0.29046575507E+02  0.17324763678E+02 -0.15463272656E+02  0.37188221071E+02  0.00000000000E+00 0. -1.
        -12    1    6    6    0    0 -0.20792267409E+02  0.95587923847E+02 -0.14019900732E+03  0.17095359377E+03  0.00000000000E+00 0.  1.
</event>
<event>
12    1  0.2689284E-002  0.1825141E+03  0.7818608E-02  0.1165392E+00
          2   -1    0    0  502    0  0.00000000000E+00  0.00000000000E+00  0.16544881051E+04  0.16544881051E+04  0.00000000000E+00 0. -1.
         -2   -1    0    0    0  501 -0.00000000000E+00 -0.00000000000E+00 -0.20284255496E+02  0.20284255496E+02  0.00000000000E+00 0.  1.
          6    2    1    2  502    0 -0.41984147629E+02 -0.46248252002E+02  0.89392927845E+03  0.91259427270E+03  0.17267652479E+03 0.  0.
         24    2    3    3    0    0  0.14396629359E+02 -0.12656137759E+02  0.74566490270E+03  0.75038565002E+03  0.81823198873E+02 0.  0.
         -6    2    1    2    0  501  0.41984147629E+02  0.46248252002E+02  0.74027457119E+03  0.76217808794E+03  0.17031567022E+03 0.  0.
        -24    2    5    5    0    0 -0.14251929685E+01 -0.10139389240E+02  0.18292335718E+03  0.20028272162E+03  0.80915854988E+02 0.  0.
          5    1    3    3  502    0 -0.56380776989E+02 -0.33592114243E+02  0.14826437576E+03  0.16220862268E+03  0.47000000000E+01 0. -1.
        -11    1    4    4    0    0  0.31778017876E+02  0.19244167909E+02  0.19395170006E+03  0.19747770096E+03  0.00000000000E+00 0.  1.
         12    1    4    4    0    0 -0.17381388517E+02 -0.31900305668E+02  0.55171320264E+03  0.55290794906E+03  0.00000000000E+00 0. -1.
         -5    1    5    5    0  501  0.43409340598E+02  0.56387641242E+02  0.55735121401E+03  0.56189536632E+03  0.47000000000E+01 0.  1.
         11    1    6    6    0    0  0.28594360388E+02  0.22499254261E+02  0.96822013356E+02  0.10343285822E+03  0.00000000000E+00 0. -1.
        -12    1    6    6    0    0 -0.30019553356E+02 -0.32638643501E+02  0.86101343828E+02  0.96849863408E+02  0.00000000000E+00 0.  1.
</event>
<event>
12    1  0.2689284E-002  0.1813523E+03  0.7818608E-02  0.1166501E+00
          1   -1    0    0  502    0  0.00000000000E+00  0.00000000000E+00  0.11386571733E+03  0.11386571733E+03  0.00000000000E+00 0. -1.
         -1   -1    0    0    0  501 -0.00000000000E+00 -0.00000000000E+00 -0.28973666020E+03  0.28973666020E+03  0.00000000000E+00 0.  1.
          6    2    1    2  502    0  0.80973862456E+01  0.57324360108E+02 -0.76612207708E+02  0.19671637514E+03  0.17168649322E+03 0.  0.
         24    2    3    3    0    0  0.25198105604E+02 -0.29872296413E+02 -0.19786749311E+02  0.91137427277E+02  0.79920063709E+02 0.  0.
         -6    2    1    2    0  501 -0.80973862456E+01 -0.57324360108E+02 -0.99258735157E+02  0.20688600239E+03  0.17204031955E+03 0.  0.
        -24    2    5    5    0    0 -0.10955156134E+02 -0.31126230160E+02  0.16760664615E+02  0.87818374607E+02  0.79638491889E+02 0.  0.
          5    1    3    3  502    0 -0.17100719358E+02  0.87196656521E+02 -0.56825458397E+02  0.10557894787E+03  0.47000000000E+01 0. -1.
        -13    1    4    4    0    0  0.47990883699E+02  0.58886548076E+00  0.55153835555E+00  0.47997665311E+02  0.00000000000E+00 0.  1.
         14    1    4    4    0    0 -0.22792778095E+02 -0.30461161894E+02 -0.20338287667E+02  0.43139761965E+02  0.00000000000E+00 0. -1.
         -5    1    5    5    0  501  0.28577698887E+01 -0.26198129948E+02 -0.11601939977E+03  0.11906762778E+03  0.47000000000E+01 0.  1.
         13    1    6    6    0    0 -0.20111808495E+02 -0.49761551153E+02  0.31612504468E+02  0.62290025307E+02  0.00000000000E+00 0. -1.
        -14    1    6    6    0    0  0.91566523609E+01  0.18635320992E+02 -0.14851839853E+02  0.25528349300E+02  0.00000000000E+00 0.  1.
</event>
<event>
12    1  0.2689284E-002  0.2306334E+03  0.7818608E-02  0.1126195E+00
         -2   -1    0    0    0  501 -0.00000000000E+00  0.00000000000E+00  0.25972221122E+02  0.25972221122E+02  0.00000000000E+00 0.  1.
          2   -1    0    0  502    0  0.00000000000E+00 -0.00000000000E+00 -0.23381034061E+04  0.23381034061E+04  0.00000000000E+00 0. -1.
          6    2    1    2  502    0  0.54984215589E+02  0.14465136072E+03 -0.74276312056E+03  0.77795127222E+03  0.17194141026E+03 0.  0.
         24    2    3    3    0    0  0.17992815364E+01  0.99433132187E+02 -0.26105439923E+03  0.29118776948E+03  0.82162841621E+02 0.  0.
         -6    2    1    2    0  501 -0.54984215589E+02 -0.14465136072E+03 -0.15693680644E+04  0.15861243550E+04  0.17007959251E+03 0.  0.
        -24    2    5    5    0    0  0.56346508364E+01 -0.14980950946E+02 -0.46059885649E+03  0.46814389516E+03  0.82165818888E+02 0.  0.
          5    1    3    3  502    0  0.53184934052E+02  0.45218228538E+02 -0.48170872133E+03  0.48676350275E+03  0.47000000000E+01 0. -1.
        -11    1    4    4    0    0  0.23657268193E+02  0.76263027743E+00 -0.25095592188E+02  0.34496908420E+02  0.00000000000E+00 0.  1.
         12    1    4    4    0    0 -0.21857986656E+02  0.98670501909E+02 -0.23595880705E+03  0.25669086106E+03  0.00000000000E+00 0. -1.
         -5    1    5    5    0  501 -0.60618866425E+02 -0.12967040978E+03 -0.11087692079E+04  0.11179804598E+04  0.47000000000E+01 0.  1.
         13    1    6    6    0    0 -0.13766917509E+02  0.12529925777E+02 -0.38427559807E+03  0.38472621737E+03  0.00000000000E+00 0. -1.
        -14    1    6    6    0    0  0.19401568345E+02 -0.27510876723E+02 -0.76323258420E+02  0.83417677792E+02  0.00000000000E+00 0.  1.
</event>
<event>
12    1  0.2689284E-002  0.1777902E+03  0.7818608E-02  0.1169959E+00
          2   -1    0    0  502    0  0.00000000000E+00  0.00000000000E+00  0.12688527732E+04  0.12688527732E+04  0.00000000000E+00 0. -1.
         -2   -1    0    0    0  501 -0.00000000000E+00 -0.00000000000E+00 -0.34072449690E+02  0.34072449690E+02  0.00000000000E+00 0.  1.
          6    2    1    2  502    0 -0.87187520134E+01  0.44261825627E+02  0.95459868509E+03  0.97097179404E+03  0.17173365833E+03 0.  0.
         24    2    3    3    0    0 -0.85513294493E+01 -0.35108309187E+02  0.66082960957E+03  0.66663315689E+03  0.79989214092E+02 0.  0.
         -6    2    1    2    0  501  0.87187520134E+01 -0.44261825627E+02  0.28018163843E+03  0.33195342886E+03  0.17220976329E+03 0.  0.
        -24    2    5    5    0    0 -0.22632919524E+02  0.37228466097E+02  0.11813926705E+03  0.14782462862E+03  0.77440471811E+02 0.  0.
          5    1    3    3  502    0 -0.16742256413E+00  0.79370134815E+02  0.29376907552E+03  0.30433863715E+03  0.47000000000E+01 0. -1.
        -11    1    4    4    0    0 -0.35108621690E+02 -0.45218444485E+02  0.36776222543E+03  0.37219131840E+03  0.00000000000E+00 0.  1.
         12    1    4    4    0    0  0.26557292241E+02  0.10110135298E+02  0.29306738415E+03  0.29444183850E+03  0.00000000000E+00 0. -1.
         -5    1    5    5    0  501  0.31351671537E+02 -0.81490291724E+02  0.16204237138E+03  0.18412880023E+03  0.47000000000E+01 0.  1.
         11    1    6    6    0    0 -0.91209893779E+01  0.58151812328E+02  0.10312645652E+03  0.11874296509E+03  0.00000000000E+00 0. -1.
        -12    1    6    6    0    0 -0.13511930146E+02 -0.20923346231E+02  0.15012810531E+02  0.29081663533E+02  0.00000000000E+00 0.  1.
</event>
<event>
12    1  0.2689284E-002  0.1759617E+03  0.7818608E-02  0.1171770E+00
         -1   -1    0    0    0  501 -0.00000000000E+00  0.00000000000E+00  0.53345326612E+02  0.53345326612E+02  0.00000000000E+00 0. -1.
          1   -1    0    0  502    0  0.00000000000E+00 -0.00000000000E+00 -0.60816020006E+03  0.60816020006E+03  0.00000000000E+00 0.  1.
          6    2    1    2  502    0 -0.12071679903E+02 -0.35938705502E+02 -0.20701585867E+03  0.27180322027E+03  0.17200031628E+03 0.  0.
         24    2    3    3    0    0 -0.35088225086E+02  0.29656244556E+02 -0.54593278580E+02  0.10421088230E+03  0.75952653296E+02 0.  0.
         -6    2    1    2    0  501  0.12071679903E+02  0.35938705502E+02 -0.34779901477E+03  0.38970230640E+03  0.17165784842E+03 0.  0.
        -24    2    5    5    0    0  0.96203459592E+00 -0.36156693388E+02 -0.10915165227E+03  0.14011099166E+03  0.80054823744E+02 0.  0.
          5    1    3    3  502    0  0.23016545183E+02 -0.65594950058E+02 -0.15242258009E+03  0.16759233797E+03  0.47000000000E+01 0. -1.
        -11    1    4    4    0    0 -0.18332236655E+02  0.38647154434E+02 -0.68426318115E+02  0.80695938296E+02  0.00000000000E+00 0.  1.
         12    1    4    4    0    0 -0.16755988431E+02 -0.89909098784E+01  0.13833039535E+02  0.23514944004E+02  0.00000000000E+00 0. -1.
         -5    1    5    5    0  501  0.11109645307E+02  0.72095398891E+02 -0.23864736250E+03  0.24959131473E+03  0.47000000000E+01 0.  1.
         13    1    6    6    0    0 -0.10425734789E+02  0.32487487882E+01  0.95594639729E+01  0.14513223833E+02  0.00000000000E+00 0. -1.
        -14    1    6    6    0    0  0.11387769385E+02 -0.39405442177E+02 -0.11871111624E+03  0.12559776783E+03  0.00000000000E+00 0.  1.
</event>
<event>
12    1  0.2689284E-002  0.2059100E+03  0.7818608E-02  0.1144846E+00
         -2   -1    0    0    0  501 -0.00000000000E+00  0.00000000000E+00  0.74672213850E+02  0.74672213850E+02  0.00000000000E+00 0. -1.
          2   -1    0    0  502    0  0.00000000000E+00 -0.00000000000E+00 -0.70175675168E+03  0.70175675168E+03  0.00000000000E+00 0.  1.
          6    2    1    2  502    0 -0.75038873597E+01  0.11240691655E+03 -0.14273249122E+03  0.24974028897E+03  0.17119002503E+03 0.  0.
         24    2    3    3    0    0 -0.10605312732E+02  0.42890858900E+02 -0.15797201264E+03  0.17835097518E+03  0.70012964036E+02 0.  0.
         -6    2    1    2    0  501  0.75038873597E+01 -0.11240691655E+03 -0.48435204661E+03  0.52668867656E+03  0.17352934551E+03 0.  0.
        -24    2    5    5    0    0  0.60775950128E+02 -0.47907580944E+02 -0.36213301413E+03  0.37850750750E+03  0.78350244958E+02 0.  0.
          5    1    3    3  502    0  0.31014253718E+01  0.69516057649E+02  0.15239521419E+02  0.71389313791E+02  0.47000000000E+01 0. -1.
        -11    1    4    4    0    0  0.24881354390E+02  0.13384615801E+02 -0.10181895777E+03  0.10566612464E+03  0.00000000000E+00 0.  1.
         12    1    4    4    0    0 -0.35486667122E+02  0.29506243100E+02 -0.56153054872E+02  0.72684850531E+02  0.00000000000E+00 0. -1.
         -5    1    5    5    0  501 -0.53272062768E+02 -0.64499335605E+02 -0.12221903248E+03  0.14818116906E+03  0.47000000000E+01 0.  1.
         13    1    6    6    0    0 -0.12883342699E+02  0.83449734314E+01 -0.30189110200E+02  0.33867410225E+02  0.00000000000E+00 0. -1.
        -14    1    6    6    0    0  0.73659292827E+02 -0.56252554376E+02 -0.33194390393E+03  0.34464009728E+03  0.00000000000E+00 0.  1.
</event>
<event>
12    1  0.2689284E-002  0.2223627E+03  0.7818608E-02  0.1132134E+00
          1   -1    0    0  502    0  0.00000000000E+00  0.00000000000E+00  0.33832974283E+04  0.33832974283E+04  0.00000000000E+00 0. -1.
         -1   -1    0    0    0  501 -0.00000000000E+00 -0.00000000000E+00 -0.21162069460E+02  0.21162069460E+02  0.00000000000E+00 0.  1.
          6    2    1    2  502    0 -0.14032775719E+03 -0.10977258015E+02  0.26298320923E+04  0.26392472501E+04  0.17261759502E+03 0.  0.
         24    2    3    3    0    0 -0.93331665206E+02 -0.45925898858E+02  0.23291619857E+04  0.23328901984E+04  0.81000828510E+02 0.  0.
         -6    2    1    2    0  501  0.14032775719E+03  0.10977258015E+02  0.73230326661E+03  0.76521224768E+03  0.17166633356E+03 0.  0.
        -24    2    5    5    0    0  0.11151453054E+03  0.53994689029E+02  0.65976437167E+03  0.67596717678E+03  0.79320117192E+02 0.  0.
          5    1    3    3  502    0 -0.46996091983E+02  0.34948640843E+02  0.30067010659E+03  0.30635705175E+03  0.47000000000E+01 0. -1.
        -13    1    4    4    0    0 -0.70856073473E+02 -0.34724878266E+02  0.88523164398E+03  0.88874150563E+03  0.00000000000E+00 0.  1.
         14    1    4    4    0    0 -0.22475591734E+02 -0.11201020592E+02  0.14439303417E+04  0.14441486927E+04  0.00000000000E+00 0. -1.
         -5    1    5    5    0  501  0.28813226649E+02 -0.43017431014E+02  0.72538894941E+02  0.89245070901E+02  0.47000000000E+01 0.  1.
         11    1    6    6    0    0  0.27429869199E+02  0.15240467389E+02  0.37972682556E+03  0.38102116952E+03  0.00000000000E+00 0. -1.
        -12    1    6    6    0    0  0.84084661341E+02  0.38754221640E+02  0.28003754611E+03  0.29494600726E+03  0.00000000000E+00 0.  1.
</event>
<event>
12    1  0.2689284E-002  0.1985305E+03  0.7818608E-02  0.1150985E+00
          2   -1    0    0  502    0  0.00000000000E+00  0.00000000000E+00  0.29335392158E+03  0.29335392158E+03  0.00000000000E+00 0. -1.
         -2   -1    0    0    0  501 -0.00000000000E+00 -0.00000000000E+00 -0.14175255639E+03  0.14175255639E+03  0.00000000000E+00 0.  1.
          6    2    1    2  502    0 -0.10003548063E+03 -0.18187565085E+02  0.12520895413E+03  0.23407696903E+03  0.16963743787E+03 0.  0.
         24    2    3    3    0    0 -0.37410041410E+02 -0.42132446323E+02  0.13408132033E+03  0.16628233903E+03  0.80606213043E+02 0.  0.
         -6    2    1    2    0  501  0.10003548063E+03  0.18187565085E+02  0.26392411057E+02  0.20102950893E+03  0.17140133952E+03 0.  0.
        -24    2    5    5    0    0  0.82880071643E+02  0.44673285935E+02  0.71200757949E+02  0.14602333275E+03  0.85956134297E+02 0.  0.
          5    1    3    3  502    0 -0.62625439221E+02  0.23944881238E+02 -0.88723661984E+01  0.67794630002E+02  0.47000000000E+01 0. -1.
        -11    1    4    4    0    0  0.10837152209E+02 -0.22663124784E+02  0.30568302863E+01  0.25306230544E+02  0.00000000000E+00 0.  1.
         12    1    4    4    0    0 -0.48247193618E+02 -0.19469321539E+02  0.13102449004E+03  0.14097610849E+03  0.00000000000E+00 0. -1.
         -5    1    5    5    0  501  0.17155408987E+02 -0.26485720850E+02 -0.44808346892E+02  0.55006176178E+02  0.47000000000E+01 0.  1.
         11    1    6    6    0    0  0.46385666076E+02  0.31369649466E+02  0.87511677120E+02  0.10389407373E+03  0.00000000000E+00 0. -1.
        -12    1    6    6    0    0  0.36494405568E+02  0.13303636469E+02 -0.16310919171E+02  0.42129259016E+02  0.00000000000E+00 0.  1.
</event>
<event>
12    1  0.2689284E-002  0.2809753E+03  0.7818608E-02  0.1095157E+00
         -1   -1    0    0    0  501 -0.00000000000E+00  0.00000000000E+00  0.11613977243E+04  0.11613977243E+04  0.00000000000E+00 0.  1.
          1   -1    0    0  502    0  0.00000000000E+00 -0.00000000000E+00 -0.15125782285E+03  0.15125782285E+03  0.00000000000E+00 0. -1.
          6    2    1    2  502    0  0.69892057650E+02  0.21163857907E+03  0.18070185268E+02  0.28156729576E+03  0.17110763446E+03 0.  0.
         24    2    3    3    0    0  0.70723055171E+02  0.12660834534E+03 -0.50167692540E+02  0.17243742279E+03  0.78653949440E+02 0.  0.
         -6    2    1    2    0  501 -0.69892057650E+02 -0.21163857907E+03  0.99206971614E+03  0.10310882514E+04  0.17106978848E+03 0.  0.
        -24    2    5    5    0    0 -0.11288256634E+03 -0.17885922283E+03  0.82701934462E+03  0.85734595607E+03  0.79674316026E+02 0.  0.
          5    1    3    3  502    0 -0.83099752026E+00  0.85030233730E+02  0.68237877808E+02  0.10912987296E+03  0.47000000000E+01 0. -1.
        -13    1    4    4    0    0  0.13733234927E+02  0.10142147005E+03 -0.25921103114E+02  0.10557850120E+03  0.00000000000E+00 0.  1.
         14    1    4    4    0    0  0.56989820244E+02  0.25186875293E+02 -0.24246589426E+02  0.66858921598E+02  0.00000000000E+00 0. -1.
         -5    1    5    5    0  501  0.42990508694E+02 -0.32779356241E+02  0.16505037152E+03  0.17374229529E+03  0.47000000000E+01 0.  1.
         11    1    6    6    0    0 -0.92941622631E+02 -0.12271421031E+03  0.44889412820E+03  0.47455543507E+03  0.00000000000E+00 0. -1.
        -12    1    6    6    0    0 -0.19940943714E+02 -0.56145012517E+02  0.37812521642E+03  0.38279052099E+03  0.00000000000E+00 0.  1.
</event>
<event>
12    1  0.2689284E-002  0.2070001E+03  0.7818608E-02  0.1143964E+00
          2   -1    0    0  502    0  0.00000000000E+00  0.00000000000E+00  0.38141085190E+03  0.38141085190E+03  0.00000000000E+00 0.  1.
         -2   -1    0    0    0  501 -0.00000000000E+00 -0.00000000000E+00 -0.11832972932E+03  0.11832972932E+03  0.00000000000E+00 0. -1.
          6    2    1    2  502    0 -0.19121134648E+01 -0.11534164529E+03  0.18743177047E+03  0.27887245899E+03  0.17126537446E+03 0.  0.
         24    2    3    3    0    0  0.76250891975E+01 -0.14599812166E+03  0.12409015178E+03  0.20770344581E+03  0.79804524447E+02 0.  0.
         -6    2    1    2    0  501  0.19121134648E+01  0.11534164529E+03  0.75649352101E+02  0.22086812223E+03  0.17248927975E+03 0.  0.
        -24    2    5    5    0    0  0.39884175217E+02  0.11554575127E+02  0.44029120861E+01  0.89293889867E+02  0.78928812823E+02 0.  0.
          5    1    3    3  502    0 -0.95372026623E+01  0.30656476371E+02  0.63341618696E+02  0.71169013180E+02  0.47000000000E+01 0. -1.
        -11    1    4    4    0    0 -0.25931730171E+02 -0.96788748311E+02  0.10504148863E+03  0.14516966199E+03  0.00000000000E+00 0.  1.
         12    1    4    4    0    0  0.33556819369E+02 -0.49209373347E+02  0.19048663144E+02  0.62533783821E+02  0.00000000000E+00 0. -1.
         -5    1    5    5    0  501 -0.37972061753E+02  0.10378707016E+03  0.71246440014E+02  0.13157423236E+03  0.47000000000E+01 0.  1.
         13    1    6    6    0    0 -0.13448738998E+02 -0.22275804961E+02  0.17867362285E+01  0.26082033924E+02  0.00000000000E+00 0. -1.
        -14    1    6    6    0    0  0.53332914215E+02  0.33830380088E+02  0.26161758576E+01  0.63211855943E+02  0.00000000000E+00 0.  1.
</event>
<event>
12    1  0.2689284E-002  0.1948515E+03  0.7818608E-02  0.1154157E+00
          1   -1    0    0  502    0  0.00000000000E+00  0.00000000000E+00  0.13714560666E+04  0.13714560666E+04  0.00000000000E+00 0. -1.
         -1   -1    0    0    0  501 -0.00000000000E+00 -0.00000000000E+00 -0.29209283691E+02  0.29209283691E+02  0.00000000000E+00 0.  1.
          6    2    1    2  502    0 -0.83115882959E+02  0.44228586841E+02  0.83357466722E+03  0.85621524872E+03  0.17144505949E+03 0.  0.
         24    2    3    3    0    0 -0.33205913174E+02  0.28065557860E+01  0.72252341330E+03  0.72752468676E+03  0.78368218421E+02 0.  0.
         -6    2    1    2    0  501  0.83115882959E+02 -0.44228586841E+02  0.50867211566E+03  0.54445010154E+03  0.16974738266E+03 0.  0.
        -24    2    5    5    0    0  0.14477572029E+02 -0.59707039919E+02  0.16307226270E+03  0.19172903808E+03  0.79955803260E+02 0.  0.
          5    1    3    3  502    0 -0.49909969786E+02  0.41422031055E+02  0.11105125392E+03  0.12869056196E+03  0.47000000000E+01 0. -1.
        -13    1    4    4    0    0  0.19433275895E+02  0.18060662051E+02  0.14502891543E+03  0.14743549788E+03  0.00000000000E+00 0.  1.
         14    1    4    4    0    0 -0.52639189068E+02 -0.15254106265E+02  0.57749449787E+03  0.58008918888E+03  0.00000000000E+00 0. -1.
         -5    1    5    5    0  501  0.68638310930E+02  0.15478453078E+02  0.34559985296E+03  0.35272106346E+03  0.47000000000E+01 0.  1.
         13    1    6    6    0    0  0.38193867898E+02 -0.32323916349E+02  0.14026328683E+03  0.14892077339E+03  0.00000000000E+00 0. -1.
        -14    1    6    6    0    0 -0.23716295869E+02 -0.27383123570E+02  0.22808975865E+02  0.42808264695E+02  0.00000000000E+00 0.  1.
</event>
<event>
12    1  0.2689284E-002  0.1792668E+03  0.7818608E-02  0.1168514E+00
         -1   -1    0    0    0  501 -0.00000000000E+00  0.00000000000E+00  0.45188685272E+02  0.45188685272E+02  0.00000000000E+00 0.  1.
          1   -1    0    0  502    0  0.00000000000E+00 -0.00000000000E+00 -0.71539100958E+03  0.71539100958E+03  0.00000000000E+00 0. -1.
          6    2    1    2  502    0 -0.35177824202E+02 -0.33021559514E+02 -0.30697722214E+03  0.35578166040E+03  0.17325608867E+03 0.  0.
         24    2    3    3    0    0 -0.46468480605E+02  0.44168018159E+02 -0.16607893477E+03  0.19466019316E+03  0.78741632633E+02 0.  0.
         -6    2    1    2    0  501  0.35177824202E+02  0.33021559514E+02 -0.36322510217E+03  0.40479803444E+03  0.17204961824E+03 0.  0.
        -24    2    5    5    0    0 -0.12076763705E+02 -0.40123334013E+02 -0.17458446103E+03  0.19697466469E+03  0.81015766011E+02 0.  0.
          5    1    3    3  502    0  0.11290656402E+02 -0.77189577674E+02 -0.14089828736E+03  0.16112146724E+03  0.47000000000E+01 0. -1.
        -11    1    4    4    0    0 -0.68176734162E+02  0.37851431401E+02 -0.13904288181E+03  0.15941681505E+03  0.00000000000E+00 0.  1.
         12    1    4    4    0    0  0.21708253557E+02  0.63165867584E+01 -0.27036052962E+02  0.35243378109E+02  0.00000000000E+00 0. -1.
         -5    1    5    5    0  501  0.47254587907E+02  0.73144893527E+02 -0.18864064113E+03  0.20782336975E+03  0.47000000000E+01 0.  1.
         11    1    6    6    0    0 -0.39273587319E+02 -0.17302307671E+02 -0.14352230914E+03  0.14980132754E+03  0.00000000000E+00 0. -1.
        -12    1    6    6    0    0  0.27196823613E+02 -0.22821026342E+02 -0.31062151894E+02  0.47173337154E+02  0.00000000000E+00 0.  1.
</event>
<event>
12    1  0.2689284E-002  0.2001083E+03  0.7818608E-02  0.1149648E+00
         -2   -1    0    0    0  501 -0.00000000000E+00  0.00000000000E+00  0.34341422709E+03  0.34341422709E+03  0.00000000000E+00 0. -1.
          2   -1    0    0  502    0  0.00000000000E+00 -0.00000000000E+00 -0.18534167173E+03  0.18534167173E+03  0.00000000000E+00 0.  1.
          6    2    1    2  502    0 -0.97042844737E+02  0.42104720350E+02 -0.81755630575E+02  0.21694555677E+03  0.17085452959E+03 0.  0.
         24    2    3    3    0    0 -0.69184972590E+02  0.89045191035E+02 -0.83921440279E+02  0.16211628028E+03  0.80766785966E+02 0.  0.
         -6    2    1    2    0  501  0.97042844737E+02 -0.42104720350E+02  0.23982818594E+03  0.31181034204E+03  0.16887276111E+03 0.  0.
        -24    2    5    5    0    0  0.83328480388E+01  0.29718163552E+02  0.11004015007E+03  0.13890859416E+03  0.78956679918E+02 0.  0.
          5    1    3    3  502    0 -0.27857872148E+02 -0.46940470685E+02  0.21658097041E+01  0.54829276490E+02  0.47000000000E+01 0. -1.
        -11    1    4    4    0    0 -0.42013793170E+01 -0.15249242477E+02 -0.99640556711E+01  0.18694207384E+02  0.00000000000E+00 0.  1.
         12    1    4    4    0    0 -0.64983593273E+02  0.10429443351E+03 -0.73957384608E+02  0.14342207290E+03  0.00000000000E+00 0. -1.
         -5    1    5    5    0  501  0.88709996698E+02 -0.71822883902E+02  0.12978803587E+03  0.17290174788E+03  0.47000000000E+01 0.  1.
         13    1    6    6    0    0  0.29593142498E+02  0.31536545724E+02  0.10931448302E+03  0.11755834295E+03  0.00000000000E+00 0. -1.
        -14    1    6    6    0    0 -0.21260294459E+02 -0.18183821717E+01  0.72566704962E+00  0.21350251213E+02  0.00000000000E+00 0.  1.
</event>
<event>
12    1  0.2689284E-002  0.1773783E+03  0.7818608E-02  0.1170365E+00
         -1   -1    0    0    0  501 -0.00000000000E+00  0.00000000000E+00  0.40525958294E+03  0.40525958294E+03  0.00000000000E+00 0. -1.
          1   -1    0    0  502    0  0.00000000000E+00 -0.00000000000E+00 -0.92921399605E+02  0.92921399605E+02  0.00000000000E+00 0.  1.
          6    2    1    2  502    0  0.28676685641E+02 -0.19509554378E+02  0.25519433690E+03  0.30930333875E+03  0.17129340550E+03 0.  0.
         24    2    3    3    0    0  0.59221175898E+01 -0.32781224376E+02  0.26672970266E+03  0.28016466591E+03  0.78979906273E+02 0.  0.
         -6    2    1    2    0  501 -0.28676685641E+02  0.19509554378E+02  0.57143846431E+02  0.18887764379E+03  0.17665324828E+03 0.  0.
        -24    2    5    5    0    0 -0.27593473757E+02  0.38634534756E+02  0.10302219573E+03  0.13893917007E+03  0.80227757651E+02 0.  0.
          5    1    3    3  502    0  0.22754568051E+02  0.13271669999E+02 -0.11535365762E+02  0.29138672842E+02  0.47000000000E+01 0. -1.
        -13    1    4    4    0    0 -0.10282054581E+02 -0.38896985390E+02  0.57267347893E+02  0.69987464975E+02  0.00000000000E+00 0.  1.
         14    1    4    4    0    0  0.16204172171E+02  0.61157610133E+01  0.20946235477E+03  0.21017720094E+03  0.00000000000E+00 0. -1.
         -5    1    5    5    0  501 -0.10832118832E+01 -0.19124980379E+02 -0.45878349299E+02  0.49938473714E+02  0.47000000000E+01 0.  1.
         11    1    6    6    0    0 -0.53435607931E+02  0.21575773059E+02  0.44791265358E+02  0.72987229228E+02  0.00000000000E+00 0. -1.
        -12    1    6    6    0    0  0.25842134173E+02  0.17058761697E+02  0.58230930372E+02  0.65951940845E+02  0.00000000000E+00 0.  1.
</event>
<event>
12    1  0.2689284E-002  0.1783604E+03  0.7818608E-02  0.1169399E+00
         -1   -1    0    0    0  501 -0.00000000000E+00  0.00000000000E+00  0.23108814339E+03  0.23108814339E+03  0.00000000000E+00 0. -1.
          1   -1    0    0  502    0  0.00000000000E+00 -0.00000000000E+00 -0.20873737664E+03  0.20873737664E+03  0.00000000000E+00 0.  1.
          6    2    1    2  502    0 -0.48800671920E+02  0.10086500356E+02  0.13949948622E+03  0.22645335882E+03  0.17128273116E+03 0.  0.
         24    2    3    3    0    0  0.10058309282E+02  0.46103960986E+02  0.12437473043E+03  0.15565445080E+03  0.80823818773E+02 0.  0.
         -6    2    1    2    0  501  0.48800671920E+02 -0.10086500356E+02 -0.11714871947E+03  0.21337216122E+03  0.17123263018E+03 0.  0.
        -24    2    5    5    0    0 -0.36149977303E+01  0.96012598939E+01  0.31117776390E+01  0.80632990305E+02  0.79917104335E+02 0.  0.
          5    1    3    3  502    0 -0.58858981201E+02 -0.36017460630E+02  0.15124755788E+02  0.70798908013E+02  0.47000000000E+01 0. -1.
        -13    1    4    4    0    0  0.40303681007E+02  0.25992571917E+02  0.35571558770E+02  0.59710437035E+02  0.00000000000E+00 0.  1.
         14    1    4    4    0    0 -0.30245371725E+02  0.20111389068E+02  0.88803171659E+02  0.95944013767E+02  0.00000000000E+00 0. -1.
         -5    1    5    5    0  501  0.52415669650E+02 -0.19687760250E+02 -0.12026049711E+03  0.13273917091E+03  0.47000000000E+01 0.  1.
         11    1    6    6    0    0  0.12892372567E+02  0.22587705904E+02  0.34291654480E+02  0.43038765031E+02  0.00000000000E+00 0. -1.
        -12    1    6    6    0    0 -0.16507370297E+02 -0.12986446010E+02 -0.31179876841E+02  0.37594225274E+02  0.00000000000E+00 0.  1.
</event>
<event>
12    1  0.2689284E-002  0.1791119E+03  0.7818608E-02  0.1168665E+00
         -1   -1    0    0    0  501 -0.00000000000E+00  0.00000000000E+00  0.12768627103E+03  0.12768627103E+03  0.00000000000E+00 0.  1.
          1   -1    0    0  502    0  0.00000000000E+00 -0.00000000000E+00 -0.26250946564E+03  0.26250946564E+03  0.00000000000E+00 0. -1.
          6    2    1    2  502    0  0.54367657816E+02 -0.24546727224E+02 -0.26276069739E+02  0.17884225403E+03  0.16654049343E+03 0.  0.
         24    2    3    3    0    0  0.26949804916E+02  0.86153048900E+01  0.44764933753E+02  0.95653473482E+02  0.79656589381E+02 0.  0.
         -6    2    1    2    0  501 -0.54367657816E+02  0.24546727224E+02 -0.10854712487E+03  0.21135348264E+03  0.17125837869E+03 0.  0.
        -24    2    5    5    0    0 -0.92147291790E+02  0.10739465958E+02 -0.35935197558E+02  0.12821189741E+03  0.80873312655E+02 0.  0.
          5    1    3    3  502    0  0.27417852900E+02 -0.33162032114E+02 -0.71041003492E+02  0.83188780546E+02  0.47000000000E+01 0. -1.
        -13    1    4    4    0    0 -0.20641700491E+02 -0.18831861313E+02  0.24289414400E+02  0.37022890914E+02  0.00000000000E+00 0.  1.
         14    1    4    4    0    0  0.47591505407E+02  0.27447166203E+02  0.20475519352E+02  0.58630582568E+02  0.00000000000E+00 0. -1.
         -5    1    5    5    0  501  0.37779633975E+02  0.13807261266E+02 -0.72611927316E+02  0.83141585235E+02  0.47000000000E+01 0.  1.
         13    1    6    6    0    0  0.58418041160E+01 -0.10048819641E+02 -0.24845474081E+02  0.27429965983E+02  0.00000000000E+00 0. -1.
        -14    1    6    6    0    0 -0.97989095906E+02  0.20788285599E+02 -0.11089723476E+02  0.10078193142E+03  0.00000000000E+00 0.  1.
</event>
<event>
12    1  0.2689284E-002  0.2063136E+03  0.7818608E-02  0.1144519E+00
         -2   -1    0    0    0  501 -0.00000000000E+00  0.00000000000E+00  0.63521258893E+02  0.63521258893E+02  0.00000000000E+00 0. -1.
          2   -1    0    0  502    0  0.00000000000E+00 -0.00000000000E+00 -0.69589196247E+03  0.69589196247E+03  0.00000000000E+00 0.  1.
          6    2    1    2  502    0  0.10346060945E+03  0.45877528825E+02 -0.24221376348E+03  0.31778832830E+03  0.17179368157E+03 0.  0.
         24    2    3    3    0    0  0.42298653509E+02  0.29203639761E+02 -0.22089350180E+03  0.25074023370E+03  0.10693314264E+03 0.  0.
         -6    2    1    2    0  501 -0.10346060945E+03 -0.45877528825E+02 -0.39015694010E+03  0.44162489306E+03  0.17320872642E+03 0.  0.
        -24    2    5    5    0    0 -0.11015683283E+03 -0.79168276907E+02 -0.36870587319E+03  0.40118541252E+03  0.81262355376E+02 0.  0.
          5    1    3    3  502    0  0.61161955942E+02  0.16673889064E+02 -0.21320261676E+02  0.67048094598E+02  0.47000000000E+01 0. -1.
        -11    1    4    4    0    0 -0.24909645373E+01 -0.28897153871E+02 -0.13360906419E+03  0.13672100219E+03  0.00000000000E+00 0.  1.
         12    1    4    4    0    0  0.44789618046E+02  0.58100793632E+02 -0.87284437613E+02  0.11401923151E+03  0.00000000000E+00 0. -1.
         -5    1    5    5    0  501  0.66962233789E+01  0.33290748083E+02 -0.21451066903E+02  0.40439480544E+02  0.47000000000E+01 0.  1.
         13    1    6    6    0    0 -0.41729466477E+02 -0.77063911737E+02 -0.23826679571E+03  0.25387252865E+03  0.00000000000E+00 0. -1.
        -14    1    6    6    0    0 -0.68427366353E+02 -0.21043651704E+01 -0.13043907749E+03  0.14731288387E+03  0.00000000000E+00 0.  1.
</event>
<event>
12    1  0.2689284E-002  0.1830366E+03  0.7818608E-02  0.1164896E+00
         -2   -1    0    0    0  501 -0.00000000000E+00  0.00000000000E+00  0.74516859154E+02  0.74516859154E+02  0.00000000000E+00 0. -1.
          2   -1    0    0  502    0  0.00000000000E+00 -0.00000000000E+00 -0.45001711794E+03  0.45001711794E+03  0.00000000000E+00 0.  1.
          6    2    1    2  502    0 -0.15034526977E+01 -0.60986914696E+02 -0.19526539574E+03  0.26731474447E+03  0.17206665482E+03 0.  0.
         24    2    3    3    0    0 -0.60348443808E+02 -0.36571317771E+02 -0.16624181744E+03  0.19714842456E+03  0.79068093991E+02 0.  0.
         -6    2    1    2    0  501  0.15034526977E+01  0.60986914696E+02 -0.18023486305E+03  0.25721923263E+03  0.17307646762E+03 0.  0.
        -24    2    5    5    0    0  0.44520823570E+02  0.91145601166E+02 -0.10568946365E+03  0.16590030175E+03  0.77865416260E+02 0.  0.
          5    1    3    3  502    0  0.58844991111E+02 -0.24415596925E+02 -0.29023578300E+02  0.70166319908E+02  0.47000000000E+01 0. -1.
        -13    1    4    4    0    0 -0.63895267315E+01  0.23950387003E+02 -0.42749295465E+02  0.49416083942E+02  0.00000000000E+00 0.  1.
         14    1    4    4    0    0 -0.53958917077E+02 -0.60521704774E+02 -0.12349252197E+03  0.14773234062E+03  0.00000000000E+00 0. -1.
         -5    1    5    5    0  501 -0.43017370873E+02 -0.30158686469E+02 -0.74545399401E+02  0.91318930887E+02  0.47000000000E+01 0.  1.
         11    1    6    6    0    0  0.25298508361E+01 -0.14129177725E+02 -0.91868814343E+01  0.17042083175E+02  0.00000000000E+00 0. -1.
        -12    1    6    6    0    0  0.41990972734E+02  0.10527477889E+03 -0.96502582216E+02  0.14885821857E+03  0.00000000000E+00 0.  1.
</event>
<event>
12    1  0.2689284E-002  0.2496606E+03  0.7818608E-02  0.1113519E+00
         -2   -1    0    0    0  501 -0.00000000000E+00  0.00000000000E+00  0.35976177944E+03  0.35976177944E+03  0.00000000000E+00 0. -1.
          2   -1    0    0  502    0  0.00000000000E+00 -0.00000000000E+00 -0.48274257738E+03  0.48274257738E+03  0.00000000000E+00 0.  1.
          6    2    1    2  502    0  0.14546548295E+03  0.10987351588E+03 -0.39868782622E+03  0.46985642982E+03  0.16905823152E+03 0.  0.
         24    2    3    3    0    0  0.10994609258E+03  0.76663160834E+02 -0.39015167212E+03  0.42026297560E+03  0.80232523909E+02 0.  0.
         -6    2    1    2    0  501 -0.14546548295E+03 -0.10987351588E+03  0.27570702827E+03  0.37264792700E+03  0.17210379378E+03 0.  0.
        -24    2    5    5    0    0 -0.13030230428E+03 -0.13295596009E+03  0.17210097690E+03  0.26532120573E+03  0.78234379484E+02 0.  0.
          5    1    3    3  502    0  0.35519390374E+02  0.33210355048E+02 -0.85361540931E+01  0.49593454222E+02  0.47000000000E+01 0. -1.
        -11    1    4    4    0    0  0.44257974739E+02  0.78891740161E+02 -0.22998011323E+03  0.24713058790E+03  0.00000000000E+00 0.  1.
         12    1    4    4    0    0  0.65688117841E+02 -0.22285793272E+01 -0.16017155890E+03  0.17313238770E+03  0.00000000000E+00 0. -1.
         -5    1    5    5    0  501 -0.15163178677E+02  0.23082444211E+02  0.10360605137E+03  0.10732672127E+03  0.47000000000E+01 0.  1.
         11    1    6    6    0    0 -0.76981474057E+02 -0.25995566045E+02  0.55863265129E+02  0.98603352848E+02  0.00000000000E+00 0. -1.
        -12    1    6    6    0    0 -0.53320830221E+02 -0.10696039405E+03  0.11623771177E+03  0.16671785288E+03  0.00000000000E+00 0.  1.
</event>
<event>
12    1  0.2689284E-002  0.2045272E+03  0.7818608E-02  0.1145975E+00
          1   -1    0    0  502    0  0.00000000000E+00  0.00000000000E+00  0.16672813997E+04  0.16672813997E+04  0.00000000000E+00 0.  1.
         -1   -1    0    0    0  501 -0.00000000000E+00 -0.00000000000E+00 -0.32840965541E+02  0.32840965541E+02  0.00000000000E+00 0. -1.
          6    2    1    2  502    0 -0.56302535959E+02 -0.95576445984E+02  0.40348956899E+03  0.45225543084E+03  0.17154098593E+03 0.  0.
         24    2    3    3    0    0 -0.95956781163E+02 -0.46118700476E+02  0.32330175008E+03  0.34992897260E+03  0.81188828510E+02 0.  0.
         -6    2    1    2    0  501  0.56302535959E+02  0.95576445984E+02  0.12309508651E+04  0.12478669344E+04  0.17212501545E+03 0.  0.
        -24    2    5    5    0    0  0.10275041612E+02 -0.11511605925E+02  0.64386292552E+03  0.64930138246E+03  0.82430121025E+02 0.  0.
          5    1    3    3  502    0  0.39654245204E+02 -0.49457745508E+02  0.80187818907E+02  0.10232645823E+03  0.47000000000E+01 0. -1.
        -13    1    4    4    0    0 -0.31751762607E+02  0.23115660802E+02  0.10368346555E+03  0.11087276145E+03  0.00000000000E+00 0.  1.
         14    1    4    4    0    0 -0.64205018556E+02 -0.69234361278E+02  0.21961828453E+03  0.23905621115E+03  0.00000000000E+00 0. -1.
         -5    1    5    5    0  501  0.46027494347E+02  0.10708805191E+03  0.58708793960E+03  0.59856555190E+03  0.47000000000E+01 0.  1.
         11    1    6    6    0    0 -0.13363233294E+02 -0.13716782184E+02  0.34359407402E+02  0.39335670765E+02  0.00000000000E+00 0. -1.
        -12    1    6    6    0    0  0.23638274906E+02  0.22051762594E+01  0.60950351812E+03  0.60996571169E+03  0.00000000000E+00 0.  1.
</event>
<event>
12    1  0.2689284E-002  0.2449862E+03  0.7818608E-02  0.1116515E+00
          2   -1    0    0  502    0  0.00000000000E+00  0.00000000000E+00  0.32301061320E+03  0.32301061320E+03  0.00000000000E+00 0. -1.
         -2   -1    0    0    0  501 -0.00000000000E+00 -0.00000000000E+00 -0.23619310490E+03  0.23619310490E+03  0.00000000000E+00 0.  1.
          6    2    1    2  502    0  0.16479521769E+03  0.63055458199E+02  0.17278198625E+03  0.30126449138E+03  0.17254919419E+03 0.  0.
         24    2    3    3    0    0  0.16967056243E+03  0.97119814069E+02  0.14956282768E+03  0.25948688193E+03  0.82122131182E+02 0.  0.
         -6    2    1    2    0  501 -0.16479521769E+03 -0.63055458199E+02 -0.85964477949E+02  0.25793922671E+03  0.16735978796E+03 0.  0.
        -24    2    5    5    0    0 -0.54414308149E+02 -0.86528816089E+02 -0.34302834915E+02  0.13373794217E+03  0.79126479433E+02 0.  0.
          5    1    3    3  502    0 -0.48753447382E+01 -0.34064355871E+02  0.23219158566E+02  0.41777609454E+02  0.47000000000E+01 0. -1.
        -13    1    4    4    0    0  0.93430793702E+02  0.98491166732E+02  0.93358085744E+02  0.16475908263E+03  0.00000000000E+00 0.  1.
         14    1    4    4    0    0  0.76239768725E+02 -0.13713526624E+01  0.56204741936E+02  0.94727799296E+02  0.00000000000E+00 0. -1.
         -5    1    5    5    0  501 -0.11038090954E+03  0.23473357890E+02 -0.51661643034E+02  0.12420128454E+03  0.47000000000E+01 0.  1.
         13    1    6    6    0    0 -0.16523747207E+02 -0.47864182529E+02  0.22376031209E+02  0.55359741361E+02  0.00000000000E+00 0. -1.
        -14    1    6    6    0    0 -0.37890560941E+02 -0.38664633561E+02 -0.56678866124E+02  0.78378200808E+02  0.00000000000E+00 0.  1.
</event>
<event>
12    1  0.2689284E-002  0.1759087E+03  0.7818608E-02  0.1171822E+00
         -2   -1    0    0    0  501 -0.00000000000E+00  0.00000000000E+00  0.25837531673E+02  0.25837531673E+02  0.00000000000E+00 0. -1.
          2   -1    0    0  502    0  0.00000000000E+00 -0.00000000000E+00 -0.12095370396E+04  0.12095370396E+04  0.00000000000E+00 0.  1.
          6    2    1    2  502    0  0.29442491894E+02  0.20414431789E+02 -0.52860037422E+03  0.55691201313E+03  0.17160718338E+03 0.  0.
         24    2    3    3    0    0  0.38679985766E+02  0.73709493712E+02 -0.27684253206E+03  0.29936629678E+03  0.77776354570E+02 0.  0.
         -6    2    1    2    0  501 -0.29442491894E+02 -0.20414431789E+02 -0.65509913371E+03  0.67846255815E+03  0.17283795436E+03 0.  0.
        -24    2    5    5    0    0 -0.52473265621E+01  0.38598924532E+02 -0.19872697940E+03  0.21763111881E+03  0.79708720497E+02 0.  0.
          5    1    3    3  502    0 -0.92374938720E+01 -0.53295061923E+02 -0.25175784216E+03  0.25754571635E+03  0.47000000000E+01 0. -1.
        -13    1    4    4    0    0  0.54634830468E+02  0.20684438392E+02 -0.13496954773E+03  0.14707001566E+03  0.00000000000E+00 0.  1.
         14    1    4    4    0    0 -0.15954844702E+02  0.53025055320E+02 -0.14187298433E+03  0.15229628112E+03  0.00000000000E+00 0. -1.
         -5    1    5    5    0  501 -0.24195165332E+02 -0.59013356322E+02 -0.45637215431E+03  0.46083143933E+03  0.47000000000E+01 0.  1.
         13    1    6    6    0    0  0.34540515944E+02  0.19139728143E+01 -0.78690837083E+02  0.85959050567E+02  0.00000000000E+00 0. -1.
        -14    1    6    6    0    0 -0.39787842506E+02  0.36684951718E+02 -0.12003614232E+03  0.13167206825E+03  0.00000000000E+00 0.  1.
</event>
<event>
12    1  0.2689284E-002  0.1990029E+03  0.7818608E-02  0.1150583E+00
         -1   -1    0    0    0  501 -0.00000000000E+00  0.00000000000E+00  0.71388108197E+02  0.71388108197E+02  0.00000000000E+00 0.  1.
          1   -1    0    0  502    0  0.00000000000E+00 -0.00000000000E+00 -0.62690775634E+03  0.62690775634E+03  0.00000000000E+00 0. -1.
          6    2    1    2  502    0 -0.98809054531E+02 -0.32397922784E-01 -0.39616950458E+03  0.44332454724E+03  0.17269379698E+03 0.  0.
         24    2    3    3    0    0 -0.57232926498E+02 -0.47480544838E+02 -0.34157159646E+03  0.35976066366E+03  0.85009232394E+02 0.  0.
         -6    2    1    2    0  501  0.98809054531E+02  0.32397922784E-01 -0.15935014356E+03  0.25497131729E+03  0.17278505168E+03 0.  0.
        -24    2    5    5    0    0  0.68396464496E+02  0.14080843662E+02 -0.18479801571E+03  0.21263966651E+03  0.78670036542E+02 0.  0.
          5    1    3    3  502    0 -0.41576128033E+02  0.47448146915E+02 -0.54597908122E+02  0.83563883581E+02  0.47000000000E+01 0. -1.
        -13    1    4    4    0    0 -0.12920399571E+02  0.20349706161E+02 -0.33877595825E+02  0.41578104391E+02  0.00000000000E+00 0.  1.
         14    1    4    4    0    0 -0.44312526928E+02 -0.67830250999E+02 -0.30769400064E+03  0.31818255927E+03  0.00000000000E+00 0. -1.
         -5    1    5    5    0  501  0.30412590035E+02 -0.14048445740E+02  0.25447872159E+02  0.42331650780E+02  0.47000000000E+01 0.  1.
         11    1    6    6    0    0  0.52728420080E+01  0.11964906138E+02 -0.12493941762E+03  0.12562173346E+03  0.00000000000E+00 0. -1.
        -12    1    6    6    0    0  0.63123622488E+02  0.21159375241E+01 -0.59858598095E+02  0.87017933057E+02  0.00000000000E+00 0.  1.
</event>
<event>
12    1  0.2689284E-002  0.1818853E+03  0.7818608E-02  0.1165991E+00
          2   -1    0    0  502    0  0.00000000000E+00  0.00000000000E+00  0.26206775243E+03  0.26206775243E+03  0.00000000000E+00 0.  1.
         -2   -1    0    0    0  501 -0.00000000000E+00 -0.00000000000E+00 -0.16387267425E+03  0.16387267425E+03  0.00000000000E+00 0. -1.
          6    2    1    2  502    0  0.30066442393E+02 -0.53010069366E+02  0.15113350988E+03  0.23637717967E+03  0.17122726082E+03 0.  0.
         24    2    3    3    0    0 -0.25181476291E+02 -0.15481015947E+02  0.14667078954E+03  0.16927451026E+03  0.79169253604E+02 0.  0.
         -6    2    1    2    0  501 -0.30066442393E+02  0.53010069366E+02 -0.52938431698E+02  0.18956324701E+03  0.17151585540E+03 0.  0.
        -24    2    5    5    0    0  0.14436031762E+02  0.74644981581E+02 -0.81347260092E+02  0.13231212332E+03  0.71476212582E+02 0.  0.
          5    1    3    3  502    0  0.55247918684E+02 -0.37529053419E+02  0.44627203403E+01  0.67102669412E+02  0.47000000000E+01 0. -1.
        -13    1    4    4    0    0 -0.17110150732E+02 -0.41313723825E+02  0.13002876808E+03  0.13750295111E+03  0.00000000000E+00 0.  1.
         14    1    4    4    0    0 -0.80713255587E+01  0.25832707877E+02  0.16642021452E+02  0.31771559146E+02  0.00000000000E+00 0. -1.
         -5    1    5    5    0  501 -0.44502474155E+02 -0.21634912215E+02  0.28408828394E+02  0.57251123685E+02  0.47000000000E+01 0.  1.
         11    1    6    6    0    0 -0.25801924577E+02  0.10041088615E+02 -0.27929652105E+02  0.39327194651E+02  0.00000000000E+00 0. -1.
        -12    1    6    6    0    0  0.40237956339E+02  0.64603892966E+02 -0.53417607987E+02  0.92984928670E+02  0.00000000000E+00 0.  1.
</event>
<event>
12    1  0.2689284E-002  0.2150809E+03  0.7818608E-02  0.1137604E+00
         -2   -1    0    0    0  501 -0.00000000000E+00  0.00000000000E+00  0.76711341358E+02  0.76711341358E+02  0.00000000000E+00 0.  1.
          2   -1    0    0  502    0  0.00000000000E+00 -0.00000000000E+00 -0.77854160147E+03  0.77854160147E+03  0.00000000000E+00 0. -1.
          6    2    1    2  502    0 -0.16612095008E+02 -0.12331209176E+03 -0.14865690756E+03  0.26195821764E+03  0.17618569167E+03 0.  0.
         24    2    3    3    0    0  0.80522049521E+01 -0.12662436395E+03 -0.17125786153E+03  0.22801426442E+03  0.81010382628E+02 0.  0.
         -6    2    1    2    0  501  0.16612095008E+02  0.12331209176E+03 -0.55317335255E+03  0.59329472518E+03  0.17468840628E+03 0.  0.
        -24    2    5    5    0    0 -0.32215633452E+02  0.67065159349E+01 -0.18138081897E+03  0.20056990371E+03  0.79034551863E+02 0.  0.
          5    1    3    3  502    0 -0.24664299960E+02  0.33122721963E+01  0.22600953970E+02  0.33943953216E+02  0.47000000000E+01 0. -1.
        -13    1    4    4    0    0  0.98949523873E+00 -0.82732816903E+02 -0.16300109339E+03  0.18279785157E+03  0.00000000000E+00 0.  1.
         14    1    4    4    0    0  0.70627097134E+01 -0.43891547052E+02 -0.82567681418E+01  0.45216412852E+02  0.00000000000E+00 0. -1.
         -5    1    5    5    0  501  0.48827728460E+02  0.11660557582E+03 -0.37179253358E+03  0.39272482148E+03  0.47000000000E+01 0.  1.
         13    1    6    6    0    0  0.14215678027E+02 -0.25432428825E+02 -0.62879967555E+02  0.69302123037E+02  0.00000000000E+00 0. -1.
        -14    1    6    6    0    0 -0.46431311479E+02  0.32138944760E+02 -0.11850085142E+03  0.13126778067E+03  0.00000000000E+00 0.  1.
</event>
<event>
12    1  0.2689284E-002  0.2377423E+03  0.7818608E-02  0.1121306E+00
          2   -1    0    0  502    0  0.00000000000E+00  0.00000000000E+00  0.83815418012E+03  0.83815418012E+03  0.00000000000E+00 0.  1.
         -2   -1    0    0    0  501 -0.00000000000E+00 -0.00000000000E+00 -0.92816905180E+02  0.92816905180E+02  0.00000000000E+00 0. -1.
          6    2    1    2  502    0 -0.19730709602E+02 -0.16304420347E+03  0.61544275043E+03  0.65956398016E+03  0.17112028425E+03 0.  0.
         24    2    3    3    0    0 -0.66533355382E+02 -0.12749935878E+03  0.33616528076E+03  0.37413111818E+03  0.79273095884E+02 0.  0.
         -6    2    1    2    0  501  0.19730709602E+02  0.16304420347E+03  0.12989452451E+03  0.27140710514E+03  0.17267459581E+03 0.  0.
        -24    2    5    5    0    0 -0.81789608572E+01  0.17882225027E+03  0.81603901369E+02  0.21325239124E+03  0.82298803504E+02 0.  0.
          5    1    3    3  502    0  0.46802645780E+02 -0.35544844690E+02  0.27927746967E+03  0.28543286198E+03  0.47000000000E+01 0. -1.
        -13    1    4    4    0    0  0.19945600584E+01 -0.63107530273E+02  0.19104669834E+03  0.20120979000E+03  0.00000000000E+00 0.  1.
         14    1    4    4    0    0 -0.68527915440E+02 -0.64391828503E+02  0.14511858243E+03  0.17292132817E+03  0.00000000000E+00 0. -1.
         -5    1    5    5    0  501  0.27909670459E+02 -0.15778046801E+02  0.48290623141E+02  0.58154713905E+02  0.47000000000E+01 0.  1.
         13    1    6    6    0    0 -0.22558541906E+02  0.71729063924E+02 -0.41469537240E+01  0.75306996020E+02  0.00000000000E+00 0. -1.
        -14    1    6    6    0    0  0.14379581049E+02  0.10709318634E+03  0.85750855093E+02  0.13794539522E+03  0.00000000000E+00 0.  1.
</event>
<event>
12    1  0.2689284E-002  0.1741707E+03  0.7818608E-02  0.1173567E+00
          2   -1    0    0  502    0  0.00000000000E+00  0.00000000000E+00  0.24197767402E+04  0.24197767402E+04  0.00000000000E+00 0.  1.
         -2   -1    0    0    0  501 -0.00000000000E+00 -0.00000000000E+00 -0.16838739644E+02  0.16838739644E+02  0.00000000000E+00 0. -1.
          6    2    1    2  502    0  0.96389244211E+01  0.18848028203E+02  0.18149091787E+04  0.18232033581E+04  0.17241519916E+03 0.  0.
         24    2    3    3    0    0 -0.14804220924E+02  0.99400856280E+01  0.41349385495E+03  0.42153869830E+03  0.79998348880E+02 0.  0.
         -6    2    1    2    0  501 -0.96389244211E+01 -0.18848028203E+02  0.58802882185E+03  0.61341212177E+03  0.17334468200E+03 0.  0.
        -24    2    5    5    0    0 -0.61404334349E+02  0.22584776784E+02  0.35191291054E+03  0.36811811742E+03  0.85951657073E+02 0.  0.
          5    1    3    3  502    0  0.24443145345E+02  0.89079425751E+01  0.14014153238E+04  0.14016646598E+04  0.47000000000E+01 0. -1.
        -11    1    4    4    0    0  0.71294734100E+01  0.40527785686E+02  0.15724100902E+03  0.16253635200E+03  0.00000000000E+00 0.  1.
         12    1    4    4    0    0 -0.21933694334E+02 -0.30587700058E+02  0.25625284592E+03  0.25900234629E+03  0.00000000000E+00 0. -1.
         -5    1    5    5    0  501  0.51765409927E+02 -0.41432804987E+02  0.23611591132E+03  0.24529400435E+03  0.47000000000E+01 0.  1.
         11    1    6    6    0    0 -0.30014109076E+01  0.35352664337E+02  0.56495937405E+02  0.66712894454E+02  0.00000000000E+00 0. -1.
        -12    1    6    6    0    0 -0.58402923441E+02 -0.12767887552E+02  0.29541697313E+03  0.30140522297E+03  0.00000000000E+00 0.  1.
</event>
<event>
12    1  0.2689284E-002  0.1884680E+03  0.7818608E-02  0.1159850E+00
          4   -1    0    0  502    0  0.00000000000E+00  0.00000000000E+00  0.19934468581E+03  0.19934468581E+03  0.00000000000E+00 0.  1.
         -4   -1    0    0    0  501 -0.00000000000E+00 -0.00000000000E+00 -0.17893094701E+03  0.17893094701E+03  0.00000000000E+00 0. -1.
          6    2    1    2  502    0 -0.73559181809E+02 -0.29767269931E+02  0.22432012130E+02  0.19005290853E+03  0.17123045665E+03 0.  0.
         24    2    3    3    0    0 -0.20699879066E+02 -0.81710319042E+02  0.30696109274E+02  0.11533630034E+03  0.72492412153E+02 0.  0.
         -6    2    1    2    0  501  0.73559181809E+02  0.29767269931E+02 -0.20182733268E+01  0.18822272429E+03  0.17066539463E+03 0.  0.
        -24    2    5    5    0    0  0.10199546604E+02  0.67585997535E+02 -0.94206364665E+01  0.11391535917E+03  0.90642500240E+02 0.  0.
          5    1    3    3  502    0 -0.52859302744E+02  0.51943049111E+02 -0.82640971440E+01  0.74716608188E+02  0.47000000000E+01 0. -1.
        -11    1    4    4    0    0  0.88313896393E+01 -0.78984816093E+02  0.12262303532E+02  0.80417402993E+02  0.00000000000E+00 0.  1.
         12    1    4    4    0    0 -0.29531268705E+02 -0.27255029487E+01  0.18433805741E+02  0.34918897345E+02  0.00000000000E+00 0. -1.
         -5    1    5    5    0  501  0.63359635206E+02 -0.37818727605E+02  0.74023631397E+01  0.74307365120E+02  0.47000000000E+01 0.  1.
         13    1    6    6    0    0 -0.19295059350E+02  0.70363826982E+01 -0.36050755277E+02  0.41490564624E+02  0.00000000000E+00 0. -1.
        -14    1    6    6    0    0  0.29494605954E+02  0.60549614837E+02  0.26630118810E+02  0.72424794547E+02  0.00000000000E+00 0.  1.
</event>
<event>
12    1  0.2689284E-002  0.1966250E+03  0.7818608E-02  0.1152618E+00
          2   -1    0    0  502    0  0.00000000000E+00  0.00000000000E+00  0.84138187465E+03  0.84138187465E+03  0.00000000000E+00 0. -1.
         -2   -1    0    0    0  501 -0.00000000000E+00 -0.00000000000E+00 -0.47592325270E+02  0.47592325270E+02  0.00000000000E+00 0.  1.
          6    2    1    2  502    0  0.80978571764E+02 -0.49452105443E+02  0.31375086492E+03  0.37011528617E+03  0.17187984176E+03 0.  0.
         24    2    3    3    0    0  0.25869943243E+02 -0.68466317328E+02  0.27924725910E+03  0.30221027895E+03  0.89415493159E+02 0.  0.
         -6    2    1    2    0  501 -0.80978571764E+02  0.49452105443E+02  0.48003868446E+03  0.51885891375E+03  0.17255258323E+03 0.  0.
        -24    2    5    5    0    0  0.14525654201E+02  0.62994503621E+02  0.32953288435E+03  0.34003346927E+03  0.53399777519E+02 0.  0.
          5    1    3    3  502    0  0.55108628521E+02  0.19014211885E+02  0.34503605819E+02  0.67905007220E+02  0.47000000000E+01 0. -1.
        -13    1    4    4    0    0  0.29287186930E+02 -0.44223758853E+01  0.21490353064E+02  0.36594152560E+02  0.00000000000E+00 0.  1.
         14    1    4    4    0    0 -0.34172436867E+01 -0.64043941443E+02  0.25775690604E+03  0.26561612639E+03  0.00000000000E+00 0. -1.
         -5    1    5    5    0  501 -0.95504225965E+02 -0.13542398178E+02  0.15050580011E+03  0.17882544448E+03  0.47000000000E+01 0.  1.
         13    1    6    6    0    0 -0.95044253613E+01  0.12040841607E+02  0.17287028787E+03  0.17354956755E+03  0.00000000000E+00 0. -1.
        -14    1    6    6    0    0  0.24030079562E+02  0.50953662014E+02  0.15666259648E+03  0.16648390172E+03  0.00000000000E+00 0.  1.
</event>
<event>
12    1  0.2689284E-002  0.1724834E+03  0.7818608E-02  0.1175283E+00
          2   -1    0    0  502    0  0.00000000000E+00  0.00000000000E+00  0.36766143026E+04  0.36766143026E+04  0.00000000000E+00 0.  1.
         -2   -1    0    0    0  501 -0.00000000000E+00 -0.00000000000E+00 -0.83900425897E+01  0.83900425897E+01  0.00000000000E+00 0. -1.
          6    2    1    2  502    0  0.17763536293E+01  0.13986408266E+02  0.14819442318E+04  0.14918937656E+04  0.17143373794E+03 0.  0.
         24    2    3    3    0    0 -0.31831843257E+01  0.22570269146E+02  0.14778077537E+04  0.14801685732E+04  0.80397130039E+02 0.  0.
         -6    2    1    2    0  501 -0.17763536293E+01 -0.13986408266E+02  0.21862800282E+04  0.21931105796E+04  0.17238003853E+03 0.  0.
        -24    2    5    5    0    0  0.59883279070E+02 -0.19619153198E+02  0.10069941926E+04  0.10121911031E+04  0.80762657565E+02 0.  0.
          5    1    3    3  502    0  0.49595379549E+01 -0.85838608798E+01  0.41364780877E+01  0.11725192335E+02  0.47000000000E+01 0. -1.
        -11    1    4    4    0    0  0.12929314670E+02  0.20411845736E+02  0.12786232023E+03  0.13012526103E+03  0.00000000000E+00 0.  1.
         12    1    4    4    0    0 -0.16112498995E+02  0.21584234098E+01  0.13499454335E+04  0.13500433122E+04  0.00000000000E+00 0. -1.
         -5    1    5    5    0  501 -0.61659632699E+02  0.56327449319E+01  0.11792858356E+04  0.11809194766E+04  0.47000000000E+01 0.  1.
         11    1    6    6    0    0  0.52849959028E+02 -0.41050563069E+02  0.91606489593E+03  0.91850593926E+03  0.00000000000E+00 0. -1.
        -12    1    6    6    0    0  0.70333200416E+01  0.21431409871E+02  0.90929296698E+02  0.93685163809E+02  0.00000000000E+00 0.  1.
</event>
<event>
12    1  0.2689284E-002  0.2703104E+03  0.7818608E-02  0.1101102E+00
          2   -1    0    0  502    0  0.00000000000E+00  0.00000000000E+00  0.15536060684E+04  0.15536060684E+04  0.00000000000E+00 0.  1.
         -2   -1    0    0    0  501 -0.00000000000E+00 -0.00000000000E+00 -0.72877909535E+02  0.72877909535E+02  0.00000000000E+00 0. -1.
          6    2    1    2  502    0  0.19935549154E+03  0.51972803435E+02  0.12275989594E+04  0.12573675880E+04  0.17756762640E+03 0.  0.
         24    2    3    3    0    0  0.14320465484E+03  0.25333327814E+02  0.11250157573E+04  0.11373343365E+04  0.81973093379E+02 0.  0.
         -6    2    1    2    0  501 -0.19935549154E+03 -0.51972803435E+02  0.25312919954E+03  0.36911639000E+03  0.17242022331E+03 0.  0.
        -24    2    5    5    0    0 -0.70328198398E+02  0.32102566245E+02  0.88374995856E+02  0.14354434432E+03  0.82572444822E+02 0.  0.
          5    1    3    3  502    0  0.56150836698E+02  0.26639475621E+02  0.10258320205E+03  0.12003325150E+03  0.47000000000E+01 0. -1.
        -13    1    4    4    0    0  0.62991830915E+02 -0.31892051365E+01  0.23706988334E+03  0.24531667570E+03  0.00000000000E+00 0.  1.
         14    1    4    4    0    0  0.80212823927E+02  0.28522532951E+02  0.88794587399E+03  0.89201766078E+03  0.00000000000E+00 0. -1.
         -5    1    5    5    0  501 -0.12902729314E+03 -0.84075369680E+02  0.16475420368E+03  0.22557204568E+03  0.47000000000E+01 0.  1.
         13    1    6    6    0    0 -0.64338162488E+02 -0.14327361409E+02  0.45788349537E+02  0.80257369696E+02  0.00000000000E+00 0. -1.
        -14    1    6    6    0    0 -0.59900359101E+01  0.46429927654E+02  0.42586646320E+02  0.63286974623E+02  0.00000000000E+00 0.  1.
</event>
<event>
12    1  0.2689284E-002  0.1765352E+03  0.7818608E-02  0.1171199E+00
          1   -1    0    0  502    0  0.00000000000E+00  0.00000000000E+00  0.12358147351E+03  0.12358147351E+03  0.00000000000E+00 0. -1.
         -1   -1    0    0    0  501 -0.00000000000E+00 -0.00000000000E+00 -0.30185967695E+03  0.30185967695E+03  0.00000000000E+00 0.  1.
          6    2    1    2  502    0 -0.42323970204E+01  0.39049660952E+02 -0.28630609255E+01  0.17660980824E+03  0.17216282422E+03 0.  0.
         24    2    3    3    0    0  0.42831606371E+02  0.70369343381E+02 -0.64642459888E+01  0.11976790946E+03  0.86695874572E+02 0.  0.
         -6    2    1    2    0  501  0.42323970204E+01 -0.39049660952E+02 -0.17541514252E+03  0.24883134223E+03  0.17205747716E+03 0.  0.
        -24    2    5    5    0    0  0.51132946193E+02 -0.28879789333E+02 -0.17427028356E+03  0.20059765583E+03  0.80129066963E+02 0.  0.
          5    1    3    3  502    0 -0.47064003391E+02 -0.31319682429E+02  0.36011850633E+01  0.56841898777E+02  0.47000000000E+01 0. -1.
        -11    1    4    4    0    0  0.56347790140E+02  0.15935141611E+02 -0.20340306993E+02  0.61989759480E+02  0.00000000000E+00 0.  1.
         12    1    4    4    0    0 -0.13516183769E+02  0.54434201769E+02  0.13876061004E+02  0.57778149978E+02  0.00000000000E+00 0. -1.
         -5    1    5    5    0  501 -0.46900549173E+02 -0.10169871619E+02 -0.11448589514E+01  0.48233686397E+02  0.47000000000E+01 0.  1.
         13    1    6    6    0    0  0.53040781448E+02 -0.52486326835E+02 -0.14377592334E+03  0.16198658936E+03  0.00000000000E+00 0. -1.
        -14    1    6    6    0    0 -0.19078352552E+01  0.23606537502E+02 -0.30494360227E+02  0.38611066468E+02  0.00000000000E+00 0.  1.
</event>
<event>
12    1  0.2689284E-002  0.2770177E+03  0.7818608E-02  0.1097329E+00
          1   -1    0    0  502    0  0.00000000000E+00  0.00000000000E+00  0.30499905313E+03  0.30499905313E+03  0.00000000000E+00 0.  1.
         -1   -1    0    0    0  501 -0.00000000000E+00 -0.00000000000E+00 -0.25826177234E+03  0.25826177234E+03  0.00000000000E+00 0. -1.
          6    2    1    2  502    0  0.23301524609E+02 -0.21908613474E+03  0.68721229895E+02  0.28777844555E+03  0.17190733201E+03 0.  0.
         24    2    3    3    0    0 -0.19295078725E+02 -0.33944040223E+02  0.56050682380E+02  0.97319267368E+02  0.69317118205E+02 0.  0.
         -6    2    1    2    0  501 -0.23301524609E+02  0.21908613474E+03 -0.21983949112E+02  0.27548237992E+03  0.16390714488E+03 0.  0.
        -24    2    5    5    0    0 -0.30718300489E+02  0.16527967902E+03 -0.77346887406E+02  0.19778239164E+03  0.69816525058E+02 0.  0.
          5    1    3    3  502    0  0.42596603334E+02 -0.18514209452E+03  0.12670547515E+02  0.19045917818E+03  0.47000000000E+01 0. -1.
        -13    1    4    4    0    0  0.15445395663E+02 -0.34668494283E+02  0.48802160440E+02  0.61823261048E+02  0.00000000000E+00 0.  1.
         14    1    4    4    0    0 -0.34740474388E+02  0.72445405968E+00  0.72485219399E+01  0.35496006320E+02  0.00000000000E+00 0. -1.
         -5    1    5    5    0  501  0.74167758791E+01  0.53806455724E+02  0.55362938294E+02  0.77699988279E+02  0.47000000000E+01 0.  1.
         11    1    6    6    0    0  0.90884121612E+01  0.10879501185E+03 -0.66504107674E+02  0.12783485509E+03  0.00000000000E+00 0. -1.
        -12    1    6    6    0    0 -0.39806712650E+02  0.56484667172E+02 -0.10842779732E+02  0.69947536553E+02  0.00000000000E+00 0.  1.
</event>
<event>
12    1  0.2689284E-002  0.2251692E+03  0.7818608E-02  0.1130087E+00
          2   -1    0    0  502    0  0.00000000000E+00  0.00000000000E+00  0.96064799768E+03  0.96064799768E+03  0.00000000000E+00 0.  1.
         -2   -1    0    0    0  501 -0.00000000000E+00 -0.00000000000E+00 -0.86040852426E+02  0.86040852426E+02  0.00000000000E+00 0. -1.
          6    2    1    2  502    0 -0.13912827875E+02 -0.14545060599E+03  0.76330253904E+03  0.79596508525E+03  0.17198896845E+03 0.  0.
         24    2    3    3    0    0  0.47304181664E+02 -0.10988181758E+03  0.61438072272E+03  0.63100309465E+03  0.79934558060E+02 0.  0.
         -6    2    1    2    0  501  0.13912827875E+02  0.14545060599E+03  0.11130460622E+03  0.25072376487E+03  0.17065827064E+03 0.  0.
        -24    2    5    5    0    0  0.33519264000E+02  0.16037855137E+03  0.12600681085E+03  0.22164626993E+03  0.80028318716E+02 0.  0.
          5    1    3    3  502    0 -0.61217009540E+02 -0.35568788411E+02  0.14892181632E+03  0.16496199060E+03  0.47000000000E+01 0. -1.
        -11    1    4    4    0    0  0.58350289350E+02 -0.11668169614E+03  0.54286152943E+03  0.55831712728E+03  0.00000000000E+00 0.  1.
         12    1    4    4    0    0 -0.11046107686E+02  0.67998785634E+01  0.71519193289E+02  0.72685967368E+02  0.00000000000E+00 0. -1.
         -5    1    5    5    0  501 -0.19606436125E+02 -0.14927945376E+02 -0.14702204628E+02  0.29077494933E+02  0.47000000000E+01 0.  1.
         11    1    6    6    0    0  0.35337827964E+02  0.86210185852E+02  0.25270066809E+02  0.96537736178E+02  0.00000000000E+00 0. -1.
        -12    1    6    6    0    0 -0.18185639643E+01  0.74168365515E+02  0.10073674404E+03  0.12510853375E+03  0.00000000000E+00 0.  1.
</event>
<event>
12    1  0.2689284E-002  0.2284188E+03  0.7818608E-02  0.1127758E+00
         -1   -1    0    0    0  501 -0.00000000000E+00  0.00000000000E+00  0.12482555738E+03  0.12482555738E+03  0.00000000000E+00 0. -1.
          1   -1    0    0  502    0  0.00000000000E+00 -0.00000000000E+00 -0.41804707882E+03  0.41804707882E+03  0.00000000000E+00 0.  1.
          6    2    1    2  502    0  0.14468869450E+03  0.34952955183E+02 -0.14364271562E+03  0.27022827677E+03  0.17387801592E+03 0.  0.
         24    2    3    3    0    0  0.36983935077E+02  0.14172330412E+02 -0.13443952197E+03  0.16005142647E+03  0.77290411072E+02 0.  0.
         -6    2    1    2    0  501 -0.14468869450E+03 -0.34952955183E+02 -0.14957880582E+03  0.27264435943E+03  0.17264008858E+03 0.  0.
        -24    2    5    5    0    0 -0.34956182580E+02 -0.21399281804E+02 -0.13542636745E+03  0.16107685633E+03  0.76977845404E+02 0.  0.
          5    1    3    3  502    0  0.10770475942E+03  0.20780624772E+02 -0.92031936491E+01  0.11017685030E+03  0.47000000000E+01 0. -1.
        -11    1    4    4    0    0 -0.18405768051E+02 -0.61592335843E+01 -0.70170315912E+02  0.72805093854E+02  0.00000000000E+00 0.  1.
         12    1    4    4    0    0  0.55389703129E+02  0.20331563996E+02 -0.64269206062E+02  0.87246332617E+02  0.00000000000E+00 0. -1.
         -5    1    5    5    0  501 -0.10973251192E+03 -0.13553673379E+02 -0.14152438365E+02  0.11156750309E+03  0.47000000000E+01 0.  1.
         13    1    6    6    0    0  0.12818864207E+02  0.64246663345E+01 -0.85148636738E+02  0.86347495362E+02  0.00000000000E+00 0. -1.
        -14    1    6    6    0    0 -0.47775046787E+02 -0.27823948139E+02 -0.50277730715E+02  0.74729360973E+02  0.00000000000E+00 0.  1.
</event>
<event>
12    1  0.2689284E-002  0.1948348E+03  0.7818608E-02  0.1154172E+00
          2   -1    0    0  502    0  0.00000000000E+00  0.00000000000E+00  0.11175155851E+04  0.11175155851E+04  0.00000000000E+00 0. -1.
         -2   -1    0    0    0  501 -0.00000000000E+00 -0.00000000000E+00 -0.50839558658E+02  0.50839558658E+02  0.00000000000E+00 0.  1.
          6    2    1    2  502    0  0.64864845441E+02  0.62245990628E+02  0.86878602203E+03  0.89023745977E+03  0.17219631584E+03 0.  0.
         24    2    3    3    0    0  0.45604166677E+02 -0.20060491508E+02  0.62912035616E+03  0.63605828647E+03  0.79344551847E+02 0.  0.
         -6    2    1    2    0  501 -0.64864845441E+02 -0.62245990628E+02  0.19789000445E+03  0.27811768402E+03  0.17351363284E+03 0.  0.
        -24    2    5    5    0    0 -0.90433563576E+02 -0.82829854038E+02  0.19594037720E+03  0.24490103418E+03  0.80900376923E+02 0.  0.
          5    1    3    3  502    0  0.19260678765E+02  0.82306482136E+02  0.23966566587E+03  0.25417917331E+03  0.47000000000E+01 0. -1.
        -11    1    4    4    0    0  0.50183373976E+02 -0.20223884193E+02  0.20827374875E+03  0.21518673503E+03  0.00000000000E+00 0.  1.
         12    1    4    4    0    0 -0.45792072990E+01  0.16339268484E+00  0.42084660742E+03  0.42087155144E+03  0.00000000000E+00 0. -1.
         -5    1    5    5    0  501  0.25568718135E+02  0.20583863409E+02  0.19496272508E+01  0.33216649836E+02  0.47000000000E+01 0.  1.
         11    1    6    6    0    0 -0.82243739577E+02 -0.21691654576E+02  0.10765481436E+03  0.13720101907E+03  0.00000000000E+00 0. -1.
        -12    1    6    6    0    0 -0.81898239997E+01 -0.61138199462E+02  0.88285562834E+02  0.10770001511E+03  0.00000000000E+00 0.  1.
</event>
<event>
12    1  0.2689284E-002  0.1731372E+03  0.7818608E-02  0.1174615E+00
          2   -1    0    0  502    0  0.00000000000E+00  0.00000000000E+00  0.30975047835E+03  0.30975047835E+03  0.00000000000E+00 0. -1.
         -2   -1    0    0    0  501 -0.00000000000E+00 -0.00000000000E+00 -0.10075333494E+03  0.10075333494E+03  0.00000000000E+00 0.  1.
          6    2    1    2  502    0  0.39476514351E+02 -0.28387215791E+02  0.66502020417E+02  0.18950048056E+03  0.17065662662E+03 0.  0.
         24    2    3    3    0    0  0.65292610659E+02  0.35005194689E+02  0.36930982997E+02  0.11479034210E+03  0.79526325655E+02 0.  0.
         -6    2    1    2    0  501 -0.39476514351E+02  0.28387215791E+02  0.14249512300E+03  0.22100333272E+03  0.16178190193E+03 0.  0.
        -24    2    5    5    0    0 -0.38264503196E+02  0.35796087525E+02  0.22761116200E+02  0.10094217025E+03  0.83220918262E+02 0.  0.
          5    1    3    3  502    0 -0.25816096309E+02 -0.63392410481E+02  0.29571037420E+02  0.74710138464E+02  0.47000000000E+01 0. -1.
        -11    1    4    4    0    0 -0.18898681457E+01  0.29523462367E+02 -0.11552090471E+02  0.31759364383E+02  0.00000000000E+00 0.  1.
         12    1    4    4    0    0  0.67182478805E+02  0.54817323224E+01  0.48483073469E+02  0.83030977717E+02  0.00000000000E+00 0. -1.
         -5    1    5    5    0  501 -0.12120111546E+01 -0.74088717338E+01  0.11973400680E+03  0.12006116248E+03  0.47000000000E+01 0.  1.
         13    1    6    6    0    0  0.25388709596E+01 -0.26558886370E+01  0.41625236754E+02  0.41787078685E+02  0.00000000000E+00 0. -1.
        -14    1    6    6    0    0 -0.40803374156E+02  0.38451976162E+02 -0.18864120554E+02  0.59155091561E+02  0.00000000000E+00 0.  1.
</event>
<event>
12    1  0.2689284E-002  0.6174166E+03  0.7818608E-02  0.9869917E-01
         -1   -1    0    0    0  501 -0.00000000000E+00  0.00000000000E+00  0.36755311530E+03  0.36755311530E+03  0.00000000000E+00 0. -1.
          1   -1    0    0  502    0  0.00000000000E+00 -0.00000000000E+00 -0.10767471080E+04  0.10767471080E+04  0.00000000000E+00 0.  1.
          6    2    1    2  502    0  0.48718767689E+03  0.33790215576E+03 -0.49307447161E+03  0.79010289555E+03  0.17207687709E+03 0.  0.
         24    2    3    3    0    0  0.93429759615E+02  0.88315288962E+02 -0.12128799708E+03  0.19379242764E+03  0.79473369944E+02 0.  0.
         -6    2    1    2    0  501 -0.48718767689E+03 -0.33790215576E+03 -0.21611952108E+03  0.65419732773E+03  0.17244360481E+03 0.  0.
        -24    2    5    5    0    0 -0.13503647842E+03 -0.55338666222E+02 -0.51489840919E+02  0.17359602333E+03  0.78658484059E+02 0.  0.
          5    1    3    3  502    0  0.39375791728E+03  0.24958686680E+03 -0.37178647453E+03  0.59631046791E+03  0.47000000000E+01 0. -1.
        -13    1    4    4    0    0  0.44525950733E+01 -0.14327233936E+02 -0.15934144410E+02  0.21885890278E+02  0.00000000000E+00 0.  1.
         14    1    4    4    0    0  0.88977164542E+02  0.10264252290E+03 -0.10535385267E+03  0.17190653736E+03  0.00000000000E+00 0. -1.
         -5    1    5    5    0  501 -0.35215119847E+03 -0.28256348954E+03 -0.16462968016E+03  0.48060130441E+03  0.47000000000E+01 0.  1.
         11    1    6    6    0    0 -0.62112517082E+02 -0.64198616799E+02 -0.11812340065E+02  0.90105263748E+02  0.00000000000E+00 0. -1.
        -12    1    6    6    0    0 -0.72923961337E+02  0.88599505775E+01 -0.39677500854E+02  0.83490759581E+02  0.00000000000E+00 0.  1.
</event>
<event>
12    1  0.2689284E-002  0.1912685E+03  0.7818608E-02  0.1157322E+00
         -2   -1    0    0    0  501 -0.00000000000E+00  0.00000000000E+00  0.29896170636E+02  0.29896170636E+02  0.00000000000E+00 0. -1.
          2   -1    0    0  502    0  0.00000000000E+00 -0.00000000000E+00 -0.17428932400E+04  0.17428932400E+04  0.00000000000E+00 0.  1.
          6    2    1    2  502    0  0.51147449375E+02 -0.44310947599E+02 -0.39130295564E+03  0.43812045579E+03  0.18507298300E+03 0.  0.
         24    2    3    3    0    0 -0.11929643282E+02 -0.52728776431E+02 -0.34824223888E+03  0.36114062215E+03  0.78912937916E+02 0.  0.
         -6    2    1    2    0  501 -0.51147449375E+02  0.44310947599E+02 -0.13216941138E+04  0.13346689549E+04  0.17287673965E+03 0.  0.
        -24    2    5    5    0    0  0.55060016377E+00 -0.20798428609E+01 -0.10853870597E+04  0.10883197970E+04  0.79814048723E+02 0.  0.
          5    1    3    3  502    0  0.63077092657E+02  0.84178288318E+01 -0.43060716754E+02  0.76979833643E+02  0.47000000000E+01 0. -1.
        -11    1    4    4    0    0 -0.24666762737E+02 -0.28072887849E+00 -0.22812272104E+03  0.22945261787E+03  0.00000000000E+00 0.  1.
         12    1    4    4    0    0  0.12737119455E+02 -0.52448047552E+02 -0.12011951785E+03  0.13168800428E+03  0.00000000000E+00 0. -1.
         -5    1    5    5    0  501 -0.51698049539E+02  0.46390790460E+02 -0.23630705408E+03  0.24634915785E+03  0.47000000000E+01 0.  1.
         11    1    6    6    0    0 -0.17176735882E+02  0.95872568498E+01 -0.70012712172E+02  0.72723693629E+02  0.00000000000E+00 0. -1.
        -12    1    6    6    0    0  0.17727336046E+02 -0.11667099711E+02 -0.10153743475E+04  0.10155961034E+04  0.00000000000E+00 0.  1.
</event>
<event>
12    1  0.2689284E-002  0.4601144E+03  0.7818608E-02  0.1024748E+00
          2   -1    0    0  502    0  0.00000000000E+00  0.00000000000E+00  0.27050075078E+04  0.27050075078E+04  0.00000000000E+00 0. -1.
         -2   -1    0    0    0  501 -0.00000000000E+00 -0.00000000000E+00 -0.88164173960E+02  0.88164173960E+02  0.00000000000E+00 0.  1.
          6    2    1    2  502    0 -0.42622598351E+03 -0.67525374739E+01  0.17786068343E+04  0.18373761854E+04  0.17548444323E+03 0.  0.
         24    2    3    3    0    0 -0.19289284454E+03  0.28189349708E+02  0.10635914663E+04  0.10844257516E+04  0.82159081615E+02 0.  0.
         -6    2    1    2    0  501  0.42622598351E+03  0.67525374739E+01  0.83823649956E+03  0.95579549640E+03  0.17085202941E+03 0.  0.
        -24    2    5    5    0    0  0.30642259339E+03  0.43239389391E+02  0.47672556673E+03  0.57317768813E+03  0.74168360234E+02 0.  0.
          5    1    3    3  502    0 -0.23333313897E+03 -0.34941887182E+02  0.71501536805E+03  0.75295043380E+03  0.47000000000E+01 0. -1.
        -11    1    4    4    0    0 -0.11504784948E+02  0.17831147796E+02  0.24486725939E+03  0.24578503744E+03  0.00000000000E+00 0.  1.
         12    1    4    4    0    0 -0.18138805959E+03  0.10358201913E+02  0.81872420690E+03  0.83864071417E+03  0.00000000000E+00 0. -1.
         -5    1    5    5    0  501  0.11980339012E+03 -0.36486851917E+02  0.36151093283E+03  0.38261780827E+03  0.47000000000E+01 0.  1.
         13    1    6    6    0    0  0.84853509515E+02 -0.21189122609E+02  0.13366505348E+03  0.15973554243E+03  0.00000000000E+00 0. -1.
        -14    1    6    6    0    0  0.22156908388E+03  0.64428511999E+02  0.34306051324E+03  0.41344214569E+03  0.00000000000E+00 0.  1.
</event>
<event>
12    1  0.2689284E-002  0.2229430E+03  0.7818608E-02  0.1131708E+00
          1   -1    0    0  502    0  0.00000000000E+00  0.00000000000E+00  0.29965555593E+03  0.29965555593E+03  0.00000000000E+00 0. -1.
         -1   -1    0    0    0  501 -0.00000000000E+00 -0.00000000000E+00 -0.27437842706E+03  0.27437842706E+03  0.00000000000E+00 0.  1.
          6    2    1    2  502    0  0.49465958611E+02 -0.13380158680E+03 -0.16791231778E+03  0.27741059520E+03  0.16855962203E+03 0.  0.
         24    2    3    3    0    0  0.92126802843E+01 -0.20842760660E+02 -0.12923875191E+03  0.15132428542E+03  0.75346467820E+02 0.  0.
         -6    2    1    2    0  501 -0.49465958611E+02  0.13380158680E+03  0.19318944665E+03  0.29662338778E+03  0.17410780049E+03 0.  0.
        -24    2    5    5    0    0 -0.30330241185E+02  0.12006860490E+03  0.21715242692E+03  0.26269574571E+03  0.80730941290E+02 0.  0.
          5    1    3    3  502    0  0.40253278327E+02 -0.11295882614E+03 -0.38673565868E+02  0.12608630978E+03  0.47000000000E+01 0. -1.
        -11    1    4    4    0    0 -0.18339111636E+02 -0.24628390556E+02 -0.15812946885E+02  0.34538817672E+02  0.00000000000E+00 0.  1.
         12    1    4    4    0    0  0.27551791921E+02  0.37856298964E+01 -0.11342580502E+03  0.11678546775E+03  0.00000000000E+00 0. -1.
         -5    1    5    5    0  501 -0.19135717427E+02  0.13732981892E+02 -0.23962980273E+02  0.33927642073E+02  0.47000000000E+01 0.  1.
         13    1    6    6    0    0 -0.52527719239E+02  0.10859475175E+03  0.16051390782E+03  0.20079017904E+03  0.00000000000E+00 0. -1.
        -14    1    6    6    0    0  0.22197478054E+02  0.11473853153E+02  0.56638519108E+02  0.61905566671E+02  0.00000000000E+00 0.  1.
</event>
<event>
12    1  0.2689284E-002  0.2097998E+03  0.7818608E-02  0.1141725E+00
         -2   -1    0    0    0  501 -0.00000000000E+00  0.00000000000E+00  0.29591545308E+02  0.29591545308E+02  0.00000000000E+00 0.  1.
          2   -1    0    0  502    0  0.00000000000E+00 -0.00000000000E+00 -0.16257629186E+04  0.16257629186E+04  0.00000000000E+00 0. -1.
          6    2    1    2  502    0 -0.61269903272E+01 -0.11924446208E+03 -0.55651417367E+03  0.59473102193E+03  0.17245341749E+03 0.  0.
         24    2    3    3    0    0 -0.11342423893E+02  0.76982712167E+01 -0.19606036486E+03  0.21251289498E+03  0.80834088756E+02 0.  0.
         -6    2    1    2    0  501  0.61269903272E+01  0.11924446208E+03 -0.10396571996E+04  0.10606234419E+04  0.17256364390E+03 0.  0.
        -24    2    5    5    0    0  0.12772741482E+02  0.22776450035E+02 -0.22761201307E+03  0.24282779613E+03  0.80474843775E+02 0.  0.
          5    1    3    3  502    0  0.52154335658E+01 -0.12694273329E+03 -0.36045380881E+03  0.38221812695E+03  0.47000000000E+01 0. -1.
        -11    1    4    4    0    0 -0.11731741818E+02 -0.15118246665E+02 -0.45788660979E+01  0.19676411336E+02  0.00000000000E+00 0.  1.
         12    1    4    4    0    0  0.38931792503E+00  0.22816517882E+02 -0.19148149876E+03  0.19283648364E+03  0.00000000000E+00 0. -1.
         -5    1    5    5    0  501 -0.66457511543E+01  0.96468012043E+02 -0.81204518653E+03  0.81779564582E+03  0.47000000000E+01 0.  1.
         11    1    6    6    0    0  0.60296190155E+01  0.51911692940E+02 -0.17092680870E+03  0.17873766839E+03  0.00000000000E+00 0. -1.
        -12    1    6    6    0    0  0.67431224661E+01 -0.29135242905E+02 -0.56685204367E+02  0.64090127741E+02  0.00000000000E+00 0.  1.
</event>
<event>
12    1  0.2689284E-002  0.2015160E+03  0.7818608E-02  0.1148466E+00
          3   -1    0    0  502    0  0.00000000000E+00  0.00000000000E+00  0.28183185975E+03  0.28183185975E+03  0.00000000000E+00 0. -1.
         -3   -1    0    0    0  501 -0.00000000000E+00 -0.00000000000E+00 -0.15120189408E+03  0.15120189408E+03  0.00000000000E+00 0.  1.
          6    2    1    2  502    0 -0.49487277299E+02  0.92079887132E+02  0.18358693521E+02  0.20237120592E+03  0.17230602755E+03 0.  0.
         24    2    3    3    0    0 -0.24011072352E+02 -0.21082589861E+02  0.99611577339E+01  0.85977942262E+02  0.79195799772E+02 0.  0.
         -6    2    1    2    0  501  0.49487277299E+02 -0.92079887132E+02  0.11227127215E+03  0.23066254791E+03  0.17225758686E+03 0.  0.
        -24    2    5    5    0    0  0.91115488496E+02 -0.89451690997E+02  0.11301717285E+03  0.18868086440E+03  0.80770972307E+02 0.  0.
          5    1    3    3  502    0 -0.25476204947E+02  0.11316247699E+03  0.83975357868E+01  0.11639326366E+03  0.47000000000E+01 0. -1.
        -11    1    4    4    0    0 -0.22367919035E+02 -0.34113628459E+02 -0.25537644727E+02  0.48127276536E+02  0.00000000000E+00 0.  1.
         12    1    4    4    0    0 -0.16431533167E+01  0.13031038597E+02  0.35498802461E+02  0.37850665726E+02  0.00000000000E+00 0. -1.
         -5    1    5    5    0  501 -0.41628211198E+02 -0.26281961349E+01 -0.74590069649E+00  0.41981683509E+02  0.47000000000E+01 0.  1.
         13    1    6    6    0    0  0.49525442981E+02  0.28663283990E+01  0.32376081841E+02  0.59238467370E+02  0.00000000000E+00 0. -1.
        -14    1    6    6    0    0  0.41590045516E+02 -0.92318019396E+02  0.80641091008E+02  0.12944239704E+03  0.00000000000E+00 0.  1.
</event>
<event>
12    1  0.2837619E-002  0.2478217E+03  0.7818608E-02  0.1114689E+00
          1   -1    0    0  502    0  0.00000000000E+00  0.00000000000E+00  0.12747734773E+04  0.12747734773E+04  0.00000000000E+00 0.  1.
         -1   -1    0    0    0  501 -0.00000000000E+00 -0.00000000000E+00 -0.55589887067E+02  0.55589887067E+02  0.00000000000E+00 0. -1.
          6    2    1    2  502    0 -0.16365849400E+03 -0.31351129785E+02  0.83902038679E+03  0.87317705212E+03  0.17525968986E+03 0.  0.
         24    2    3    3    0    0 -0.15226653873E+03  0.19188575300E+02  0.75698695267E+03  0.77603996986E+03  0.75202979139E+02 0.  0.
         -6    2    1    2    0  501  0.16365849400E+03  0.31351129785E+02  0.38016320345E+03  0.45718631227E+03  0.19164620232E+03 0.  0.
        -24    2    5    5    0    0  0.10079361862E+03 -0.50173030772E+02  0.15454990587E+03  0.20915076772E+03  0.84744814959E+02 0.  0.
          5    1    3    3  502    0 -0.11391955273E+02 -0.50539705085E+02  0.82033434126E+02  0.97137082258E+02  0.47000000000E+01 0. -1.
        -13    1    4    4    0    0 -0.14357855993E+02  0.25704589532E+02  0.20218920045E+03  0.20432167464E+03  0.00000000000E+00 0.  1.
         14    1    4    4    0    0 -0.13790868273E+03 -0.65160142317E+01  0.55479775222E+03  0.57171829522E+03  0.00000000000E+00 0. -1.
         -5    1    5    5    0  501  0.62864875379E+02  0.81524160557E+02  0.22561329758E+03  0.24803554454E+03  0.47000000000E+01 0.  1.
         11    1    6    6    0    0  0.90983147515E+02 -0.25233250703E+01  0.87034227682E+02  0.12593354235E+03  0.00000000000E+00 0. -1.
        -12    1    6    6    0    0  0.98104711040E+01 -0.47649705702E+02  0.67515678192E+02  0.83217225371E+02  0.00000000000E+00 0.  1.
</event>
<event>
12    1  0.2689284E-002  0.2416282E+03  0.7818608E-02  0.1118713E+00
         -1   -1    0    0    0  501 -0.00000000000E+00  0.00000000000E+00  0.32287755960E+03  0.32287755960E+03  0.00000000000E+00 0.  1.
          1   -1    0    0  502    0  0.00000000000E+00 -0.00000000000E+00 -0.18794166507E+03  0.18794166507E+03  0.00000000000E+00 0. -1.
          6    2    1    2  502    0 -0.49253812885E+02  0.16481997399E+03  0.17625881224E+02  0.24174092460E+03  0.16892732469E+03 0.  0.
         24    2    3    3    0    0 -0.34760386888E+02  0.31084927130E+02 -0.32779757342E+02  0.98012219898E+02  0.79732838697E+02 0.  0.
         -6    2    1    2    0  501  0.49253812885E+02 -0.16481997399E+03  0.11731001330E+03  0.26907830008E+03  0.17044040144E+03 0.  0.
        -24    2    5    5    0    0 -0.84535139831E+01 -0.53673319080E+02  0.96959098790E+02  0.14211387911E+03  0.88560717683E+02 0.  0.
          5    1    3    3  502    0 -0.14493425997E+02  0.13373504686E+03  0.50405638566E+02  0.14372870470E+03  0.47000000000E+01 0. -1.
        -13    1    4    4    0    0 -0.19656862213E+02 -0.57600334946E+01  0.22148579029E+02  0.30168357113E+02  0.00000000000E+00 0.  1.
         14    1    4    4    0    0 -0.15103524675E+02  0.36844960625E+02 -0.54928336371E+02  0.67843862785E+02  0.00000000000E+00 0. -1.
         -5    1    5    5    0  501  0.57707326868E+02 -0.11114665491E+03  0.20350914508E+02  0.12696442097E+03  0.47000000000E+01 0.  1.
         11    1    6    6    0    0 -0.32018538505E+02  0.97173148434E+01  0.17465081200E+02  0.37744431074E+02  0.00000000000E+00 0. -1.
        -12    1    6    6    0    0  0.23565024521E+02 -0.63390633923E+02  0.79494017590E+02  0.10436944803E+03  0.00000000000E+00 0.  1.
</event>
<event>
12    1  0.2689284E-002  0.1898241E+03  0.7818608E-02  0.1158620E+00
          2   -1    0    0  502    0  0.00000000000E+00  0.00000000000E+00  0.58032253548E+02  0.58032253548E+02  0.00000000000E+00 0. -1.
         -2   -1    0    0    0  501 -0.00000000000E+00 -0.00000000000E+00 -0.87268213602E+03  0.87268213602E+03  0.00000000000E+00 0.  1.
          6    2    1    2  502    0 -0.79490772892E+02  0.68975125759E+01 -0.15801723414E+03  0.24731096325E+03  0.17270468321E+03 0.  0.
         24    2    3    3    0    0 -0.59106279577E+02 -0.41461749192E+02 -0.32474660982E+02  0.11115967445E+03  0.78033586917E+02 0.  0.
         -6    2    1    2    0  501  0.79490772892E+02 -0.68975125759E+01 -0.65663264833E+03  0.68340342632E+03  0.17177732560E+03 0.  0.
        -24    2    5    5    0    0  0.15224401380E+02  0.11096070981E+02 -0.12806488229E+03  0.15061837692E+03  0.77008935864E+02 0.  0.
          5    1    3    3  502    0 -0.20384493315E+02  0.48359261768E+02 -0.12554257315E+03  0.13615128879E+03  0.47000000000E+01 0. -1.
        -11    1    4    4    0    0 -0.29281124166E+02  0.68874862792E+01 -0.43897008074E+02  0.53214368525E+02  0.00000000000E+00 0.  1.
         12    1    4    4    0    0 -0.29825155411E+02 -0.48349235471E+02  0.11422347092E+02  0.57945305928E+02  0.00000000000E+00 0. -1.
         -5    1    5    5    0  501  0.64266371512E+02 -0.17993583557E+02 -0.52856776605E+03  0.53278504939E+03  0.47000000000E+01 0.  1.
         11    1    6    6    0    0 -0.25845380037E+02 -0.13912081192E+02 -0.64941973018E+02  0.71267029767E+02  0.00000000000E+00 0. -1.
        -12    1    6    6    0    0  0.41069781417E+02  0.25008152173E+02 -0.63122909268E+02  0.79351347154E+02  0.00000000000E+00 0.  1.
</event>
<event>
12    1  0.2689284E-002  0.3435450E+03  0.7818608E-02  0.1065296E+00
          2   -1    0    0  502    0  0.00000000000E+00  0.00000000000E+00  0.31870717785E+04  0.31870717785E+04  0.00000000000E+00 0. -1.
         -2   -1    0    0    0  501 -0.00000000000E+00 -0.00000000000E+00 -0.39912452521E+02  0.39912452521E+02  0.00000000000E+00 0.  1.
          6    2    1    2  502    0 -0.28305285847E+03  0.97635176624E+02  0.11308768923E+04  0.11812713611E+04  0.16391441246E+03 0.  0.
         24    2    3    3    0    0 -0.89096336324E+02  0.40456482330E+02  0.28969668395E+03  0.31611543961E+03  0.80186771731E+02 0.  0.
         -6    2    1    2    0  501  0.28305285847E+03 -0.97635176624E+02  0.20162824337E+04  0.20457128699E+04  0.17290096993E+03 0.  0.
        -24    2    5    5    0    0  0.28643541323E+03 -0.12124660911E+03  0.18354313522E+04  0.18632350765E+04  0.78043036085E+02 0.  0.
          5    1    3    3  502    0 -0.19395652214E+03  0.57178694294E+02  0.84118020834E+03  0.86515592148E+03  0.47000000000E+01 0. -1.
        -11    1    4    4    0    0 -0.64418484859E+01  0.76580224390E+01 -0.28071072234E+01  0.10393390715E+02  0.00000000000E+00 0.  1.
         12    1    4    4    0    0 -0.82654487838E+02  0.32798459891E+02  0.29250379117E+03  0.30572204890E+03  0.00000000000E+00 0. -1.
         -5    1    5    5    0  501 -0.33825547662E+01  0.23611432484E+02  0.18085108152E+03  0.18247779347E+03  0.47000000000E+01 0.  1.
         11    1    6    6    0    0  0.69147796940E+02 -0.58835114397E+02  0.66512124807E+03  0.67128925445E+03  0.00000000000E+00 0. -1.
        -12    1    6    6    0    0  0.21728761629E+03 -0.62411494711E+02  0.11703101041E+04  0.11919458220E+04  0.00000000000E+00 0.  1.
</event>
<event>
12    1  0.2689284E-002  0.2123936E+03  0.7818608E-02  0.1139684E+00
          2   -1    0    0  502    0  0.00000000000E+00  0.00000000000E+00  0.13349892360E+04  0.13349892360E+04  0.00000000000E+00 0. -1.
         -2   -1    0    0    0  501 -0.00000000000E+00 -0.00000000000E+00 -0.41527685904E+02  0.41527685904E+02  0.00000000000E+00 0.  1.
          6    2    1    2  502    0 -0.11173461376E+03  0.34360466021E+02  0.92957908962E+03  0.95233471348E+03  0.17075964714E+03 0.  0.
         24    2    3    3    0    0  0.31341701766E+01  0.44244658447E+02  0.36774338188E+03  0.37877217349E+03  0.79156501114E+02 0.  0.
         -6    2    1    2    0  501  0.11173461376E+03 -0.34360466021E+02  0.36388246048E+03  0.42418220843E+03  0.18399683522E+03 0.  0.
        -24    2    5    5    0    0  0.12692941500E+03  0.85754554256E+01  0.17955241941E+03  0.23425056448E+03  0.80309655801E+02 0.  0.
          5    1    3    3  502    0 -0.11486878393E+03 -0.98841924260E+01  0.56183570774E+03  0.57356253999E+03  0.47000000000E+01 0. -1.
        -11    1    4    4    0    0  0.18979548534E+02 -0.17345025721E+02  0.13874551998E+03  0.14110773364E+03  0.00000000000E+00 0.  1.
         12    1    4    4    0    0 -0.15845378358E+02  0.61589684169E+02  0.22899786190E+03  0.23766443984E+03  0.00000000000E+00 0. -1.
         -5    1    5    5    0  501 -0.15194801240E+02 -0.42935921447E+02  0.18433004107E+03  0.18993164396E+03  0.47000000000E+01 0.  1.
         11    1    6    6    0    0 -0.41962365854E+01  0.41610954818E+01  0.48329926529E+02  0.48689885144E+02  0.00000000000E+00 0. -1.
        -12    1    6    6    0    0  0.13112565158E+03  0.44143599438E+01  0.13122249288E+03  0.18556067933E+03  0.00000000000E+00 0.  1.
</event>
<event>
12    1  0.3271379E-002  0.1833843E+03  0.7818608E-02  0.1164567E+00
          2   -1    0    0  502    0  0.00000000000E+00  0.00000000000E+00  0.85062241082E+03  0.85062241082E+03  0.00000000000E+00 0.  1.
         -2   -1    0    0    0  501 -0.00000000000E+00 -0.00000000000E+00 -0.42778348503E+02  0.42778348503E+02  0.00000000000E+00 0. -1.
          6    2    1    2  502    0 -0.63412635732E+02  0.30982556845E+02  0.52196527378E+03  0.55246876997E+03  0.16671206783E+03 0.  0.
         24    2    3    3    0    0 -0.71899202800E+02 -0.19691937437E+02  0.19553839657E+03  0.22198953862E+03  0.74073092004E+02 0.  0.
         -6    2    1    2    0  501  0.63412635732E+02 -0.30982556845E+02  0.28587878854E+03  0.34093198935E+03  0.17183381049E+03 0.  0.
        -24    2    5    5    0    0  0.97127000747E+02 -0.32518280424E+02  0.27618146116E+03  0.30550396353E+03  0.81027028882E+02 0.  0.
          5    1    3    3  502    0  0.84865670678E+01  0.50674494282E+02  0.32642687721E+03  0.33047923135E+03  0.47000000000E+01 0. -1.
        -11    1    4    4    0    0 -0.25253074100E+02 -0.13837512412E+01  0.15633090324E+03  0.15836345484E+03  0.00000000000E+00 0.  1.
         12    1    4    4    0    0 -0.46646128700E+02 -0.18308186196E+02  0.39207493332E+02  0.63626083785E+02  0.00000000000E+00 0. -1.
         -5    1    5    5    0  501 -0.33714365015E+02  0.15357235790E+01  0.96973273793E+01  0.35428025821E+02  0.47000000000E+01 0.  1.
         13    1    6    6    0    0  0.29487507840E+02 -0.26124343486E+02  0.28369155288E+02  0.48546919706E+02  0.00000000000E+00 0. -1.
        -14    1    6    6    0    0  0.67639492907E+02 -0.63939369379E+01  0.24781230587E+03  0.25695704382E+03  0.00000000000E+00 0.  1.
</event>
<event>
12    1  0.2689284E-002  0.2106076E+03  0.7818608E-02  0.1141086E+00
          1   -1    0    0  502    0  0.00000000000E+00  0.00000000000E+00  0.12212984572E+03  0.12212984572E+03  0.00000000000E+00 0.  1.
         -1   -1    0    0    0  501 -0.00000000000E+00 -0.00000000000E+00 -0.56039343166E+03  0.56039343166E+03  0.00000000000E+00 0. -1.
          6    2    1    2  502    0  0.17416689248E+02  0.12202998578E+03 -0.42152128499E+03  0.47117047418E+03  0.17066564841E+03 0.  0.
         24    2    3    3    0    0 -0.12234847042E+02  0.26179329640E+02 -0.17517286435E+03  0.20513251403E+03  0.10275586176E+03 0.  0.
         -6    2    1    2    0  501 -0.17416689248E+02 -0.12202998578E+03 -0.16742300947E+02  0.21135280319E+03  0.17086557371E+03 0.  0.
        -24    2    5    5    0    0  0.38419185817E+02 -0.21348639479E+02 -0.33960427304E+02  0.94849874845E+02  0.76885563593E+02 0.  0.
          5    1    3    3  502    0  0.29651536290E+02  0.95850656144E+02 -0.24634842064E+03  0.26603796015E+03  0.47000000000E+01 0. -1.
        -13    1    4    4    0    0  0.10162895584E+02  0.20825066594E+02  0.48232543319E+01  0.23669212653E+02  0.00000000000E+00 0.  1.
         14    1    4    4    0    0 -0.22397742625E+02  0.53542630467E+01 -0.17999611868E+03  0.18146330138E+03  0.00000000000E+00 0. -1.
         -5    1    5    5    0  501 -0.55835875065E+02 -0.10068134631E+03  0.17218126357E+02  0.11650292835E+03  0.47000000000E+01 0.  1.
         13    1    6    6    0    0  0.27407878486E+02  0.21028264858E+02 -0.37421863091E+02  0.50929122938E+02  0.00000000000E+00 0. -1.
        -14    1    6    6    0    0  0.11011307330E+02 -0.42376904338E+02  0.34614357863E+01  0.43920751907E+02  0.00000000000E+00 0.  1.
</event>
<event>
12    1  0.2689284E-002  0.2075792E+03  0.7818608E-02  0.1143497E+00
          2   -1    0    0  502    0  0.00000000000E+00  0.00000000000E+00  0.48190626053E+03  0.48190626053E+03  0.00000000000E+00 0.  1.
         -2   -1    0    0    0  501 -0.00000000000E+00 -0.00000000000E+00 -0.13313966769E+03  0.13313966769E+03  0.00000000000E+00 0. -1.
          6    2    1    2  502    0 -0.11223909581E+03  0.27402626873E+02 -0.19398773510E+01  0.20743207398E+03  0.17226660618E+03 0.  0.
         24    2    3    3    0    0 -0.88062259755E+02 -0.48014958878E+02  0.52331877384E+01  0.12777107660E+03  0.78978882566E+02 0.  0.
         -6    2    1    2    0  501  0.11223909581E+03 -0.27402626873E+02  0.35070647019E+03  0.40761385424E+03  0.17264271588E+03 0.  0.
        -24    2    5    5    0    0  0.18273577393E+02 -0.20863933597E+02  0.27182420932E+03  0.28466356249E+03  0.79848078751E+02 0.  0.
          5    1    3    3  502    0 -0.24176836055E+02  0.75417585750E+02 -0.71730650894E+01  0.79660997388E+02  0.47000000000E+01 0. -1.
        -13    1    4    4    0    0 -0.17400677344E+02 -0.23638583613E+02  0.36421794703E+02  0.46777273720E+02  0.00000000000E+00 0.  1.
         14    1    4    4    0    0 -0.70661582411E+02 -0.24376375265E+02 -0.31188606965E+02  0.80993802876E+02  0.00000000000E+00 0. -1.
         -5    1    5    5    0  501  0.93965518416E+02 -0.65386932757E+01  0.78882260865E+02  0.12295029174E+03  0.47000000000E+01 0.  1.
         11    1    6    6    0    0  0.41591716020E+02 -0.11568303633E+02  0.77398819968E+02  0.88624341029E+02  0.00000000000E+00 0. -1.
        -12    1    6    6    0    0 -0.23318138627E+02 -0.92956299639E+01  0.19442538936E+03  0.19603922146E+03  0.00000000000E+00 0.  1.
</event>
<event>
12    1  0.3930926E-002  0.1903108E+03  0.7818608E-02  0.1158181E+00
         -2   -1    0    0    0  501 -0.00000000000E+00  0.00000000000E+00  0.88233127390E+02  0.88233127390E+02  0.00000000000E+00 0. -1.
          2   -1    0    0  502    0  0.00000000000E+00 -0.00000000000E+00 -0.41329731598E+03  0.41329731598E+03  0.00000000000E+00 0.  1.
          6    2    1    2  502    0  0.36686412607E+02 -0.75883700944E+02 -0.18394366092E+03  0.26531558624E+03  0.17161835849E+03 0.  0.
         24    2    3    3    0    0  0.89605304734E+02 -0.38452050693E+02 -0.11941836092E+03  0.17373424576E+03  0.80094771269E+02 0.  0.
         -6    2    1    2    0  501 -0.36686412607E+02  0.75883700944E+02 -0.14112052767E+03  0.23621485713E+03  0.16964146445E+03 0.  0.
        -24    2    5    5    0    0 -0.77113236536E+02  0.56263540500E+02 -0.34268013111E+02  0.12020266529E+03  0.64516252067E+02 0.  0.
          5    1    3    3  502    0 -0.52918892127E+02 -0.37431650251E+02 -0.64525300002E+02  0.91581340484E+02  0.47000000000E+01 0. -1.
        -11    1    4    4    0    0  0.12659231673E+02 -0.72592939508E+01 -0.80901352776E+02  0.82206948467E+02  0.00000000000E+00 0.  1.
         12    1    4    4    0    0  0.76946073061E+02 -0.31192756742E+02 -0.38517008142E+02  0.91527297288E+02  0.00000000000E+00 0. -1.
         -5    1    5    5    0  501  0.40426823930E+02  0.19620160445E+02 -0.10685251456E+03  0.11601219185E+03  0.47000000000E+01 0.  1.
         13    1    6    6    0    0 -0.50573723093E+01 -0.43004585630E+01  0.13205862837E+02  0.14780587668E+02  0.00000000000E+00 0. -1.
        -14    1    6    6    0    0 -0.72055864227E+02  0.60563999063E+02 -0.47473875948E+02  0.10542207762E+03  0.00000000000E+00 0.  1.
</event>
<event>
12    1  0.2689284E-002  0.1897448E+03  0.7818608E-02  0.1158692E+00
         -2   -1    0    0    0  501 -0.00000000000E+00  0.00000000000E+00  0.30894165144E+02  0.30894165144E+02  0.00000000000E+00 0. -1.
          2   -1    0    0  502    0  0.00000000000E+00 -0.00000000000E+00 -0.11691297675E+04  0.11691297675E+04  0.00000000000E+00 0.  1.
          6    2    1    2  502    0 -0.70964616176E+02  0.19948432295E+02 -0.59953737972E+03  0.62850338557E+03  0.17360161087E+03 0.  0.
         24    2    3    3    0    0 -0.79182550515E+02  0.28646983810E+02 -0.60160667683E+03  0.61548143357E+03  0.98976135906E+02 0.  0.
         -6    2    1    2    0  501  0.70964616176E+02 -0.19948432295E+02 -0.53869822262E+03  0.57152054706E+03  0.17608533145E+03 0.  0.
        -24    2    5    5    0    0 -0.30964087317E+02  0.21729131116E+01 -0.23185524550E+03  0.24740094393E+03  0.80541144390E+02 0.  0.
          5    1    3    3  502    0  0.82179343389E+01 -0.86985515150E+01  0.20692971139E+01  0.13021951997E+02  0.47000000000E+01 0. -1.
        -13    1    4    4    0    0 -0.41792781642E+02 -0.33458251629E+02 -0.18402021513E+03  0.19164949981E+03  0.00000000000E+00 0.  1.
         14    1    4    4    0    0 -0.37389768873E+02  0.62105235439E+02 -0.41758646169E+03  0.42383193376E+03  0.00000000000E+00 0. -1.
         -5    1    5    5    0  501  0.10192870349E+03 -0.22121345407E+02 -0.30684297713E+03  0.32411960313E+03  0.47000000000E+01 0.  1.
         11    1    6    6    0    0  0.18421745079E+02  0.21165999230E+02 -0.43582746021E+02  0.51834505553E+02  0.00000000000E+00 0. -1.
        -12    1    6    6    0    0 -0.49385832396E+02 -0.18993086119E+02 -0.18827249947E+03  0.19556643838E+03  0.00000000000E+00 0.  1.
</event>
<event>
12    1  0.2689284E-002  0.2017397E+03  0.7818608E-02  0.1148279E+00
         -2   -1    0    0    0  501 -0.00000000000E+00  0.00000000000E+00  0.30672234153E+03  0.30672234153E+03  0.00000000000E+00 0. -1.
          2   -1    0    0  502    0  0.00000000000E+00 -0.00000000000E+00 -0.21438561589E+03  0.21438561589E+03  0.00000000000E+00 0.  1.
          6    2    1    2  502    0  0.94047723087E+02 -0.47527094908E+02  0.20698263022E+03  0.28889770247E+03  0.17180301018E+03 0.  0.
         24    2    3    3    0    0 -0.16463518658E+02 -0.16536298778E+02  0.62289139683E+02  0.10415068571E+03  0.80143195512E+02 0.  0.
         -6    2    1    2    0  501 -0.94047723087E+02  0.47527094908E+02 -0.11464590459E+03  0.23221025495E+03  0.17226177782E+03 0.  0.
        -24    2    5    5    0    0 -0.10174480714E+03 -0.16485659023E+02 -0.56190971053E+02  0.14505552460E+03  0.85205030696E+02 0.  0.
          5    1    3    3  502    0  0.11051124174E+03 -0.30990796130E+02  0.14469349054E+03  0.18474701676E+03  0.47000000000E+01 0. -1.
        -11    1    4    4    0    0 -0.22969489303E+02  0.99780563757E+01 -0.99327123199E+01  0.26941006327E+02  0.00000000000E+00 0.  1.
         12    1    4    4    0    0  0.65059706451E+01 -0.26514355154E+02  0.72221852003E+02  0.77209679380E+02  0.00000000000E+00 0. -1.
         -5    1    5    5    0  501  0.76970840507E+01  0.64012753931E+02 -0.58454933534E+02  0.87154730355E+02  0.47000000000E+01 0.  1.
         11    1    6    6    0    0  0.14134346758E+02 -0.94925477673E+01 -0.12041157026E+02  0.20853721104E+02  0.00000000000E+00 0. -1.
        -12    1    6    6    0    0 -0.11587915390E+03 -0.69931112559E+01 -0.44149814027E+02  0.12420180349E+03  0.00000000000E+00 0.  1.
</event>
<event>
12    1  0.2689284E-002  0.2792836E+03  0.7818608E-02  0.1096081E+00
          2   -1    0    0  502    0  0.00000000000E+00  0.00000000000E+00  0.18026437550E+04  0.18026437550E+04  0.00000000000E+00 0.  1.
         -2   -1    0    0    0  501 -0.00000000000E+00 -0.00000000000E+00 -0.64363643124E+02  0.64363643124E+02  0.00000000000E+00 0. -1.
          6    2    1    2  502    0 -0.21824479133E+03  0.23122238563E+02  0.33505202116E+03  0.43628674113E+03  0.17297640516E+03 0.  0.
         24    2    3    3    0    0 -0.64161724860E+02 -0.27678318309E+02  0.19170115794E+03  0.21973686711E+03  0.81560655775E+02 0.  0.
         -6    2    1    2    0  501  0.21824479133E+03 -0.23122238563E+02  0.14032280907E+04  0.14307206570E+04  0.17247346729E+03 0.  0.
        -24    2    5    5    0    0  0.41977129277E+02 -0.29973106095E+02  0.35483670857E+03  0.36758200037E+03  0.80913353470E+02 0.  0.
          5    1    3    3  502    0 -0.15408306647E+03  0.50800556872E+02  0.14335086322E+03  0.21654987402E+03  0.47000000000E+01 0. -1.
        -13    1    4    4    0    0 -0.82905941821E+02 -0.16818931205E+02  0.16437382514E+03  0.18486488587E+03  0.00000000000E+00 0.  1.
         14    1    4    4    0    0  0.18744216961E+02 -0.10859387105E+02  0.27327332804E+02  0.34871981245E+02  0.00000000000E+00 0. -1.
         -5    1    5    5    0  501  0.17626766205E+03  0.68508675324E+01  0.10483913821E+04  0.10631386566E+04  0.47000000000E+01 0.  1.
         11    1    6    6    0    0  0.54891842556E+02 -0.33352998015E+02  0.16177705094E+03  0.17406134283E+03  0.00000000000E+00 0. -1.
        -12    1    6    6    0    0 -0.12914713279E+02  0.33798919203E+01  0.19305965763E+03  0.19352065754E+03  0.00000000000E+00 0.  1.
</event>
<event>
12    1  0.2689284E-002  0.1848497E+03  0.7818608E-02  0.1163190E+00
          1   -1    0    0  502    0  0.00000000000E+00  0.00000000000E+00  0.12793517625E+04  0.12793517625E+04  0.00000000000E+00 0.  1.
         -1   -1    0    0    0  501 -0.00000000000E+00 -0.00000000000E+00 -0.28496876464E+02  0.28496876464E+02  0.00000000000E+00 0. -1.
          6    2    1    2  502    0 -0.29879032358E-01 -0.62868217924E+02  0.79649161895E+03  0.81819811029E+03  0.17634294688E+03 0.  0.
         24    2    3    3    0    0 -0.41530537627E+02  0.63949431273E+01  0.41974232733E+03  0.43286473660E+03  0.97069964411E+02 0.  0.
         -6    2    1    2    0  501  0.29879032358E-01  0.62868217924E+02  0.45436326712E+03  0.48965052870E+03  0.17134540564E+03 0.  0.
        -24    2    5    5    0    0 -0.43658552175E+02  0.26068679913E+02  0.12097511161E+03  0.15137159461E+03  0.75450227133E+02 0.  0.
          5    1    3    3  502    0  0.41500658595E+02 -0.69263161051E+02  0.37674929162E+03  0.38533337369E+03  0.47000000000E+01 0. -1.
        -13    1    4    4    0    0  0.10996959961E+02 -0.20223052927E+02  0.28360000422E+03  0.28453271761E+03  0.00000000000E+00 0.  1.
         14    1    4    4    0    0 -0.52527497589E+02  0.26617996054E+02  0.13614232311E+03  0.14833201899E+03  0.00000000000E+00 0. -1.
         -5    1    5    5    0  501  0.43688431208E+02  0.36799538011E+02  0.33338815551E+03  0.33827893409E+03  0.47000000000E+01 0.  1.
         11    1    6    6    0    0 -0.52660941693E+02  0.44408957886E+02  0.79898014184E+02  0.10549418463E+03  0.00000000000E+00 0. -1.
        -12    1    6    6    0    0  0.90023895172E+01 -0.18340277973E+02  0.41077097426E+02  0.45877409976E+02  0.00000000000E+00 0.  1.
</event>
<event>
12    1  0.2689284E-002  0.1754032E+03  0.7818608E-02  0.1172327E+00
          2   -1    0    0  502    0  0.00000000000E+00  0.00000000000E+00  0.59566223762E+03  0.59566223762E+03  0.00000000000E+00 0.  1.
         -2   -1    0    0    0  501 -0.00000000000E+00 -0.00000000000E+00 -0.52516673320E+02  0.52516673320E+02  0.00000000000E+00 0. -1.
          6    2    1    2  502    0 -0.41753616224E+02  0.11645479976E+02  0.23185611348E+03  0.29146386641E+03  0.17121608099E+03 0.  0.
         24    2    3    3    0    0  0.16572558175E+02  0.30519267349E+01  0.20765541511E+03  0.22756116241E+03  0.91538774672E+02 0.  0.
         -6    2    1    2    0  501  0.41753616224E+02 -0.11645479976E+02  0.31128945082E+03  0.35671504453E+03  0.16871727574E+03 0.  0.
        -24    2    5    5    0    0  0.91579121518E+02 -0.92370455347E+01  0.19013361229E+03  0.22560742178E+03  0.79220323978E+02 0.  0.
          5    1    3    3  502    0 -0.58326174399E+02  0.85935532415E+01  0.24200698369E+02  0.63902704003E+02  0.47000000000E+01 0. -1.
        -13    1    4    4    0    0  0.27757406440E+02  0.29219946802E+02  0.37525782381E+02  0.55067805901E+02  0.00000000000E+00 0.  1.
         14    1    4    4    0    0 -0.11184848265E+02 -0.26168020067E+02  0.17012963273E+03  0.17249335651E+03  0.00000000000E+00 0. -1.
         -5    1    5    5    0  501 -0.49825505294E+02 -0.24084344417E+01  0.12115583853E+03  0.13110762276E+03  0.47000000000E+01 0.  1.
         13    1    6    6    0    0  0.67793107451E+02  0.67732985228E+01  0.55271257981E+02  0.87730809580E+02  0.00000000000E+00 0. -1.
        -14    1    6    6    0    0  0.23786014068E+02 -0.16010344058E+02  0.13486235431E+03  0.13787661220E+03  0.00000000000E+00 0.  1.
</event>
<event>
12    1  0.2689284E-002  0.2480137E+03  0.7818608E-02  0.1114567E+00
          1   -1    0    0  502    0  0.00000000000E+00  0.00000000000E+00  0.25093009644E+03  0.25093009644E+03  0.00000000000E+00 0. -1.
         -1   -1    0    0    0  501 -0.00000000000E+00 -0.00000000000E+00 -0.25089407783E+03  0.25089407783E+03  0.00000000000E+00 0.  1.
          6    2    1    2  502    0  0.14110657652E+03 -0.10977018857E+03  0.38044812238E+02  0.25110294220E+03  0.17217642001E+03 0.  0.
         24    2    3    3    0    0  0.12777876010E+03 -0.92891804998E+02 -0.29401507255E+02  0.18015502796E+03  0.81456040295E+02 0.  0.
         -6    2    1    2    0  501 -0.14110657652E+03  0.10977018857E+03 -0.38008793627E+02  0.25072123207E+03  0.17162723438E+03 0.  0.
        -24    2    5    5    0    0 -0.82464992790E+02 -0.36329344587E+01 -0.43253334891E+02  0.12285920147E+03  0.80061596031E+02 0.  0.
          5    1    3    3  502    0  0.13327816419E+02 -0.16878383574E+02  0.67446319493E+02  0.70947914245E+02  0.47000000000E+01 0. -1.
        -11    1    4    4    0    0  0.92035944173E+02 -0.18970010936E+02 -0.27925539156E+02  0.98032199159E+02  0.00000000000E+00 0.  1.
         12    1    4    4    0    0  0.35742815926E+02 -0.73921794063E+02 -0.14759680993E+01  0.82122828797E+02  0.00000000000E+00 0. -1.
         -5    1    5    5    0  501 -0.58641583728E+02  0.11340312303E+03  0.52445412646E+01  0.12786203060E+03  0.47000000000E+01 0.  1.
         13    1    6    6    0    0 -0.26188334980E+02  0.12610303105E+01  0.23641749461E+02  0.35303702412E+02  0.00000000000E+00 0. -1.
        -14    1    6    6    0    0 -0.56276657810E+02 -0.48939647692E+01 -0.66895084352E+02  0.87555499062E+02  0.00000000000E+00 0.  1.
</event>
<event>
12    1  0.2689284E-002  0.1904907E+03  0.7818608E-02  0.1158020E+00
          2   -1    0    0  502    0  0.00000000000E+00  0.00000000000E+00  0.28288358694E+04  0.28288358694E+04  0.00000000000E+00 0. -1.
         -2   -1    0    0    0  501 -0.00000000000E+00 -0.00000000000E+00 -0.15115368331E+02  0.15115368331E+02  0.00000000000E+00 0.  1.
          6    2    1    2  502    0 -0.43839885879E+02 -0.83608116066E+02  0.88453249367E+03  0.90583683189E+03  0.17096894744E+03 0.  0.
         24    2    3    3    0    0 -0.85841581817E+02 -0.66930383586E+02  0.78379489792E+03  0.79532691189E+03  0.79762154857E+02 0.  0.
         -6    2    1    2    0  501  0.43839885879E+02  0.83608116066E+02  0.19291880074E+04  0.19381144059E+04  0.16002759000E+03 0.  0.
        -24    2    5    5    0    0  0.67967005211E+02  0.84348068958E+02  0.10486297566E+04  0.10572128288E+04  0.79627183629E+02 0.  0.
          5    1    3    3  502    0  0.42001695938E+02 -0.16677732480E+02  0.10073759575E+03  0.11050992001E+03  0.47000000000E+01 0. -1.
        -13    1    4    4    0    0 -0.28265921111E+02 -0.66847764119E+02  0.32953577422E+03  0.33743356732E+03  0.00000000000E+00 0.  1.
         14    1    4    4    0    0 -0.57575660706E+02 -0.82619467042E-01  0.45425912370E+03  0.45789334456E+03  0.00000000000E+00 0. -1.
         -5    1    5    5    0  501 -0.24127119333E+02 -0.73995289212E+00  0.88055825080E+03  0.88090157706E+03  0.47000000000E+01 0.  1.
         11    1    6    6    0    0  0.25076455422E+02  0.81394215695E+02  0.83273275998E+03  0.83707687610E+03  0.00000000000E+00 0. -1.
        -12    1    6    6    0    0  0.42890549789E+02  0.29538532631E+01  0.21589699666E+03  0.22013595271E+03  0.00000000000E+00 0.  1.
</event>
<event>
12    1  0.2689284E-002  0.1817630E+03  0.7818608E-02  0.1166108E+00
         -2   -1    0    0    0  501 -0.00000000000E+00  0.00000000000E+00  0.16842492259E+03  0.16842492259E+03  0.00000000000E+00 0.  1.
          2   -1    0    0  502    0  0.00000000000E+00 -0.00000000000E+00 -0.19663765251E+03  0.19663765251E+03  0.00000000000E+00 0. -1.
          6    2    1    2  502    0 -0.26973021710E+02  0.75989121399E+02 -0.11794047158E+02  0.17353310578E+03  0.15320818771E+03 0.  0.
         24    2    3    3    0    0 -0.48727375944E+01  0.10269003516E+03  0.12584874648E+02  0.13089763719E+03  0.80042647741E+02 0.  0.
         -6    2    1    2    0  501  0.26973021710E+02 -0.75989121399E+02 -0.16418682757E+02  0.19152946932E+03  0.17295107401E+03 0.  0.
        -24    2    5    5    0    0  0.74147603216E+02 -0.87958090883E+02 -0.80960954173E-01  0.13997650117E+03  0.79742846145E+02 0.  0.
          5    1    3    3  502    0 -0.22100284116E+02 -0.26700913765E+02 -0.24378921806E+02  0.42635468595E+02  0.47000000000E+01 0. -1.
        -13    1    4    4    0    0 -0.13678226632E+02  0.89190530269E+00  0.24452625169E+02  0.28032485736E+02  0.00000000000E+00 0.  1.
         14    1    4    4    0    0  0.88054890373E+01  0.10179812986E+03 -0.11867750522E+02  0.10286515145E+03  0.00000000000E+00 0. -1.
         -5    1    5    5    0  501 -0.47174581506E+02  0.11968969484E+02 -0.16337721803E+02  0.51552968144E+02  0.47000000000E+01 0.  1.
         13    1    6    6    0    0  0.51011837986E+02 -0.62470072198E+02 -0.37663173237E+02  0.89012539304E+02  0.00000000000E+00 0. -1.
        -14    1    6    6    0    0  0.23135765230E+02 -0.25488018685E+02  0.37582212282E+02  0.50963961868E+02  0.00000000000E+00 0.  1.
</event>
<event>
12    1  0.2689284E-002  0.1791401E+03  0.7818608E-02  0.1168638E+00
          2   -1    0    0  502    0  0.00000000000E+00  0.00000000000E+00  0.34132869618E+04  0.34132869618E+04  0.00000000000E+00 0. -1.
         -2   -1    0    0    0  501 -0.00000000000E+00 -0.00000000000E+00 -0.95338415109E+01  0.95338415109E+01  0.00000000000E+00 0.  1.
          6    2    1    2  502    0 -0.22586394605E+02  0.45451013219E+02  0.18939492301E+04  0.19023115016E+04  0.17079058356E+03 0.  0.
         24    2    3    3    0    0  0.10556452720E+02 -0.36844970775E+02  0.88348548930E+03  0.88794956491E+03  0.80242317116E+02 0.  0.
         -6    2    1    2    0  501  0.22586394605E+02 -0.45451013219E+02  0.15098038902E+04  0.15205093017E+04  0.17281437923E+03 0.  0.
        -24    2    5    5    0    0  0.77853762949E+02 -0.85020783352E+01  0.84068235331E+03  0.84807683148E+03  0.79711976381E+02 0.  0.
          5    1    3    3  502    0 -0.33142847325E+02  0.82295983994E+02  0.10104637408E+04  0.10143619367E+04  0.47000000000E+01 0. -1.
        -13    1    4    4    0    0  0.10485469931E+02  0.20378214807E+02  0.11064603755E+03  0.11299452351E+03  0.00000000000E+00 0.  1.
         14    1    4    4    0    0  0.70982789461E-01 -0.57223185582E+02  0.77283945175E+03  0.77495504140E+03  0.00000000000E+00 0. -1.
         -5    1    5    5    0  501 -0.55267368344E+02 -0.36948934884E+02  0.66912153693E+03  0.67243247020E+03  0.47000000000E+01 0.  1.
         13    1    6    6    0    0 -0.52625378405E+00  0.14654293291E+02  0.37432644959E+03  0.37461355571E+03  0.00000000000E+00 0. -1.
        -14    1    6    6    0    0  0.78380016733E+02 -0.23156371626E+02  0.46635590372E+03  0.47346327577E+03  0.00000000000E+00 0.  1.
</event>
<event>
12    1  0.2689284E-002  0.2631819E+03  0.7818608E-02  0.1105246E+00
         -2   -1    0    0    0  501 -0.00000000000E+00  0.00000000000E+00  0.79667059106E+02  0.79667059106E+02  0.00000000000E+00 0.  1.
          2   -1    0    0  502    0  0.00000000000E+00 -0.00000000000E+00 -0.19338008176E+04  0.19338008176E+04  0.00000000000E+00 0. -1.
          6    2    1    2  502    0 -0.17460264328E+03 -0.95893781868E+02 -0.17960066366E+03  0.31832236008E+03  0.17143811158E+03 0.  0.
         24    2    3    3    0    0 -0.19238633616E+03 -0.58517629743E+02 -0.13732184483E+03  0.25896896926E+03  0.88152269649E+02 0.  0.
         -6    2    1    2    0  501  0.17460264328E+03  0.95893781868E+02 -0.16745330948E+04  0.16951455166E+04  0.17255589351E+03 0.  0.
        -24    2    5    5    0    0  0.63999823927E+02  0.69393506377E+02 -0.12297166092E+04  0.12359951664E+04  0.81053538742E+02 0.  0.
          5    1    3    3  502    0  0.17783692879E+02 -0.37376152125E+02 -0.42278818831E+02  0.59353390820E+02  0.47000000000E+01 0. -1.
        -11    1    4    4    0    0 -0.15967907210E+02  0.17916308968E+02 -0.31196588189E+02  0.39359818372E+02  0.00000000000E+00 0.  1.
         12    1    4    4    0    0 -0.17641842895E+03 -0.76433938711E+02 -0.10612525664E+03  0.21960915089E+03  0.00000000000E+00 0. -1.
         -5    1    5    5    0  501  0.11060281935E+03  0.26500275491E+02 -0.44481648561E+03  0.45915035023E+03  0.47000000000E+01 0.  1.
         11    1    6    6    0    0  0.18259970378E+02  0.34081457352E+02 -0.92739788650E+03  0.92820354025E+03  0.00000000000E+00 0. -1.
        -12    1    6    6    0    0  0.45739853549E+02  0.35312049025E+02 -0.30231872270E+03  0.30779162611E+03  0.00000000000E+00 0.  1.
</event>
<event>
12    1  0.2689284E-002  0.1785081E+03  0.7818608E-02  0.1169255E+00
         -1   -1    0    0    0  501 -0.00000000000E+00  0.00000000000E+00  0.48065110834E+02  0.48065110834E+02  0.00000000000E+00 0.  1.
          1   -1    0    0  502    0  0.00000000000E+00 -0.00000000000E+00 -0.67802257987E+03  0.67802257987E+03  0.00000000000E+00 0. -1.
          6    2    1    2  502    0 -0.11760579230E+02 -0.42012951764E+02 -0.36791122024E+03  0.40863616289E+03  0.17239909599E+03 0.  0.
         24    2    3    3    0    0 -0.95362547216E+01 -0.94432162327E+02 -0.23795160820E+03  0.26840666522E+03  0.80079939127E+02 0.  0.
         -6    2    1    2    0  501  0.11760579230E+02  0.42012951764E+02 -0.26204624880E+03  0.31745152782E+03  0.17379251039E+03 0.  0.
        -24    2    5    5    0    0  0.19453127741E+02  0.75500217822E+02 -0.25360270690E+03  0.28175901193E+03  0.94842505165E+02 0.  0.
          5    1    3    3  502    0 -0.22243245085E+01  0.52419210563E+02 -0.12995961204E+03  0.14022949767E+03  0.47000000000E+01 0. -1.
        -13    1    4    4    0    0  0.30082407328E+02 -0.72702930628E+02 -0.16018274513E+03  0.17846338333E+03  0.00000000000E+00 0.  1.
         14    1    4    4    0    0 -0.39618662049E+02 -0.21729231699E+02 -0.77768863079E+02  0.89943281891E+02  0.00000000000E+00 0. -1.
         -5    1    5    5    0  501 -0.76925485106E+01 -0.33487266058E+02 -0.84435418913E+01  0.35692515886E+02  0.47000000000E+01 0.  1.
         13    1    6    6    0    0 -0.53109630258E+01 -0.32059858627E+01 -0.14615210745E+03  0.14628370786E+03  0.00000000000E+00 0. -1.
        -14    1    6    6    0    0  0.24764090766E+02  0.78706203685E+02 -0.10745059945E+03  0.13547530407E+03  0.00000000000E+00 0.  1.
</event>
<event>
12    1  0.2689284E-002  0.1903379E+03  0.7818608E-02  0.1158157E+00
         -2   -1    0    0    0  501 -0.00000000000E+00  0.00000000000E+00  0.13000143412E+03  0.13000143412E+03  0.00000000000E+00 0.  1.
          2   -1    0    0  502    0  0.00000000000E+00 -0.00000000000E+00 -0.41025366553E+03  0.41025366553E+03  0.00000000000E+00 0. -1.
          6    2    1    2  502    0  0.62517451306E+02 -0.51729145492E+02  0.12986565815E+02  0.19051221426E+03  0.17187762123E+03 0.  0.
         24    2    3    3    0    0  0.26414401394E+02 -0.28026668817E+02  0.75347481718E+02  0.11451082318E+03  0.77150961482E+02 0.  0.
         -6    2    1    2    0  501 -0.62517451306E+02  0.51729145492E+02 -0.29323879723E+03  0.34974288539E+03  0.17247248323E+03 0.  0.
        -24    2    5    5    0    0 -0.10230379622E+03  0.67777771081E+01 -0.21999502537E+03  0.25492559332E+03  0.77956667164E+02 0.  0.
          5    1    3    3  502    0  0.36103049913E+02 -0.23702476676E+02 -0.62360915903E+02  0.76001391078E+02  0.47000000000E+01 0. -1.
        -13    1    4    4    0    0  0.41218529797E+02  0.12026422429E+02  0.44465941653E+02  0.61812798045E+02  0.00000000000E+00 0.  1.
         14    1    4    4    0    0 -0.14804128403E+02 -0.40053091245E+02  0.30881540066E+02  0.52698025133E+02  0.00000000000E+00 0. -1.
         -5    1    5    5    0  501  0.39786344915E+02  0.44951368384E+02 -0.73243771855E+02  0.94817292077E+02  0.47000000000E+01 0.  1.
         11    1    6    6    0    0 -0.83981530086E+02  0.38324960852E+02 -0.15674064704E+03  0.18190472906E+03  0.00000000000E+00 0. -1.
        -12    1    6    6    0    0 -0.18322266135E+02 -0.31547183744E+02 -0.63254378329E+02  0.73020864253E+02  0.00000000000E+00 0.  1.
</event>
<event>
12    1  0.2689284E-002  0.2736443E+03  0.7818608E-02  0.1099212E+00
         -1   -1    0    0    0  501 -0.00000000000E+00  0.00000000000E+00  0.37417312910E+02  0.37417312910E+02  0.00000000000E+00 0.  1.
          1   -1    0    0  502    0  0.00000000000E+00 -0.00000000000E+00 -0.20819793852E+04  0.20819793852E+04  0.00000000000E+00 0. -1.
          6    2    1    2  502    0 -0.91778255707E+02  0.19171462666E+03 -0.12320923063E+04  0.12621831247E+04  0.17284976949E+03 0.  0.
         24    2    3    3    0    0 -0.71021910011E+02  0.21046043829E+03 -0.95755431901E+03  0.98618416131E+03  0.79443177127E+02 0.  0.
         -6    2    1    2    0  501  0.91778255707E+02 -0.19171462666E+03 -0.81246976600E+03  0.85721357339E+03  0.17184365988E+03 0.  0.
        -24    2    5    5    0    0  0.10471207552E+03 -0.21122958619E+03 -0.72741056456E+03  0.76886610546E+03  0.80289487760E+02 0.  0.
          5    1    3    3  502    0 -0.20756345696E+02 -0.18745811626E+02 -0.27453798725E+03  0.27599896338E+03  0.47000000000E+01 0. -1.
        -13    1    4    4    0    0 -0.62114189738E+02  0.64365663751E+02 -0.37616346604E+03  0.38665238189E+03  0.00000000000E+00 0.  1.
         14    1    4    4    0    0 -0.89077202733E+01  0.14609477454E+03 -0.58139085297E+03  0.59953177943E+03  0.00000000000E+00 0. -1.
         -5    1    5    5    0  501 -0.12933819811E+02  0.19514959528E+02 -0.85059201436E+02  0.88347467928E+02  0.47000000000E+01 0.  1.
         11    1    6    6    0    0  0.10108972951E+03 -0.14605076999E+03 -0.59950862171E+03  0.62526838105E+03  0.00000000000E+00 0. -1.
        -12    1    6    6    0    0  0.36223460077E+01 -0.65178816201E+02 -0.12790194285E+03  0.14359772441E+03  0.00000000000E+00 0.  1.
</event>
<event>
12    1  0.2689284E-002  0.1814335E+03  0.7818608E-02  0.1166423E+00
          2   -1    0    0  502    0  0.00000000000E+00  0.00000000000E+00  0.88269820466E+03  0.88269820466E+03  0.00000000000E+00 0. -1.
         -2   -1    0    0    0  501 -0.00000000000E+00 -0.00000000000E+00 -0.38785768791E+02  0.38785768791E+02  0.00000000000E+00 0.  1.
          6    2    1    2  502    0  0.32945098469E+02 -0.88363675788E+01  0.31591193233E+03  0.36046161579E+03  0.17020213442E+03 0.  0.
         24    2    3    3    0    0  0.25319436126E+02 -0.81510222595E+02  0.18928898277E+03  0.21419097183E+03  0.52559139836E+02 0.  0.
         -6    2    1    2    0  501 -0.32945098469E+02  0.88363675788E+01  0.52800050354E+03  0.56102235767E+03  0.18654247012E+03 0.  0.
        -24    2    5    5    0    0 -0.63488448715E+02 -0.40499524050E+02  0.45221595744E+03  0.46545921689E+03  0.80510967325E+02 0.  0.
          5    1    3    3  502    0  0.76256623435E+01  0.72673855016E+02  0.12662294956E+03  0.14627064396E+03  0.47000000000E+01 0. -1.
        -11    1    4    4    0    0  0.20536092888E+02 -0.35640622353E+02  0.37895932424E+02  0.55929301507E+02  0.00000000000E+00 0.  1.
         12    1    4    4    0    0  0.47833432384E+01 -0.45869600242E+02  0.15139305035E+03  0.15826167032E+03  0.00000000000E+00 0. -1.
         -5    1    5    5    0  501  0.30543350246E+02  0.49335891629E+02  0.75784546102E+02  0.95563140776E+02  0.47000000000E+01 0.  1.
         13    1    6    6    0    0 -0.42226039703E+02  0.11148868401E+02  0.10408464592E+03  0.11287581323E+03  0.00000000000E+00 0. -1.
        -14    1    6    6    0    0 -0.21262409012E+02 -0.51648392452E+02  0.34813131152E+03  0.35258340366E+03  0.00000000000E+00 0.  1.
</event>
<event>
12    1  0.2689284E-002  0.3003940E+03  0.7818608E-02  0.1085044E+00
          1   -1    0    0  502    0  0.00000000000E+00  0.00000000000E+00  0.16534926742E+04  0.16534926742E+04  0.00000000000E+00 0. -1.
         -1   -1    0    0    0  501 -0.00000000000E+00 -0.00000000000E+00 -0.60151725001E+02  0.60151725001E+02  0.00000000000E+00 0.  1.
          6    2    1    2  502    0  0.97556199996E+02  0.22602431847E+03  0.10572575358E+04  0.10990654081E+04  0.17189261104E+03 0.  0.
         24    2    3    3    0    0 -0.96021711572E+01  0.12519411511E+03  0.44938722796E+03  0.47362312660E+03  0.81266335285E+02 0.  0.
         -6    2    1    2    0  501 -0.97556199996E+02 -0.22602431847E+03  0.53608341339E+03  0.61457899102E+03  0.17238824031E+03 0.  0.
        -24    2    5    5    0    0 -0.12486263073E+03 -0.14122876291E+03  0.31122562940E+03  0.37267190055E+03  0.80540133079E+02 0.  0.
          5    1    3    3  502    0  0.10715837115E+03  0.10083020336E+03  0.60787030780E+03  0.62544228153E+03  0.47000000000E+01 0. -1.
        -11    1    4    4    0    0  0.17592196460E+01  0.91138678505E+02  0.17910996859E+03  0.20097197422E+03  0.00000000000E+00 0.  1.
         12    1    4    4    0    0 -0.11361390803E+02  0.34055436600E+02  0.27027725937E+03  0.27265115238E+03  0.00000000000E+00 0. -1.
         -5    1    5    5    0  501  0.27306430731E+02 -0.84795555562E+02  0.22485778398E+03  0.24190709047E+03  0.47000000000E+01 0.  1.
         13    1    6    6    0    0 -0.68466923874E+02 -0.53196682298E+02  0.20980059683E+03  0.22701078631E+03  0.00000000000E+00 0. -1.
        -14    1    6    6    0    0 -0.56395706853E+02 -0.88032080609E+02  0.10142503257E+03  0.14566111424E+03  0.00000000000E+00 0.  1.
</event>
<event>
12    1  0.2689284E-002  0.1941599E+03  0.7818608E-02  0.1154762E+00
          1   -1    0    0  502    0  0.00000000000E+00  0.00000000000E+00  0.23121686625E+04  0.23121686625E+04  0.00000000000E+00 0. -1.
         -1   -1    0    0    0  501 -0.00000000000E+00 -0.00000000000E+00 -0.16327691394E+02  0.16327691394E+02  0.00000000000E+00 0.  1.
          6    2    1    2  502    0 -0.88128241870E+02 -0.25065688793E+02  0.11937920482E+04  0.12095258167E+04  0.17151784472E+03 0.  0.
         24    2    3    3    0    0 -0.45341001601E+02 -0.65621421224E+02  0.10152769312E+04  0.10214693029E+04  0.79058917496E+02 0.  0.
         -6    2    1    2    0  501  0.88128241870E+02  0.25065688793E+02  0.11020489229E+04  0.11189705372E+04  0.17084600946E+03 0.  0.
        -24    2    5    5    0    0  0.26032069174E+02  0.22170421262E+02  0.96233667072E+03  0.96598060081E+03  0.76534025857E+02 0.  0.
          5    1    3    3  502    0 -0.42787240269E+02  0.40555732430E+02  0.17851511701E+03  0.18805651375E+03  0.47000000000E+01 0. -1.
        -13    1    4    4    0    0 -0.35715338217E+02 -0.15063124644E+02  0.15935832547E+03  0.16400475299E+03  0.00000000000E+00 0.  1.
         14    1    4    4    0    0 -0.96256633841E+01 -0.50558296579E+02  0.85591860572E+03  0.85746454992E+03  0.00000000000E+00 0. -1.
         -5    1    5    5    0  501  0.62096172695E+02  0.28952675309E+01  0.13971225219E+03  0.15298993643E+03  0.47000000000E+01 0.  1.
         13    1    6    6    0    0  0.14144060239E+02 -0.27911139058E+02  0.44115392904E+03  0.44226222451E+03  0.00000000000E+00 0. -1.
        -14    1    6    6    0    0  0.11888008935E+02  0.50081560321E+02  0.52118274168E+03  0.52371837630E+03  0.00000000000E+00 0.  1.
</event>
<event>
12    1  0.2689284E-002  0.1800817E+03  0.7818608E-02  0.1167724E+00
          1   -1    0    0  502    0  0.00000000000E+00  0.00000000000E+00  0.19344227404E+03  0.19344227404E+03  0.00000000000E+00 0.  1.
         -1   -1    0    0    0  501 -0.00000000000E+00 -0.00000000000E+00 -0.17247122131E+03  0.17247122131E+03  0.00000000000E+00 0. -1.
          6    2    1    2  502    0 -0.44041500116E+02 -0.36055456044E+02  0.41112285176E+02  0.18507254983E+03  0.17123661719E+03 0.  0.
         24    2    3    3    0    0 -0.76294650811E+02 -0.96382366349E+01  0.71928834555E+02  0.13301599476E+03  0.81275631480E+02 0.  0.
         -6    2    1    2    0  501  0.44041500116E+02  0.36055456044E+02 -0.20141232446E+02  0.18084094552E+03  0.17046444992E+03 0.  0.
        -24    2    5    5    0    0 -0.34181184253E+02  0.85666643344E+01 -0.38232337662E+02  0.95848004002E+02  0.80519482943E+02 0.  0.
          5    1    3    3  502    0  0.32253150695E+02 -0.26417219409E+02 -0.30816549379E+02  0.52056555079E+02  0.47000000000E+01 0. -1.
        -13    1    4    4    0    0  0.16246659817E+02 -0.90521499993E+01  0.65895408713E+01  0.19731128293E+02  0.00000000000E+00 0.  1.
         14    1    4    4    0    0 -0.92541310628E+02 -0.58608663558E+00  0.65339293683E+02  0.11328486646E+03  0.00000000000E+00 0. -1.
         -5    1    5    5    0  501  0.78222684369E+02  0.27488791709E+02  0.18091105215E+02  0.84992941515E+02  0.47000000000E+01 0.  1.
         13    1    6    6    0    0 -0.33842788144E+02  0.41505536318E+02 -0.31804226126E+02  0.62286055051E+02  0.00000000000E+00 0. -1.
        -14    1    6    6    0    0 -0.33839610897E+00 -0.32938871983E+02 -0.64281115356E+01  0.33561948951E+02  0.00000000000E+00 0.  1.
</event>
<event>
12    1  0.2689284E-002  0.1828090E+03  0.7818608E-02  0.1165112E+00
         -3   -1    0    0    0  501 -0.00000000000E+00  0.00000000000E+00  0.81785904271E+02  0.81785904271E+02  0.00000000000E+00 0.  1.
          3   -1    0    0  502    0  0.00000000000E+00 -0.00000000000E+00 -0.44877955951E+03  0.44877955951E+03  0.00000000000E+00 0. -1.
          6    2    1    2  502    0  0.16515798143E+02 -0.62054123486E+02 -0.26230998374E+03  0.31938912496E+03  0.17052682999E+03 0.  0.
         24    2    3    3    0    0 -0.29645541067E+02 -0.92533741926E+02 -0.15142601987E+03  0.19538420643E+03  0.76182656339E+02 0.  0.
         -6    2    1    2    0  501 -0.16515798143E+02  0.62054123486E+02 -0.10468367151E+03  0.21117633882E+03  0.17179432228E+03 0.  0.
        -24    2    5    5    0    0 -0.36518572841E+02 -0.26399956465E+02 -0.49028559167E+02  0.10466898328E+03  0.80754149016E+02 0.  0.
          5    1    3    3  502    0  0.46161339210E+02  0.30479618440E+02 -0.11088396387E+03  0.12400491854E+03  0.47000000000E+01 0. -1.
        -11    1    4    4    0    0 -0.16888182511E+02 -0.80083182698E+02 -0.58097562427E+02  0.10036858881E+03  0.00000000000E+00 0.  1.
         12    1    4    4    0    0 -0.12757358557E+02 -0.12450559228E+02 -0.93328457442E+02  0.95015617616E+02  0.00000000000E+00 0. -1.
         -5    1    5    5    0  501  0.20002774698E+02  0.88454079951E+02 -0.55655112338E+02  0.10650735554E+03  0.47000000000E+01 0.  1.
         11    1    6    6    0    0 -0.54407747819E+02 -0.38415284813E+01 -0.88752816019E+01  0.55260573534E+02  0.00000000000E+00 0. -1.
        -12    1    6    6    0    0  0.17889174978E+02 -0.22558427983E+02 -0.40153277565E+02  0.49408409746E+02  0.00000000000E+00 0.  1.
</event>
<event>
12    1  0.2689284E-002  0.1937116E+03  0.7818608E-02  0.1155156E+00
          2   -1    0    0  502    0  0.00000000000E+00  0.00000000000E+00  0.20424409636E+04  0.20424409636E+04  0.00000000000E+00 0.  1.
         -2   -1    0    0    0  501 -0.00000000000E+00 -0.00000000000E+00 -0.19969525478E+02  0.19969525478E+02  0.00000000000E+00 0. -1.
          6    2    1    2  502    0  0.85543841980E+02 -0.19434606178E+02  0.13058253667E+04  0.13202059636E+04  0.17340255277E+03 0.  0.
         24    2    3    3    0    0  0.12038334652E+03 -0.44636537727E+02  0.10266985082E+04  0.10377474329E+04  0.79531988652E+02 0.  0.
         -6    2    1    2    0  501 -0.85543841980E+02  0.19434606178E+02  0.71664607140E+03  0.74220452541E+03  0.17201893230E+03 0.  0.
        -24    2    5    5    0    0 -0.17644685654E+02  0.57831533722E+02  0.53851256111E+03  0.54768394305E+03  0.79410967596E+02 0.  0.
          5    1    3    3  502    0 -0.34839504542E+02  0.25201931549E+02  0.27912685851E+03  0.28245853071E+03  0.47000000000E+01 0. -1.
        -11    1    4    4    0    0  0.10065032588E+03 -0.55958864352E+02  0.96746998027E+03  0.97429977180E+03  0.00000000000E+00 0.  1.
         12    1    4    4    0    0  0.19733020643E+02  0.11322326626E+02  0.59228527897E+02  0.63447661113E+02  0.00000000000E+00 0. -1.
         -5    1    5    5    0  501 -0.67899156327E+02 -0.38396927544E+02  0.17813351029E+03  0.19452058236E+03  0.47000000000E+01 0.  1.
         11    1    6    6    0    0 -0.22283237227E+02  0.25893301557E+02  0.68316611211E+02  0.76381706541E+02  0.00000000000E+00 0. -1.
        -12    1    6    6    0    0  0.46385515730E+01  0.31938232165E+02  0.47019594990E+03  0.47130223651E+03  0.00000000000E+00 0.  1.
</event>
<event>
12    1  0.2689284E-002  0.2290482E+03  0.7818608E-02  0.1127311E+00
          1   -1    0    0  502    0  0.00000000000E+00  0.00000000000E+00  0.71831525151E+03  0.71831525151E+03  0.00000000000E+00 0. -1.
         -1   -1    0    0    0  501 -0.00000000000E+00 -0.00000000000E+00 -0.77844915920E+02  0.77844915920E+02  0.00000000000E+00 0.  1.
          6    2    1    2  502    0  0.73368872789E+01  0.15324680098E+03  0.21948429188E+03  0.31622293590E+03  0.16818198144E+03 0.  0.
         24    2    3    3    0    0  0.44755529469E+02  0.13362424862E+03  0.10119091911E+03  0.19052245306E+03  0.78744560265E+02 0.  0.
         -6    2    1    2    0  501 -0.73368872789E+01 -0.15324680098E+03  0.42098604371E+03  0.47993723153E+03  0.17196536072E+03 0.  0.
        -24    2    5    5    0    0  0.36129639926E+02 -0.15663343212E+03  0.37799347281E+03  0.41852665092E+03  0.80287664745E+02 0.  0.
          5    1    3    3  502    0 -0.37418642190E+02  0.19622552353E+02  0.11829337277E+03  0.12570048283E+03  0.47000000000E+01 0. -1.
        -11    1    4    4    0    0  0.40397024424E+02  0.70003213238E+02  0.13262988916E+02  0.81904067792E+02  0.00000000000E+00 0.  1.
         12    1    4    4    0    0  0.43585050450E+01  0.63621035387E+02  0.87927930197E+02  0.10861838527E+03  0.00000000000E+00 0. -1.
         -5    1    5    5    0  501 -0.43466527205E+02  0.33866311453E+01  0.42992570905E+02  0.61410580610E+02  0.47000000000E+01 0.  1.
         11    1    6    6    0    0  0.24076302350E+02 -0.33780735952E+02  0.35960387132E+02  0.54899507275E+02  0.00000000000E+00 0. -1.
        -12    1    6    6    0    0  0.12053337576E+02 -0.12285269617E+03  0.34203308567E+03  0.36362714365E+03  0.00000000000E+00 0.  1.
</event>
<event>
12    1  0.2689284E-002  0.3059673E+03  0.7818608E-02  0.1082295E+00
         -2   -1    0    0    0  501 -0.00000000000E+00  0.00000000000E+00  0.47857926339E+02  0.47857926339E+02  0.00000000000E+00 0.  1.
          2   -1    0    0  502    0  0.00000000000E+00 -0.00000000000E+00 -0.20074310608E+04  0.20074310608E+04  0.00000000000E+00 0. -1.
          6    2    1    2  502    0 -0.25174523810E+03  0.22800250955E+02 -0.81692025934E+03  0.87249829522E+03  0.17320233452E+03 0.  0.
         24    2    3    3    0    0 -0.13234528991E+03  0.45367258328E+02 -0.28750537215E+03  0.32929683146E+03  0.78762937365E+02 0.  0.
         -6    2    1    2    0  501  0.25174523810E+03 -0.22800250955E+02 -0.11426528751E+04  0.11827906919E+04  0.17158878615E+03 0.  0.
        -24    2    5    5    0    0  0.13080335866E+03 -0.70769109511E+02 -0.77554322388E+03  0.79327877218E+03  0.75538948758E+02 0.  0.
          5    1    3    3  502    0 -0.11939994818E+03 -0.22567007374E+02 -0.52941488719E+03  0.54320146376E+03  0.47000000000E+01 0. -1.
        -13    1    4    4    0    0  0.37625192976E+01  0.12075050953E+02 -0.43609730391E+01  0.13378396497E+02  0.00000000000E+00 0.  1.
         14    1    4    4    0    0 -0.13610780921E+03  0.33292207376E+02 -0.28314439911E+03  0.31591843496E+03  0.00000000000E+00 0. -1.
         -5    1    5    5    0  501  0.12094187944E+03  0.47968858557E+02 -0.36710965124E+03  0.38951191975E+03  0.47000000000E+01 0.  1.
         11    1    6    6    0    0  0.29041529606E+02  0.25160533352E+01 -0.30229568609E+03  0.30369791372E+03  0.00000000000E+00 0. -1.
        -12    1    6    6    0    0  0.10176182906E+03 -0.73285162847E+02 -0.47324753779E+03  0.48958085846E+03  0.00000000000E+00 0.  1.
</event>
<event>
12    1  0.2689284E-002  0.1890148E+03  0.7818608E-02  0.1159353E+00
         -1   -1    0    0    0  501 -0.00000000000E+00  0.00000000000E+00  0.70054254561E+02  0.70054254561E+02  0.00000000000E+00 0.  1.
          1   -1    0    0  502    0  0.00000000000E+00 -0.00000000000E+00 -0.71047415862E+03  0.71047415862E+03  0.00000000000E+00 0. -1.
          6    2    1    2  502    0 -0.58645014380E+02  0.62809321543E+02 -0.53169608650E+03  0.56549576497E+03  0.17233828133E+03 0.  0.
         24    2    3    3    0    0  0.22452155836E+02  0.34156093242E+02 -0.15794261395E+03  0.18194458618E+03  0.80543312139E+02 0.  0.
         -6    2    1    2    0  501  0.58645014380E+02 -0.62809321543E+02 -0.10872381756E+03  0.21503264821E+03  0.16441995836E+03 0.  0.
        -24    2    5    5    0    0  0.85248371608E+02 -0.50757063832E+02 -0.12426012929E+03  0.18161914026E+03  0.87757438340E+02 0.  0.
          5    1    3    3  502    0 -0.81097170216E+02  0.28653228301E+02 -0.37375347255E+03  0.38355117879E+03  0.47000000000E+01 0. -1.
        -13    1    4    4    0    0  0.48597193395E+02  0.36855876535E+02 -0.12991948981E+03  0.14352392370E+03  0.00000000000E+00 0.  1.
         14    1    4    4    0    0 -0.26145037559E+02 -0.26997832933E+01 -0.28023124141E+02  0.38420662480E+02  0.00000000000E+00 0. -1.
         -5    1    5    5    0  501 -0.26603357228E+02 -0.12052257711E+02  0.15536311735E+02  0.33413507958E+02  0.47000000000E+01 0.  1.
         11    1    6    6    0    0  0.89979958484E+02 -0.13538334566E+02 -0.10659378957E+03  0.14014961793E+03  0.00000000000E+00 0. -1.
        -12    1    6    6    0    0 -0.47315868753E+01 -0.37218729266E+02 -0.17666339727E+02  0.41469522325E+02  0.00000000000E+00 0.  1.
</event>
<event>
12    1  0.2689284E-002  0.1697621E+03  0.7818608E-02  0.1178096E+00
         -1   -1    0    0    0  501 -0.00000000000E+00  0.00000000000E+00  0.13049754286E+03  0.13049754286E+03  0.00000000000E+00 0.  1.
          1   -1    0    0  502    0  0.00000000000E+00 -0.00000000000E+00 -0.23303086453E+03  0.23303086453E+03  0.00000000000E+00 0. -1.
          6    2    1    2  502    0 -0.43691704173E+02  0.89506482973E+01 -0.89549775587E+02  0.18488259818E+03  0.15547775945E+03 0.  0.
         24    2    3    3    0    0 -0.80132187136E+02  0.28263703374E+02 -0.81968003343E+02  0.14268690924E+03  0.80129870535E+02 0.  0.
         -6    2    1    2    0  501  0.43691704173E+02 -0.89506482973E+01 -0.12983546090E+02  0.17864580921E+03  0.17250122771E+03 0.  0.
        -24    2    5    5    0    0  0.81973617016E+02  0.36520802395E+02 -0.12530289913E+02  0.11901818877E+03  0.77167857281E+02 0.  0.
          5    1    3    3  502    0  0.36440482963E+02 -0.19313055077E+02 -0.75817722441E+01  0.42195688942E+02  0.47000000000E+01 0. -1.
        -11    1    4    4    0    0 -0.16140503412E+02  0.18518408422E+02  0.12972409126E+02  0.27780041386E+02  0.00000000000E+00 0.  1.
         12    1    4    4    0    0 -0.63991683724E+02  0.97452949522E+01 -0.94940412469E+02  0.11490686785E+03  0.00000000000E+00 0. -1.
         -5    1    5    5    0  501 -0.38281912843E+02 -0.45471450693E+02 -0.45325617743E+00  0.59627620447E+02  0.47000000000E+01 0.  1.
         13    1    6    6    0    0  0.57620046197E+02  0.53967417806E+02  0.12562390820E+02  0.79939762143E+02  0.00000000000E+00 0. -1.
        -14    1    6    6    0    0  0.24353570820E+02 -0.17446615410E+02 -0.25092680733E+02  0.39078426623E+02  0.00000000000E+00 0.  1.
</event>
<event>
12    1  0.2689284E-002  0.1838431E+03  0.7818608E-02  0.1164135E+00
          1   -1    0    0  502    0  0.00000000000E+00  0.00000000000E+00  0.75827433228E+03  0.75827433228E+03  0.00000000000E+00 0. -1.
         -1   -1    0    0    0  501 -0.00000000000E+00 -0.00000000000E+00 -0.60779018129E+02  0.60779018129E+02  0.00000000000E+00 0.  1.
          6    2    1    2  502    0  0.25004783178E+01  0.65462834137E+02  0.13783738404E+03  0.23009818555E+03  0.17220451652E+03 0.  0.
         24    2    3    3    0    0  0.40142863163E+02  0.88258801456E+02  0.58143497666E+02  0.13894002197E+03  0.80762602030E+02 0.  0.
         -6    2    1    2    0  501 -0.25004783178E+01 -0.65462834137E+02  0.55965793011E+03  0.58895516485E+03  0.17134629388E+03 0.  0.
        -24    2    5    5    0    0  0.35707038889E+02 -0.16850397898E+02  0.14902126542E+03  0.17366304632E+03  0.79953658916E+02 0.  0.
          5    1    3    3  502    0 -0.37642384845E+02 -0.22795967319E+02  0.79693886373E+02  0.91158163584E+02  0.47000000000E+01 0. -1.
        -11    1    4    4    0    0  0.51927066380E+02  0.84002287227E+02  0.70503138110E+02  0.12134041769E+03  0.00000000000E+00 0.  1.
         12    1    4    4    0    0 -0.11784203217E+02  0.42565142289E+01 -0.12359640444E+02  0.17599604278E+02  0.00000000000E+00 0. -1.
         -5    1    5    5    0  501 -0.38207517207E+02 -0.48612436239E+02  0.41063666469E+03  0.41529211853E+03  0.47000000000E+01 0.  1.
         11    1    6    6    0    0  0.42422089705E+02  0.22410767680E+02  0.96269621855E+02  0.10756261569E+03  0.00000000000E+00 0. -1.
        -12    1    6    6    0    0 -0.67150508164E+01 -0.39261165578E+02  0.52751643569E+02  0.66100430628E+02  0.00000000000E+00 0.  1.
</event>
<event>
12    1  0.2689284E-002  0.1940042E+03  0.7818608E-02  0.1154899E+00
         -2   -1    0    0    0  501 -0.00000000000E+00  0.00000000000E+00  0.10784440611E+03  0.10784440611E+03  0.00000000000E+00 0.  1.
          2   -1    0    0  502    0  0.00000000000E+00 -0.00000000000E+00 -0.38083639713E+03  0.38083639713E+03  0.00000000000E+00 0. -1.
          6    2    1    2  502    0 -0.72916342595E+02  0.52839926961E+02 -0.20749967377E+03  0.28444925010E+03  0.17247147696E+03 0.  0.
         24    2    3    3    0    0 -0.90237201972E+02  0.21119387663E+02 -0.64161277044E+02  0.13654999128E+03  0.77074311482E+02 0.  0.
         -6    2    1    2    0  501  0.72916342595E+02 -0.52839926961E+02 -0.65492317250E+02  0.20423155314E+03  0.17120874038E+03 0.  0.
        -24    2    5    5    0    0  0.77166597271E+02  0.21152959841E+02 -0.63717612948E+02  0.12994661835E+03  0.80150221312E+02 0.  0.
          5    1    3    3  502    0  0.17320859378E+02  0.31720539297E+02 -0.14333839673E+03  0.14789925882E+03  0.47000000000E+01 0. -1.
        -13    1    4    4    0    0 -0.80130414514E+02  0.43768573591E+02 -0.64426350050E+02  0.11174670440E+03  0.00000000000E+00 0.  1.
         14    1    4    4    0    0 -0.10106787459E+02 -0.22649185928E+02  0.26507300610E+00  0.24803286872E+02  0.00000000000E+00 0. -1.
         -5    1    5    5    0  501 -0.42502546763E+01 -0.73992886802E+02 -0.17747043015E+01  0.74284934795E+02  0.47000000000E+01 0.  1.
         11    1    6    6    0    0  0.45481541581E+02 -0.46160940128E+01 -0.74768630441E+02  0.87636904593E+02  0.00000000000E+00 0. -1.
        -12    1    6    6    0    0  0.31685055689E+02  0.25769053854E+02  0.11051017493E+02  0.42309713757E+02  0.00000000000E+00 0.  1.
</event>
<event>
12    1  0.2689284E-002  0.1763731E+03  0.7818608E-02  0.1171360E+00
         -2   -1    0    0    0  501 -0.00000000000E+00  0.00000000000E+00  0.19387229936E+02  0.19387229936E+02  0.00000000000E+00 0.  1.
          2   -1    0    0  502    0  0.00000000000E+00 -0.00000000000E+00 -0.21919176517E+04  0.21919176517E+04  0.00000000000E+00 0. -1.
          6    2    1    2  502    0  0.31173717230E+02  0.32016971915E+01 -0.16662997798E+04  0.16757912719E+04  0.17532649367E+03 0.  0.
         24    2    3    3    0    0  0.20952806082E+02  0.64642038694E+02 -0.82684856944E+03  0.83401944585E+03  0.85394765825E+02 0.  0.
         -6    2    1    2    0  501 -0.31173717230E+02 -0.32016971915E+01 -0.50623064201E+03  0.53551360976E+03  0.17182349029E+03 0.  0.
        -24    2    5    5    0    0  0.48919642936E+02  0.52331076755E+01 -0.30315494507E+03  0.31700063311E+03  0.78523651156E+02 0.  0.
          5    1    3    3  502    0  0.10220911148E+02 -0.61440341502E+02 -0.83945121032E+03  0.84177182603E+03  0.47000000000E+01 0. -1.
        -11    1    4    4    0    0  0.18238226305E+02  0.60635902656E+02 -0.27681514179E+03  0.28396473076E+03  0.00000000000E+00 0.  1.
         12    1    4    4    0    0  0.27145797767E+01  0.40061360377E+01 -0.55003342765E+03  0.55005471510E+03  0.00000000000E+00 0. -1.
         -5    1    5    5    0  501 -0.80093360166E+02 -0.84348048669E+01 -0.20307569694E+03  0.21851297665E+03  0.47000000000E+01 0.  1.
         13    1    6    6    0    0  0.42710542283E+02 -0.25912301859E+02 -0.25111200666E+03  0.25603296213E+03  0.00000000000E+00 0. -1.
        -14    1    6    6    0    0  0.62091006528E+01  0.31145409535E+02 -0.52042938410E+02  0.60967670977E+02  0.00000000000E+00 0.  1.
</event>
<event>
12    1  0.2689284E-002  0.3505943E+03  0.7818608E-02  0.1062371E+00
          1   -1    0    0  502    0  0.00000000000E+00  0.00000000000E+00  0.11732962335E+04  0.11732962335E+04  0.00000000000E+00 0.  1.
         -1   -1    0    0    0  501 -0.00000000000E+00 -0.00000000000E+00 -0.10566104121E+03  0.10566104121E+03  0.00000000000E+00 0. -1.
          6    2    1    2  502    0 -0.13292179762E+03 -0.27588518434E+03  0.59332099194E+03  0.68933395510E+03  0.17137871207E+03 0.  0.
         24    2    3    3    0    0 -0.10944844644E+03 -0.17694211026E+03  0.51669822622E+03  0.56192175650E+03  0.74104862489E+02 0.  0.
         -6    2    1    2    0  501  0.13292179762E+03  0.27588518434E+03  0.47431420030E+03  0.58962331956E+03  0.17000252688E+03 0.  0.
        -24    2    5    5    0    0  0.74412894533E+02  0.26988079429E+03  0.40440333230E+03  0.49814127813E+03  0.78928802113E+02 0.  0.
          5    1    3    3  502    0 -0.23473351178E+02 -0.98943074078E+02  0.76622765728E+02  0.12741219860E+03  0.47000000000E+01 0. -1.
        -13    1    4    4    0    0 -0.91856330512E+02 -0.79533208860E+02  0.30084809398E+03  0.32445753562E+03  0.00000000000E+00 0.  1.
         14    1    4    4    0    0 -0.17592115931E+02 -0.97408901404E+02  0.21585013223E+03  0.23746422089E+03  0.00000000000E+00 0. -1.
         -5    1    5    5    0  501  0.58508903088E+02  0.60043900571E+01  0.69910867996E+02  0.91482041432E+02  0.47000000000E+01 0.  1.
         13    1    6    6    0    0  0.36069898093E+02  0.10733833932E+03  0.10063512847E+03  0.15149252694E+03  0.00000000000E+00 0. -1.
        -14    1    6    6    0    0  0.38342996440E+02  0.16254245496E+03  0.30376820383E+03  0.34664875119E+03  0.00000000000E+00 0.  1.
</event>
<event>
12    1  0.2689284E-002  0.2057178E+03  0.7818608E-02  0.1145003E+00
          2   -1    0    0  502    0  0.00000000000E+00  0.00000000000E+00  0.21601775103E+03  0.21601775103E+03  0.00000000000E+00 0.  1.
         -2   -1    0    0    0  501 -0.00000000000E+00 -0.00000000000E+00 -0.20519380348E+03  0.20519380348E+03  0.00000000000E+00 0. -1.
          6    2    1    2  502    0  0.38324498827E+01 -0.11190717832E+03  0.50221609240E+02  0.21227857156E+03  0.17321107839E+03 0.  0.
         24    2    3    3    0    0  0.54627372611E+02 -0.35186904868E+02  0.65712154956E+02  0.11885388778E+03  0.74738820020E+02 0.  0.
         -6    2    1    2    0  501 -0.38324498827E+01  0.11190717832E+03 -0.39397661692E+02  0.20893298295E+03  0.17193868497E+03 0.  0.
        -24    2    5    5    0    0 -0.21508390125E+02  0.91173945836E+02 -0.97246848858E+02  0.14481649328E+03  0.52340881413E+02 0.  0.
          5    1    3    3  502    0 -0.50794922728E+02 -0.76720273452E+02 -0.15490545715E+02  0.93424683783E+02  0.47000000000E+01 0. -1.
        -11    1    4    4    0    0  0.14356966194E+02  0.20195265054E+02  0.37161257908E+02  0.44664642596E+02  0.00000000000E+00 0.  1.
         12    1    4    4    0    0  0.40270406416E+02 -0.55382169921E+02  0.28550897047E+02  0.74189245180E+02  0.00000000000E+00 0. -1.
         -5    1    5    5    0  501  0.17675940242E+02  0.20733232483E+02  0.57849187167E+02  0.64116489677E+02  0.47000000000E+01 0.  1.
         13    1    6    6    0    0 -0.20279663115E+02  0.83405115314E+02 -0.55227644421E+02  0.10206748113E+03  0.00000000000E+00 0. -1.
        -14    1    6    6    0    0 -0.12287270102E+01  0.77688305228E+01 -0.42019204437E+02  0.42749012144E+02  0.00000000000E+00 0.  1.
</event>
<event>
12    1  0.2689284E-002  0.2564531E+03  0.7818608E-02  0.1109293E+00
          2   -1    0    0  502    0  0.00000000000E+00  0.00000000000E+00  0.57028594216E+03  0.57028594216E+03  0.00000000000E+00 0. -1.
         -2   -1    0    0    0  501 -0.00000000000E+00 -0.00000000000E+00 -0.12649539482E+03  0.12649539482E+03  0.00000000000E+00 0.  1.
          6    2    1    2  502    0  0.14128556449E+03  0.12699544023E+03  0.32533360420E+03  0.41418717093E+03  0.17210347460E+03 0.  0.
         24    2    3    3    0    0  0.68319369164E+02 -0.58791131888E+01  0.13577026817E+03  0.17141966698E+03  0.79050846510E+02 0.  0.
         -6    2    1    2    0  501 -0.14128556449E+03 -0.12699544023E+03  0.11845694314E+03  0.28259416604E+03  0.17244698527E+03 0.  0.
        -24    2    5    5    0    0 -0.12761585034E+03 -0.90304395151E+02  0.15109907462E+03  0.23140146518E+03  0.79215015571E+02 0.  0.
          5    1    3    3  502    0  0.72966195331E+02  0.13287455342E+03  0.18956333602E+03  0.24276750395E+03  0.47000000000E+01 0. -1.
        -13    1    4    4    0    0  0.15698474712E+02 -0.50283570926E+01 -0.79977824832E+01  0.18321872393E+02  0.00000000000E+00 0.  1.
         14    1    4    4    0    0  0.52620894452E+02 -0.85075609622E+00  0.14376805066E+03  0.15309779459E+03  0.00000000000E+00 0. -1.
         -5    1    5    5    0  501 -0.13669714150E+02 -0.36691045083E+02 -0.32642131480E+02  0.51192700864E+02  0.47000000000E+01 0.  1.
         11    1    6    6    0    0  0.72444278897E+01 -0.82188976433E+01  0.31461207572E+02  0.33314255144E+02  0.00000000000E+00 0. -1.
        -12    1    6    6    0    0 -0.13486027823E+03 -0.82085497507E+02  0.11963786705E+03  0.19808721003E+03  0.00000000000E+00 0.  1.
</event>
<event>
12    1  0.2689284E-002  0.2024548E+03  0.7818608E-02  0.1147684E+00
          4   -1    0    0  502    0  0.00000000000E+00  0.00000000000E+00  0.49241527106E+03  0.49241527106E+03  0.00000000000E+00 0. -1.
         -4   -1    0    0    0  501 -0.00000000000E+00 -0.00000000000E+00 -0.92332448425E+02  0.92332448425E+02  0.00000000000E+00 0.  1.
          6    2    1    2  502    0 -0.54904109901E+02 -0.88350872447E+02  0.29212154670E+03  0.35562778233E+03  0.17411428307E+03 0.  0.
         24    2    3    3    0    0  0.38623074207E+02 -0.41671764071E+02  0.12870148672E+03  0.16158016104E+03  0.79471994902E+02 0.  0.
         -6    2    1    2    0  501  0.54904109901E+02  0.88350872447E+02  0.10796127594E+03  0.22911993716E+03  0.17326272120E+03 0.  0.
        -24    2    5    5    0    0  0.48317275479E+02  0.90861088450E+02  0.14261776562E+03  0.19344291585E+03  0.80560772836E+02 0.  0.
          5    1    3    3  502    0 -0.93527184107E+02 -0.46679108376E+02  0.16342005998E+03  0.19404762129E+03  0.47000000000E+01 0. -1.
        -11    1    4    4    0    0  0.38310007734E+02  0.12863510286E+02  0.36489374909E+02  0.54448150297E+02  0.00000000000E+00 0.  1.
         12    1    4    4    0    0  0.31306647236E+00 -0.54535274357E+02  0.92212111815E+02  0.10713201074E+03  0.00000000000E+00 0. -1.
         -5    1    5    5    0  501  0.65868344214E+01 -0.25102160028E+01 -0.34656489683E+02  0.35677021306E+02  0.47000000000E+01 0.  1.
         11    1    6    6    0    0  0.68299308391E+02  0.82374323539E+02  0.10445047470E+03  0.14953336206E+03  0.00000000000E+00 0. -1.
        -12    1    6    6    0    0 -0.19982032912E+02  0.84867649111E+01  0.38167290918E+02  0.43909553789E+02  0.00000000000E+00 0.  1.
</event>
<event>
12    1  0.2689284E-002  0.2050403E+03  0.7818608E-02  0.1145555E+00
         -2   -1    0    0    0  501 -0.00000000000E+00  0.00000000000E+00  0.98712425154E+02  0.98712425154E+02  0.00000000000E+00 0.  1.
          2   -1    0    0  502    0  0.00000000000E+00 -0.00000000000E+00 -0.42681152147E+03  0.42681152147E+03  0.00000000000E+00 0. -1.
          6    2    1    2  502    0  0.10941093119E+03  0.21142960764E+02 -0.15267535622E+03  0.25636589162E+03  0.17319332936E+03 0.  0.
         24    2    3    3    0    0  0.69362191811E+02  0.54985972991E+02 -0.30593244843E+02  0.12341709350E+03  0.80381972234E+02 0.  0.
         -6    2    1    2    0  501 -0.10941093119E+03 -0.21142960764E+02 -0.17542374010E+03  0.26915805501E+03  0.17104032662E+03 0.  0.
        -24    2    5    5    0    0 -0.34749822037E+01 -0.40842448244E+02 -0.11540033201E+03  0.14572631431E+03  0.78985701068E+02 0.  0.
          5    1    3    3  502    0  0.40048739377E+02 -0.33843012227E+02 -0.12208211137E+03  0.13294879811E+03  0.47000000000E+01 0. -1.
        -11    1    4    4    0    0 -0.10977960313E+02  0.26962838407E+02 -0.24608943063E+02  0.38119684498E+02  0.00000000000E+00 0.  1.
         12    1    4    4    0    0  0.80340152124E+02  0.28023134584E+02 -0.59843017802E+01  0.85297409005E+02  0.00000000000E+00 0. -1.
         -5    1    5    5    0  501 -0.10593594898E+03  0.19699487481E+02 -0.60023408093E+02  0.12343174070E+03  0.47000000000E+01 0.  1.
         13    1    6    6    0    0  0.13843151197E+02  0.40975311972E+01 -0.90242490498E+02  0.91389986806E+02  0.00000000000E+00 0. -1.
        -14    1    6    6    0    0 -0.17318133401E+02 -0.44939979442E+02 -0.25157841512E+02  0.54336327501E+02  0.00000000000E+00 0.  1.
</event>
<event>
12    1  0.2689284E-002  0.3562313E+03  0.7818608E-02  0.1060086E+00
          1   -1    0    0  502    0  0.00000000000E+00  0.00000000000E+00  0.70537012189E+03  0.70537012189E+03  0.00000000000E+00 0.  1.
         -1   -1    0    0    0  501 -0.00000000000E+00 -0.00000000000E+00 -0.32673834770E+03  0.32673834770E+03  0.00000000000E+00 0. -1.
          6    2    1    2  502    0  0.24159373952E+03 -0.18816568539E+03 -0.15798402014E+03  0.38531372842E+03  0.17243508506E+03 0.  0.
         24    2    3    3    0    0  0.10540639270E+03 -0.26474545261E+02 -0.55529539843E+02  0.15034558428E+03  0.87800089688E+02 0.  0.
         -6    2    1    2    0  501 -0.24159373952E+03  0.18816568539E+03  0.53661579433E+03  0.64679474117E+03  0.19134541110E+03 0.  0.
        -24    2    5    5    0    0 -0.21124493453E+03  0.12047068930E+03  0.28022687827E+03  0.37984712695E+03  0.81358018678E+02 0.  0.
          5    1    3    3  502    0  0.13618734682E+03 -0.16169114013E+03 -0.10245448030E+03  0.23496814414E+03  0.47000000000E+01 0. -1.
        -13    1    4    4    0    0  0.10874888122E+03 -0.37586360024E+02 -0.25083755906E+02  0.11776352762E+03  0.00000000000E+00 0.  1.
         14    1    4    4    0    0 -0.33424885222E+01  0.11111814764E+02 -0.30445783938E+02  0.32582056664E+02  0.00000000000E+00 0. -1.
         -5    1    5    5    0  501 -0.30348804993E+02  0.67694996087E+02  0.25638891606E+03  0.26694761422E+03  0.47000000000E+01 0.  1.
         11    1    6    6    0    0 -0.34992530271E+02  0.12788635422E+02  0.79512826896E+01  0.38095265679E+02  0.00000000000E+00 0. -1.
        -12    1    6    6    0    0 -0.17625240425E+03  0.10768205388E+03  0.27227559558E+03  0.34175186127E+03  0.00000000000E+00 0.  1.
</event>
<event>
12    1  0.2689284E-002  0.3873398E+03  0.7818608E-02  0.1048254E+00
          2   -1    0    0  502    0  0.00000000000E+00  0.00000000000E+00  0.70389889503E+03  0.70389889503E+03  0.00000000000E+00 0.  1.
         -2   -1    0    0    0  501 -0.00000000000E+00 -0.00000000000E+00 -0.23642795155E+03  0.23642795155E+03  0.00000000000E+00 0. -1.
          6    2    1    2  502    0 -0.31941198778E+03 -0.13587329073E+03  0.38112738437E+03  0.54320640186E+03  0.17125870148E+03 0.  0.
         24    2    3    3    0    0 -0.29344336134E+03 -0.64641827801E+02  0.27709349873E+03  0.41439091276E+03  0.68201534637E+02 0.  0.
         -6    2    1    2    0  501  0.31941198778E+03  0.13587329073E+03  0.86343559105E+02  0.39712044472E+03  0.17252208074E+03 0.  0.
        -24    2    5    5    0    0  0.16652637545E+03  0.44234206703E+02  0.10423970936E+03  0.21791638681E+03  0.83270258006E+02 0.  0.
          5    1    3    3  502    0 -0.25968626446E+02 -0.71231462929E+02  0.10403388565E+03  0.12881548911E+03  0.47000000000E+01 0. -1.
        -11    1    4    4    0    0 -0.12869372807E+03 -0.24013741968E+02  0.16667857942E+03  0.21194453115E+03  0.00000000000E+00 0.  1.
         12    1    4    4    0    0 -0.16474963327E+03 -0.40628085832E+02  0.11041491930E+03  0.20244638160E+03  0.00000000000E+00 0. -1.
         -5    1    5    5    0  501  0.15288561233E+03  0.91639084027E+02 -0.17896150253E+02  0.17920405792E+03  0.47000000000E+01 0.  1.
         13    1    6    6    0    0  0.11750546018E+02 -0.75839853357E+01 -0.11267712053E+02  0.17959774503E+02  0.00000000000E+00 0. -1.
        -14    1    6    6    0    0  0.15477582943E+03  0.51818192038E+02  0.11550742141E+03  0.19995661230E+03  0.00000000000E+00 0.  1.
</event>
<event>
12    1  0.2689284E-002  0.3020331E+03  0.7818608E-02  0.1084229E+00
         -2   -1    0    0    0  501 -0.00000000000E+00  0.00000000000E+00  0.71330026166E+02  0.71330026166E+02  0.00000000000E+00 0. -1.
          2   -1    0    0  502    0  0.00000000000E+00 -0.00000000000E+00 -0.32048471413E+04  0.32048471413E+04  0.00000000000E+00 0.  1.
          6    2    1    2  502    0 -0.24000276582E+03  0.63290044793E+02 -0.29677348622E+03  0.42339345891E+03  0.17199000423E+03 0.  0.
         24    2    3    3    0    0 -0.19504663603E+03 -0.11805949839E+02 -0.23328570450E+03  0.31516568778E+03  0.82003781341E+02 0.  0.
         -6    2    1    2    0  501  0.24000276582E+03 -0.63290044793E+02 -0.28367436289E+04  0.28527837086E+04  0.17220195773E+03 0.  0.
        -24    2    5    5    0    0  0.85026819696E+02 -0.68013289547E+02 -0.94046406867E+03  0.95017021299E+03  0.80594054166E+02 0.  0.
          5    1    3    3  502    0 -0.44956129792E+02  0.75095994632E+02 -0.63487781727E+02  0.10822777113E+03  0.47000000000E+01 0. -1.
        -13    1    4    4    0    0 -0.25224566025E+02 -0.29617206640E+02 -0.62796479994E+02  0.73870532420E+02  0.00000000000E+00 0.  1.
         14    1    4    4    0    0 -0.16982207001E+03  0.17811256801E+02 -0.17048922450E+03  0.24129515536E+03  0.00000000000E+00 0. -1.
         -5    1    5    5    0  501  0.15497594613E+03  0.47232447547E+01 -0.18962795603E+04  0.19026134956E+04  0.47000000000E+01 0.  1.
         13    1    6    6    0    0  0.41279584722E+02 -0.11829230915E+02 -0.13736206027E+03  0.14391758204E+03  0.00000000000E+00 0. -1.
        -14    1    6    6    0    0  0.43747234974E+02 -0.56184058632E+02 -0.80310200840E+03  0.80625263095E+03  0.00000000000E+00 0.  1.
</event>
<event>
12    1  0.2689284E-002  0.1850280E+03  0.7818608E-02  0.1163024E+00
         -2   -1    0    0    0  501 -0.00000000000E+00  0.00000000000E+00  0.17038348801E+03  0.17038348801E+03  0.00000000000E+00 0.  1.
          2   -1    0    0  502    0  0.00000000000E+00 -0.00000000000E+00 -0.20113049087E+03  0.20113049087E+03  0.00000000000E+00 0. -1.
          6    2    1    2  502    0 -0.60516770304E+02 -0.30708952348E+02 -0.95298923221E+01  0.18529910242E+03  0.17216160799E+03 0.  0.
         24    2    3    3    0    0 -0.18805041742E+02 -0.81567944351E+02 -0.25518150685E+02  0.11744470114E+03  0.78327023889E+02 0.  0.
         -6    2    1    2    0  501  0.60516770304E+02  0.30708952348E+02 -0.21217110541E+02  0.18621487646E+03  0.17210605798E+03 0.  0.
        -24    2    5    5    0    0  0.77727717485E+02  0.60241852897E+02 -0.54688760361E+02  0.13814357255E+03  0.80138051025E+02 0.  0.
          5    1    3    3  502    0 -0.41711728561E+02  0.50858992002E+02  0.15988258363E+02  0.67854401276E+02  0.47000000000E+01 0. -1.
        -11    1    4    4    0    0  0.38161596194E+01 -0.55072607714E+02  0.21227109845E+02  0.59145121413E+02  0.00000000000E+00 0.  1.
         12    1    4    4    0    0 -0.22621201362E+02 -0.26495336637E+02 -0.46745260529E+02  0.58299579729E+02  0.00000000000E+00 0. -1.
         -5    1    5    5    0  501 -0.17210947181E+02 -0.29532900548E+02  0.33471649820E+02  0.48071303907E+02  0.47000000000E+01 0.  1.
         11    1    6    6    0    0  0.25321842598E+02 -0.17843047954E+02 -0.37778375643E+01  0.31206443718E+02  0.00000000000E+00 0. -1.
        -12    1    6    6    0    0  0.52405874887E+02  0.78084900851E+02 -0.50910922797E+02  0.10693712884E+03  0.00000000000E+00 0.  1.
</event>
<event>
12    1  0.2689284E-002  0.2420308E+03  0.7818608E-02  0.1118447E+00
         -1   -1    0    0    0  501 -0.00000000000E+00  0.00000000000E+00  0.23182108188E+03  0.23182108188E+03  0.00000000000E+00 0. -1.
          1   -1    0    0  502    0  0.00000000000E+00 -0.00000000000E+00 -0.30016205136E+03  0.30016205136E+03  0.00000000000E+00 0.  1.
          6    2    1    2  502    0  0.13746228617E+03 -0.99643456473E+02 -0.13998360696E+03  0.27983311436E+03  0.17287701738E+03 0.  0.
         24    2    3    3    0    0  0.12816789148E+03 -0.12013408692E+02 -0.10452026933E+03  0.18472712421E+03  0.81414331201E+02 0.  0.
         -6    2    1    2    0  501 -0.13746228617E+03  0.99643456473E+02  0.71642637479E+02  0.25215001888E+03  0.17211120236E+03 0.  0.
        -24    2    5    5    0    0 -0.16645989072E+02  0.66188808197E+02  0.63894223445E+02  0.12646024580E+03  0.85156765412E+02 0.  0.
          5    1    3    3  502    0  0.92943946973E+01 -0.87630047781E+02 -0.35463337630E+02  0.95105990151E+02  0.47000000000E+01 0. -1.
        -11    1    4    4    0    0  0.16425457039E+02 -0.33449212614E+02 -0.36516881687E+02  0.52174017591E+02  0.00000000000E+00 0.  1.
         12    1    4    4    0    0  0.11174243444E+03  0.21435803922E+02 -0.68003387642E+02  0.13255310662E+03  0.00000000000E+00 0. -1.
         -5    1    5    5    0  501 -0.12081629710E+03  0.33454648276E+02  0.77484140338E+01  0.12568977308E+03  0.47000000000E+01 0.  1.
         11    1    6    6    0    0 -0.27964398538E+02  0.83440221250E+02  0.56321534804E+02  0.10448154569E+03  0.00000000000E+00 0. -1.
        -12    1    6    6    0    0  0.11318409466E+02 -0.17251413053E+02  0.75726886418E+01  0.21978700108E+02  0.00000000000E+00 0.  1.
</event>
<event>
12    1  0.2689284E-002  0.2179801E+03  0.7818608E-02  0.1135398E+00
         -2   -1    0    0    0  501 -0.00000000000E+00  0.00000000000E+00  0.26764316548E+02  0.26764316548E+02  0.00000000000E+00 0.  1.
          2   -1    0    0  502    0  0.00000000000E+00 -0.00000000000E+00 -0.17780000722E+04  0.17780000722E+04  0.00000000000E+00 0. -1.
          6    2    1    2  502    0 -0.12093669181E+03 -0.53125816756E+02 -0.91742241364E+03  0.94341141297E+03  0.17582142428E+03 0.  0.
         24    2    3    3    0    0 -0.38612516639E+02  0.25127746624E+02 -0.25255925744E+03  0.26889974037E+03  0.79991010498E+02 0.  0.
         -6    2    1    2    0  501  0.12093669181E+03  0.53125816756E+02 -0.83381334201E+03  0.86135297578E+03  0.17098603374E+03 0.  0.
        -24    2    5    5    0    0  0.97320714721E+02 -0.24670741535E+02 -0.39948896505E+03  0.41945957995E+03  0.79214512630E+02 0.  0.
          5    1    3    3  502    0 -0.82324175175E+02 -0.78253563380E+02 -0.66486315620E+03  0.67451167260E+03  0.47000000000E+01 0. -1.
        -13    1    4    4    0    0 -0.34016592516E+02  0.31161681934E+02 -0.57616520968E+02  0.73809501256E+02  0.00000000000E+00 0.  1.
         14    1    4    4    0    0 -0.45959241231E+01 -0.60339353101E+01 -0.19494273647E+03  0.19509023911E+03  0.00000000000E+00 0. -1.
         -5    1    5    5    0  501  0.23615977093E+02  0.77796558292E+02 -0.43432437696E+03  0.44189339583E+03  0.47000000000E+01 0.  1.
         11    1    6    6    0    0  0.81638340530E+02  0.44468043906E+01 -0.35338907091E+03  0.36272362503E+03  0.00000000000E+00 0. -1.
        -12    1    6    6    0    0  0.15682374191E+02 -0.29117545926E+02 -0.46099894138E+02  0.56735954919E+02  0.00000000000E+00 0.  1.
</event>
<event>
12    1  0.2689284E-002  0.2311742E+03  0.7818608E-02  0.1125816E+00
          2   -1    0    0  502    0  0.00000000000E+00  0.00000000000E+00  0.28040107617E+04  0.28040107617E+04  0.00000000000E+00 0. -1.
         -2   -1    0    0    0  501 -0.00000000000E+00 -0.00000000000E+00 -0.24705180053E+02  0.24705180053E+02  0.00000000000E+00 0.  1.
          6    2    1    2  502    0  0.14754057119E+03  0.46645866843E+02  0.20645182820E+04  0.20773900392E+04  0.17137555534E+03 0.  0.
         24    2    3    3    0    0  0.25813120115E+02 -0.13099461699E+02  0.11277599819E+04  0.11308567436E+04  0.78463270794E+02 0.  0.
         -6    2    1    2    0  501 -0.14754057119E+03 -0.46645866843E+02  0.71478729963E+03  0.75132590259E+03  0.17212109445E+03 0.  0.
        -24    2    5    5    0    0 -0.60309143749E+02 -0.83389427662E+02  0.46989328197E+03  0.48873385953E+03  0.86429737614E+02 0.  0.
          5    1    3    3  502    0  0.12172745108E+03  0.59745328542E+02  0.93675830016E+03  0.94653329553E+03  0.47000000000E+01 0. -1.
        -11    1    4    4    0    0  0.30787501782E+02 -0.30312045821E+02  0.32062477263E+03  0.32352269659E+03  0.00000000000E+00 0.  1.
         12    1    4    4    0    0 -0.49743816671E+01  0.17212584121E+02  0.80713520925E+03  0.80733404706E+03  0.00000000000E+00 0. -1.
         -5    1    5    5    0  501 -0.87231427443E+02  0.36743560819E+02  0.24489401766E+03  0.26259204306E+03  0.47000000000E+01 0.  1.
         11    1    6    6    0    0 -0.48109992114E+02 -0.67276278251E+00  0.12741338993E+03  0.13619543268E+03  0.00000000000E+00 0. -1.
        -12    1    6    6    0    0 -0.12199151635E+02 -0.82716664879E+02  0.34247989205E+03  0.35253842685E+03  0.00000000000E+00 0.  1.
</event>
<event>
12    1  0.2689284E-002  0.1813723E+03  0.7818608E-02  0.1166481E+00
          2   -1    0    0  502    0  0.00000000000E+00  0.00000000000E+00  0.58054523992E+02  0.58054523992E+02  0.00000000000E+00 0.  1.
         -2   -1    0    0    0  501 -0.00000000000E+00 -0.00000000000E+00 -0.56880533257E+03  0.56880533257E+03  0.00000000000E+00 0. -1.
          6    2    1    2  502    0 -0.25570905808E+02 -0.54216203325E+02 -0.23634869498E+03  0.29805744833E+03  0.17141840321E+03 0.  0.
         24    2    3    3    0    0  0.30627700228E+02 -0.14794503487E+02 -0.51867181252E+02  0.10116186015E+03  0.79916106654E+02 0.  0.
         -6    2    1    2    0  501  0.25570905808E+02  0.54216203325E+02 -0.27440211360E+03  0.32880240824E+03  0.17094220013E+03 0.  0.
        -24    2    5    5    0    0  0.68522330769E+02  0.63736837714E+01 -0.11216268841E+03  0.15422448102E+03  0.80428777289E+02 0.  0.
          5    1    3    3  502    0 -0.56198606036E+02 -0.39421699838E+02 -0.18448151373E+03  0.19689558818E+03  0.47000000000E+01 0. -1.
        -13    1    4    4    0    0 -0.16224240071E+02 -0.31003361528E+02 -0.10331107121E+02  0.36485149942E+02  0.00000000000E+00 0.  1.
         14    1    4    4    0    0  0.46851940299E+02  0.16208858042E+02 -0.41536074131E+02  0.64676710205E+02  0.00000000000E+00 0. -1.
         -5    1    5    5    0  501 -0.42951424961E+02  0.47842519554E+02 -0.16223942520E+03  0.17457792722E+03  0.47000000000E+01 0.  1.
         11    1    6    6    0    0  0.78447108850E+02  0.18857676125E+01 -0.11812024198E+03  0.14180936701E+03  0.00000000000E+00 0. -1.
        -12    1    6    6    0    0 -0.99247780804E+01  0.44879161589E+01  0.59575535700E+01  0.12415114012E+02  0.00000000000E+00 0.  1.
</event>
<event>
12    1  0.2689284E-002  0.2208078E+03  0.7818608E-02  0.1133282E+00
         -1   -1    0    0    0  501 -0.00000000000E+00  0.00000000000E+00  0.27988450766E+02  0.27988450766E+02  0.00000000000E+00 0.  1.
          1   -1    0    0  502    0  0.00000000000E+00 -0.00000000000E+00 -0.32611343156E+04  0.32611343156E+04  0.00000000000E+00 0. -1.
          6    2    1    2  502    0 -0.16236011114E+01 -0.13738705557E+03 -0.27354702893E+04  0.27442954016E+04  0.17170238304E+03 0.  0.
         24    2    3    3    0    0  0.20809775105E+02 -0.22336110422E+01 -0.95595581690E+03  0.95950870356E+03  0.79795943382E+02 0.  0.
         -6    2    1    2    0  501  0.16236011114E+01  0.13738705557E+03 -0.49767557556E+03  0.54482736482E+03  0.17400586147E+03 0.  0.
        -24    2    5    5    0    0 -0.50502992624E+02  0.25308096708E+02 -0.25360092877E+03  0.27119732626E+03  0.77739994061E+02 0.  0.
          5    1    3    3  502    0 -0.22433376217E+02 -0.13515344452E+03 -0.17795144724E+04  0.17847866980E+04  0.47000000000E+01 0. -1.
        -13    1    4    4    0    0 -0.61971660317E+01 -0.57883745649E+01 -0.97946983522E+01  0.12955549496E+02  0.00000000000E+00 0.  1.
         14    1    4    4    0    0  0.27006941137E+02  0.35547635227E+01 -0.94616111855E+03  0.94655315407E+03  0.00000000000E+00 0. -1.
         -5    1    5    5    0  501  0.52126593736E+02  0.11207895886E+03 -0.24407464679E+03  0.27363003856E+03  0.47000000000E+01 0.  1.
         11    1    6    6    0    0 -0.14138109948E+02  0.33098451364E+02 -0.21347309560E+03  0.21648592605E+03  0.00000000000E+00 0. -1.
        -12    1    6    6    0    0 -0.36364882676E+02 -0.77903546563E+01 -0.40127833171E+02  0.54711400208E+02  0.00000000000E+00 0.  1.
</event>
<event>
12    1  0.2689284E-002  0.2504243E+03  0.7818608E-02  0.1113037E+00
         -2   -1    0    0    0  501 -0.00000000000E+00  0.00000000000E+00  0.38579758834E+02  0.38579758834E+02  0.00000000000E+00 0.  1.
          2   -1    0    0  502    0  0.00000000000E+00 -0.00000000000E+00 -0.17884927333E+04  0.17884927333E+04  0.00000000000E+00 0. -1.
          6    2    1    2  502    0  0.10461976225E+03 -0.14963570589E+03 -0.60080394731E+03  0.65109989068E+03  0.17213234850E+03 0.  0.
         24    2    3    3    0    0  0.91699900952E+02 -0.26286160302E+02 -0.25153191283E+03  0.28043147108E+03  0.79206519575E+02 0.  0.
         -6    2    1    2    0  501 -0.10461976225E+03  0.14963570589E+03 -0.11491090271E+04  0.11759726014E+04  0.17065715326E+03 0.  0.
        -24    2    5    5    0    0 -0.11252896511E+03  0.10980349046E+03 -0.10881289865E+04  0.11025572336E+04  0.82995106150E+02 0.  0.
          5    1    3    3  502    0  0.12919861301E+02 -0.12334954559E+03 -0.34927203448E+03  0.37066841959E+03  0.47000000000E+01 0. -1.
        -11    1    4    4    0    0  0.58272920020E+02 -0.41292161511E+02 -0.22250543342E+03  0.23368663572E+03  0.00000000000E+00 0.  1.
         12    1    4    4    0    0  0.33426980932E+02  0.15006001209E+02 -0.29026479407E+02  0.46744835365E+02  0.00000000000E+00 0. -1.
         -5    1    5    5    0  501  0.79092028605E+01  0.39832215430E+02 -0.60980040649E+02  0.73415367829E+02  0.47000000000E+01 0.  1.
         11    1    6    6    0    0 -0.10484738302E+03  0.12148085756E+03 -0.92369717864E+03  0.93753242627E+03  0.00000000000E+00 0. -1.
        -12    1    6    6    0    0 -0.76815820892E+01 -0.11677367096E+02 -0.16443180785E+03  0.16502480735E+03  0.00000000000E+00 0.  1.
</event>
<event>
12    1  0.2689284E-002  0.2196432E+03  0.7818608E-02  0.1134149E+00
          2   -1    0    0  502    0  0.00000000000E+00  0.00000000000E+00  0.11181818307E+04  0.11181818307E+04  0.00000000000E+00 0. -1.
         -2   -1    0    0    0  501 -0.00000000000E+00 -0.00000000000E+00 -0.50475093194E+02  0.50475093194E+02  0.00000000000E+00 0.  1.
          6    2    1    2  502    0 -0.51607931954E+02  0.12578300537E+03  0.31270867548E+03  0.38256409103E+03  0.17344689373E+03 0.  0.
         24    2    3    3    0    0 -0.30661309322E+02  0.13927414175E+03  0.31712179827E+03  0.35682817423E+03  0.80141802676E+02 0.  0.
         -6    2    1    2    0  501  0.51607931954E+02 -0.12578300537E+03  0.75499806201E+03  0.78609283285E+03  0.17156667841E+03 0.  0.
        -24    2    5    5    0    0  0.76763219448E+02 -0.70892202159E+02  0.30878093940E+03  0.33578449484E+03  0.80543542605E+02 0.  0.
          5    1    3    3  502    0 -0.20946622632E+02 -0.13491136389E+02 -0.44131227881E+01  0.25735916799E+02  0.47000000000E+01 0. -1.
        -13    1    4    4    0    0  0.21770766781E+02  0.15767681191E+02  0.79760158970E+02  0.84168099749E+02  0.00000000000E+00 0.  1.
         14    1    4    4    0    0 -0.52432076104E+02  0.12350646056E+03  0.23736163930E+03  0.27266007448E+03  0.00000000000E+00 0. -1.
         -5    1    5    5    0  501 -0.25155287494E+02 -0.54890803207E+02  0.44621712262E+03  0.45030833801E+03  0.47000000000E+01 0.  1.
         13    1    6    6    0    0  0.18618128349E+02  0.32851944218E+01  0.14962667153E+03  0.15081633877E+03  0.00000000000E+00 0. -1.
        -14    1    6    6    0    0  0.58145091099E+02 -0.74177396581E+02  0.15915426787E+03  0.18496815608E+03  0.00000000000E+00 0.  1.
</event>
<event>
12    1  0.2689284E-002  0.2974746E+03  0.7818608E-02  0.1086510E+00
          2   -1    0    0  502    0  0.00000000000E+00  0.00000000000E+00  0.12741688244E+04  0.12741688244E+04  0.00000000000E+00 0. -1.
         -2   -1    0    0    0  501 -0.00000000000E+00 -0.00000000000E+00 -0.20248522814E+03  0.20248522814E+03  0.00000000000E+00 0.  1.
          6    2    1    2  502    0 -0.23990853691E+03 -0.14769560411E+02 -0.62627702154E+02  0.30398097358E+03  0.17523686035E+03 0.  0.
         24    2    3    3    0    0 -0.17815925871E+03  0.36781688255E+02 -0.91555604766E+02  0.21836895254E+03  0.78796932773E+02 0.  0.
         -6    2    1    2    0  501  0.23990853691E+03  0.14769560411E+02  0.11343112985E+04  0.11726730790E+04  0.17528771323E+03 0.  0.
        -24    2    5    5    0    0  0.15800312035E+03  0.58745478962E+02  0.53813395401E+03  0.56927280165E+03  0.77893214743E+02 0.  0.
          5    1    3    3  502    0 -0.61749278203E+02 -0.51551248666E+02  0.28927902612E+02  0.85612021043E+02  0.47000000000E+01 0. -1.
        -11    1    4    4    0    0 -0.80127988992E+02 -0.23076292309E+02 -0.39082087230E+02  0.92089192791E+02  0.00000000000E+00 0.  1.
         12    1    4    4    0    0 -0.98031269717E+02  0.59857980564E+02 -0.52473517536E+02  0.12627975975E+03  0.00000000000E+00 0. -1.
         -5    1    5    5    0  501  0.81905416563E+02 -0.43975918551E+02  0.59617734444E+03  0.60340027735E+03  0.47000000000E+01 0.  1.
         13    1    6    6    0    0  0.86495544788E+02 -0.83665493812E+01  0.22778587494E+03  0.24379885815E+03  0.00000000000E+00 0. -1.
        -14    1    6    6    0    0  0.71507575562E+02  0.67112028343E+02  0.31034807908E+03  0.32547394350E+03  0.00000000000E+00 0.  1.
</event>
<event>
12    1  0.2689284E-002  0.1813749E+03  0.7818608E-02  0.1166479E+00
         -1   -1    0    0    0  501 -0.00000000000E+00  0.00000000000E+00  0.11789108600E+03  0.11789108600E+03  0.00000000000E+00 0.  1.
          1   -1    0    0  502    0  0.00000000000E+00 -0.00000000000E+00 -0.30342208501E+03  0.30342208501E+03  0.00000000000E+00 0. -1.
          6    2    1    2  502    0 -0.55893561259E+02  0.12225001087E+02 -0.15228313488E+03  0.23651751721E+03  0.17168821142E+03 0.  0.
         24    2    3    3    0    0  0.33172115333E+02 -0.13741219480E+02 -0.70309256079E+02  0.11262746046E+03  0.80326477643E+02 0.  0.
         -6    2    1    2    0  501  0.55893561259E+02 -0.12225001087E+02 -0.33247864139E+02  0.18479565380E+03  0.17254121928E+03 0.  0.
        -24    2    5    5    0    0 -0.38531585235E+01 -0.60389379161E+02 -0.37873838015E+02  0.10776989529E+03  0.80735362624E+02 0.  0.
          5    1    3    3  502    0 -0.89065676593E+02  0.25966220567E+02 -0.81973878797E+02  0.12389005675E+03  0.47000000000E+01 0. -1.
        -11    1    4    4    0    0 -0.16517630541E+02  0.63736061344E+01  0.65867420081E+01  0.18890212919E+02  0.00000000000E+00 0.  1.
         12    1    4    4    0    0  0.49689745874E+02 -0.20114825614E+02 -0.76895998087E+02  0.93737247540E+02  0.00000000000E+00 0. -1.
         -5    1    5    5    0  501  0.59746719783E+02  0.48164378074E+02  0.46259738765E+01  0.77025758512E+02  0.47000000000E+01 0.  1.
         11    1    6    6    0    0 -0.18367202599E+02 -0.47254286096E+02 -0.59785564910E+02  0.78387725170E+02  0.00000000000E+00 0. -1.
        -12    1    6    6    0    0  0.14514044075E+02 -0.13135093066E+02  0.21911726895E+02  0.29382170117E+02  0.00000000000E+00 0.  1.
</event>
<event>
12    1  0.2689284E-002  0.2244449E+03  0.7818608E-02  0.1130612E+00
         -2   -1    0    0    0  501 -0.00000000000E+00  0.00000000000E+00  0.12234040685E+03  0.12234040685E+03  0.00000000000E+00 0.  1.
          2   -1    0    0  502    0  0.00000000000E+00 -0.00000000000E+00 -0.52008951775E+03  0.52008951775E+03  0.00000000000E+00 0. -1.
          6    2    1    2  502    0  0.14043568960E+03  0.31386739249E+02 -0.53809390243E+02  0.23289409040E+03  0.17503398685E+03 0.  0.
         24    2    3    3    0    0  0.11738590618E+03 -0.12964871999E+02 -0.91665143692E+02  0.17001717886E+03  0.80967917494E+02 0.  0.
         -6    2    1    2    0  501 -0.14043568960E+03 -0.31386739249E+02 -0.34393972065E+03  0.40953583420E+03  0.16946314566E+03 0.  0.
        -24    2    5    5    0    0 -0.96837750249E+02 -0.35163587594E+02 -0.11145988253E+03  0.17292643026E+03  0.82862639969E+02 0.  0.
          5    1    3    3  502    0  0.23049783422E+02  0.44351611248E+02  0.37855753449E+02  0.62876911544E+02  0.47000000000E+01 0. -1.
        -11    1    4    4    0    0  0.13060177148E+02 -0.13144034054E+02  0.12689391614E+02  0.22457838673E+02  0.00000000000E+00 0.  1.
         12    1    4    4    0    0  0.10432572903E+03  0.17916205521E+00 -0.10435453531E+03  0.14755934018E+03  0.00000000000E+00 0. -1.
         -5    1    5    5    0  501 -0.43597939351E+02  0.37768483448E+01 -0.23247983812E+03  0.23660940394E+03  0.47000000000E+01 0.  1.
         13    1    6    6    0    0 -0.85896121424E+02  0.59369547837E+01 -0.92465342043E+02  0.12634567894E+03  0.00000000000E+00 0. -1.
        -14    1    6    6    0    0 -0.10941628825E+02 -0.41100542377E+02 -0.18994540487E+02  0.46580751318E+02  0.00000000000E+00 0.  1.
</event>
<event>
12    1  0.2689284E-002  0.2245102E+03  0.7818608E-02  0.1130565E+00
          2   -1    0    0  502    0  0.00000000000E+00  0.00000000000E+00  0.23143275915E+03  0.23143275915E+03  0.00000000000E+00 0.  1.
         -2   -1    0    0    0  501 -0.00000000000E+00 -0.00000000000E+00 -0.33257000126E+03  0.33257000126E+03  0.00000000000E+00 0. -1.
          6    2    1    2  502    0  0.11104197014E+03  0.91920965773E+02  0.11509283274E+03  0.25232055320E+03  0.17216131488E+03 0.  0.
         24    2    3    3    0    0  0.22973097596E+02 -0.10072897716E+02  0.19656669502E+02  0.87126649703E+02  0.81089098841E+02 0.  0.
         -6    2    1    2    0  501 -0.11104197014E+03 -0.91920965773E+02 -0.21623007485E+03  0.31168220721E+03  0.17207722087E+03 0.  0.
        -24    2    5    5    0    0 -0.96776769580E+02 -0.89889219495E+01 -0.18088491556E+03  0.22028970137E+03  0.79759989980E+02 0.  0.
          5    1    3    3  502    0  0.88068872541E+02  0.10199386349E+03  0.95436163238E+02  0.16519390350E+03  0.47000000000E+01 0. -1.
        -13    1    4    4    0    0 -0.50478117907E+01  0.26364483447E+01  0.46164412904E+02  0.46514344911E+02  0.00000000000E+00 0.  1.
         14    1    4    4    0    0  0.28020909387E+02 -0.12709346061E+02 -0.26507743402E+02  0.40612304791E+02  0.00000000000E+00 0. -1.
         -5    1    5    5    0  501 -0.14265200557E+02 -0.82932043823E+02 -0.35345159283E+02  0.91392505844E+02  0.47000000000E+01 0.  1.
         13    1    6    6    0    0 -0.77406188497E+02  0.39436016126E+01 -0.62305842369E+02  0.99444899340E+02  0.00000000000E+00 0. -1.
        -14    1    6    6    0    0 -0.19370581082E+02 -0.12932523562E+02 -0.11857907320E+03  0.12084480203E+03  0.00000000000E+00 0.  1.
</event>
<event>
12    1  0.2689284E-002  0.2112074E+03  0.7818608E-02  0.1140613E+00
          2   -1    0    0  502    0  0.00000000000E+00  0.00000000000E+00  0.13198595548E+03  0.13198595548E+03  0.00000000000E+00 0.  1.
         -2   -1    0    0    0  501 -0.00000000000E+00 -0.00000000000E+00 -0.34332720186E+03  0.34332720186E+03  0.00000000000E+00 0. -1.
          6    2    1    2  502    0  0.81358142047E+02 -0.90929909194E+02 -0.76099371780E+02  0.22466812024E+03  0.17261881185E+03 0.  0.
         24    2    3    3    0    0  0.11890608508E+03 -0.61034513088E+02 -0.34392479864E+02  0.16090968889E+03  0.82735823264E+02 0.  0.
         -6    2    1    2    0  501 -0.81358142047E+02  0.90929909194E+02 -0.13524187460E+03  0.25064503710E+03  0.17217774048E+03 0.  0.
        -24    2    5    5    0    0 -0.16911415554E+02  0.74377537551E+01 -0.10982089788E+03  0.14205113013E+03  0.88184906878E+02 0.  0.
          5    1    3    3  502    0 -0.37547943035E+02 -0.29895396106E+02 -0.41706891916E+02  0.63758431347E+02  0.47000000000E+01 0. -1.
        -11    1    4    4    0    0 -0.86181033050E+01  0.79094523380E+01  0.82118828947E+00  0.11726273537E+02  0.00000000000E+00 0.  1.
         12    1    4    4    0    0  0.12752418839E+03 -0.68943965426E+02 -0.35213668153E+02  0.14918341536E+03  0.00000000000E+00 0. -1.
         -5    1    5    5    0  501 -0.64446726493E+02  0.83492155439E+02 -0.25420976714E+02  0.10859390698E+03  0.47000000000E+01 0.  1.
         13    1    6    6    0    0  0.15350728981E+02  0.21481515785E+02  0.34253416144E+00  0.26404880805E+02  0.00000000000E+00 0. -1.
        -14    1    6    6    0    0 -0.32262144535E+02 -0.14043762030E+02 -0.11016343204E+03  0.11564624932E+03  0.00000000000E+00 0.  1.
</event>
<event>
12    1  0.2689284E-002  0.1859060E+03  0.7818608E-02  0.1162207E+00
         -1   -1    0    0    0  501 -0.00000000000E+00  0.00000000000E+00  0.17265147917E+03  0.17265147917E+03  0.00000000000E+00 0. -1.
          1   -1    0    0  502    0  0.00000000000E+00 -0.00000000000E+00 -0.23062195826E+03  0.23062195826E+03  0.00000000000E+00 0.  1.
          6    2    1    2  502    0  0.59151291383E+02  0.28635855266E+02 -0.10238290853E+03  0.21318526513E+03  0.17506230271E+03 0.  0.
         24    2    3    3    0    0 -0.23256793781E+02  0.99340000836E+01 -0.94879038835E+02  0.12821909570E+03  0.82453269656E+02 0.  0.
         -6    2    1    2    0  501 -0.59151291383E+02 -0.28635855266E+02  0.44412429441E+02  0.19008817230E+03  0.17274884046E+03 0.  0.
        -24    2    5    5    0    0 -0.72629372638E+02 -0.32299102724E+02  0.87856552943E+02  0.14421268949E+03  0.82220849594E+02 0.  0.
          5    1    3    3  502    0  0.82408085164E+02  0.18701855183E+02 -0.75038696993E+01  0.84966169433E+02  0.47000000000E+01 0. -1.
        -13    1    4    4    0    0 -0.43426497766E+02 -0.57958057474E+01 -0.18297549694E+02  0.47478967947E+02  0.00000000000E+00 0.  1.
         14    1    4    4    0    0  0.20169703985E+02  0.15729805831E+02 -0.76581489140E+02  0.80740127751E+02  0.00000000000E+00 0. -1.
         -5    1    5    5    0  501  0.13478081255E+02  0.36632474575E+01 -0.43444123502E+02  0.45875482810E+02  0.47000000000E+01 0.  1.
         11    1    6    6    0    0  0.71185027047E+01  0.11262957066E+02  0.38634940913E+02  0.40867908461E+02  0.00000000000E+00 0. -1.
        -12    1    6    6    0    0 -0.79747875343E+02 -0.43562059790E+02  0.49221612030E+02  0.10334478103E+03  0.00000000000E+00 0.  1.
</event>
<event>
12    1  0.2689284E-002  0.1836571E+03  0.7818608E-02  0.1164310E+00
          2   -1    0    0  502    0  0.00000000000E+00  0.00000000000E+00  0.64630109749E+03  0.64630109749E+03  0.00000000000E+00 0. -1.
         -2   -1    0    0    0  501 -0.00000000000E+00 -0.00000000000E+00 -0.72380375879E+02  0.72380375879E+02  0.00000000000E+00 0.  1.
          6    2    1    2  502    0 -0.62176391586E+02 -0.14501549161E+02  0.97047373962E+02  0.20762598619E+03  0.17208764845E+03 0.  0.
         24    2    3    3    0    0 -0.76577102784E+02  0.21633311751E+02  0.11871558651E+03  0.16285199719E+03  0.78072592236E+02 0.  0.
         -6    2    1    2    0  501  0.62176391586E+02  0.14501549161E+02  0.47687334764E+03  0.51105548717E+03  0.17231750543E+03 0.  0.
        -24    2    5    5    0    0 -0.27540645623E+02  0.38164717964E+02  0.22211231286E+03  0.23988327774E+03  0.77427866803E+02 0.  0.
          5    1    3    3  502    0  0.14400711198E+02 -0.36134860911E+02 -0.21668212553E+02  0.44773989004E+02  0.47000000000E+01 0. -1.
        -11    1    4    4    0    0 -0.13791637270E+02  0.91024591043E+01 -0.98424251887E+01  0.19233755585E+02  0.00000000000E+00 0.  1.
         12    1    4    4    0    0 -0.62785465514E+02  0.12530852646E+02  0.12855801170E+03  0.14361824160E+03  0.00000000000E+00 0. -1.
         -5    1    5    5    0  501  0.89717037209E+02 -0.23663168804E+02  0.25476103479E+03  0.27117220943E+03  0.47000000000E+01 0.  1.
         11    1    6    6    0    0  0.41823005832E+01 -0.96854908670E+01  0.13587376963E+03  0.13628272687E+03  0.00000000000E+00 0. -1.
        -12    1    6    6    0    0 -0.31722946206E+02  0.47850208832E+02  0.86238543230E+02  0.10360055087E+03  0.00000000000E+00 0.  1.
</event>
<event>
12    1  0.2689284E-002  0.1799496E+03  0.7818608E-02  0.1167852E+00
         -2   -1    0    0    0  501 -0.00000000000E+00  0.00000000000E+00  0.93481729475E+01  0.93481729475E+01  0.00000000000E+00 0. -1.
          2   -1    0    0  502    0  0.00000000000E+00 -0.00000000000E+00 -0.34962901909E+04  0.34962901909E+04  0.00000000000E+00 0.  1.
          6    2    1    2  502    0  0.18531273667E+02 -0.56265781383E+02 -0.15472991982E+04  0.15573669681E+04  0.16657676453E+03 0.  0.
         24    2    3    3    0    0  0.69447763669E+02 -0.16904308106E+02 -0.11225294896E+04  0.11277238489E+04  0.81116440740E+02 0.  0.
         -6    2    1    2    0  501 -0.18531273667E+02  0.56265781383E+02 -0.19396428198E+04  0.19482713957E+04  0.17331450260E+03 0.  0.
        -24    2    5    5    0    0 -0.41983650823E+02  0.98940739160E+02 -0.14029240910E+04  0.14093277532E+04  0.80354302757E+02 0.  0.
          5    1    3    3  502    0 -0.50916490003E+02 -0.39361473277E+02 -0.42476970859E+03  0.42964311919E+03  0.47000000000E+01 0. -1.
        -11    1    4    4    0    0  0.28563612981E+01 -0.23109595204E+02 -0.65723697623E+03  0.65764934054E+03  0.00000000000E+00 0.  1.
         12    1    4    4    0    0  0.66591402371E+02  0.62052870986E+01 -0.46529251336E+03  0.47007450840E+03  0.00000000000E+00 0. -1.
         -5    1    5    5    0  501  0.23452377156E+02 -0.42674957778E+02 -0.53671872875E+03  0.53894364252E+03  0.47000000000E+01 0.  1.
         11    1    6    6    0    0 -0.48773042109E+01  0.22802368763E+02 -0.71373070914E+02  0.75085626916E+02  0.00000000000E+00 0. -1.
        -12    1    6    6    0    0 -0.37106346612E+02  0.76138370397E+02 -0.13315510201E+04  0.13342421263E+04  0.00000000000E+00 0.  1.
</event>
<event>
12    1  0.2689284E-002  0.2685575E+03  0.7818608E-02  0.1102108E+00
         -3   -1    0    0    0  501 -0.00000000000E+00  0.00000000000E+00  0.97463939382E+02  0.97463939382E+02  0.00000000000E+00 0. -1.
          3   -1    0    0  502    0  0.00000000000E+00 -0.00000000000E+00 -0.75562162888E+03  0.75562162888E+03  0.00000000000E+00 0.  1.
          6    2    1    2  502    0 -0.18953738492E+03 -0.89764289077E+02 -0.38746875335E+03  0.47010600737E+03  0.16396821480E+03 0.  0.
         24    2    3    3    0    0 -0.10515125323E+03 -0.15786319748E+02 -0.29960488150E+03  0.32750197816E+03  0.78666808358E+02 0.  0.
         -6    2    1    2    0  501  0.18953738492E+03  0.89764289077E+02 -0.27068893615E+03  0.38297956089E+03  0.17151908358E+03 0.  0.
        -24    2    5    5    0    0  0.18858246661E+03  0.25749946152E+02 -0.20831650876E+03  0.29347449027E+03  0.80654213631E+02 0.  0.
          5    1    3    3  502    0 -0.84386131693E+02 -0.73977969330E+02 -0.87863871855E+02  0.14260402920E+03  0.47000000000E+01 0. -1.
        -13    1    4    4    0    0 -0.98208116601E+01 -0.32379101734E+02 -0.56633287333E+02  0.65971083096E+02  0.00000000000E+00 0.  1.
         14    1    4    4    0    0 -0.95330441571E+02  0.16592781987E+02 -0.24297159416E+03  0.26153089507E+03  0.00000000000E+00 0. -1.
         -5    1    5    5    0  501  0.95491830877E+00  0.64014342925E+02 -0.62372427383E+02  0.89505070620E+02  0.47000000000E+01 0.  1.
         11    1    6    6    0    0  0.97603146200E+01  0.17782617291E+02 -0.20799893647E+01  0.20391458382E+02  0.00000000000E+00 0. -1.
        -12    1    6    6    0    0  0.17882215199E+03  0.79673288615E+01 -0.20623651940E+03  0.27308303189E+03  0.00000000000E+00 0.  1.
</event>
<event>
12    1  0.2689284E-002  0.2119149E+03  0.7818608E-02  0.1140059E+00
         -1   -1    0    0    0  501 -0.00000000000E+00  0.00000000000E+00  0.10931977853E+04  0.10931977853E+04  0.00000000000E+00 0. -1.
          1   -1    0    0  502    0  0.00000000000E+00 -0.00000000000E+00 -0.46236037890E+02  0.46236037890E+02  0.00000000000E+00 0.  1.
          6    2    1    2  502    0  0.94933444867E+02 -0.79487226321E+02  0.33091022107E+03  0.39237971298E+03  0.17067421201E+03 0.  0.
         24    2    3    3    0    0  0.25738047797E+02 -0.70522549663E+02  0.90134177301E+02  0.14165364402E+03  0.79408487146E+02 0.  0.
         -6    2    1    2    0  501 -0.94933444867E+02  0.79487226321E+02  0.71605152629E+03  0.74705411016E+03  0.17329015293E+03 0.  0.
        -24    2    5    5    0    0  0.13993270663E+02  0.11898235052E+02  0.35945186030E+03  0.36808351383E+03  0.77087311935E+02 0.  0.
          5    1    3    3  502    0  0.69195397070E+02 -0.89646766583E+01  0.24077604377E+03  0.25072606896E+03  0.47000000000E+01 0. -1.
        -11    1    4    4    0    0  0.38457091301E+02 -0.74854106662E+01  0.13111618139E+02  0.41314570970E+02  0.00000000000E+00 0.  1.
         12    1    4    4    0    0 -0.12719043504E+02 -0.63037138996E+02  0.77022559162E+02  0.10033907305E+03  0.00000000000E+00 0. -1.
         -5    1    5    5    0  501 -0.10892671553E+03  0.67588991268E+02  0.35659966599E+03  0.37897059633E+03  0.47000000000E+01 0.  1.
         13    1    6    6    0    0 -0.28380099968E+01  0.37556624036E+02  0.10060401351E+03  0.10742309735E+03  0.00000000000E+00 0. -1.
        -14    1    6    6    0    0  0.16831280660E+02 -0.25658388984E+02  0.25884784679E+03  0.26066041648E+03  0.00000000000E+00 0.  1.
</event>
<event>
12    1  0.2689284E-002  0.1877018E+03  0.7818608E-02  0.1160551E+00
         -1   -1    0    0    0  501 -0.00000000000E+00  0.00000000000E+00  0.81884003389E+03  0.81884003389E+03  0.00000000000E+00 0.  1.
          1   -1    0    0  502    0  0.00000000000E+00 -0.00000000000E+00 -0.55595602046E+02  0.55595602046E+02  0.00000000000E+00 0. -1.
          6    2    1    2  502    0  0.41362111593E+02 -0.64791701719E+02  0.58874072855E+03  0.61779082541E+03  0.17070755587E+03 0.  0.
         24    2    3    3    0    0  0.24278619982E+02 -0.10180515538E+03  0.28450136470E+03  0.31079649004E+03  0.68554289846E+02 0.  0.
         -6    2    1    2    0  501 -0.41362111593E+02  0.64791701719E+02  0.17450370330E+03  0.25664481052E+03  0.17177376813E+03 0.  0.
        -24    2    5    5    0    0  0.32173250442E+02  0.26580786504E+02  0.13520824361E+03  0.16480937802E+03  0.84493820409E+02 0.  0.
          5    1    3    3  502    0  0.17083491611E+02  0.37013453660E+02  0.30423936384E+03  0.30699433537E+03  0.47000000000E+01 0. -1.
        -13    1    4    4    0    0  0.24966353105E+02 -0.57551107479E+02  0.23988188082E+03  0.24794911879E+03  0.00000000000E+00 0.  1.
         14    1    4    4    0    0 -0.68773312258E+00 -0.44254047900E+02  0.44619483878E+02  0.62847371257E+02  0.00000000000E+00 0. -1.
         -5    1    5    5    0  501 -0.73535362035E+02  0.38210915215E+02  0.39295459688E+02  0.91835432505E+02  0.47000000000E+01 0.  1.
         13    1    6    6    0    0 -0.26676626760E+02  0.27831040345E+01  0.20690805858E+02  0.33874732920E+02  0.00000000000E+00 0. -1.
        -14    1    6    6    0    0  0.58849877202E+02  0.23797682469E+02  0.11451743775E+03  0.13093464510E+03  0.00000000000E+00 0.  1.
</event>
<event>
12    1  0.2689284E-002  0.1961288E+03  0.7818608E-02  0.1153047E+00
         -2   -1    0    0    0  501 -0.00000000000E+00  0.00000000000E+00  0.15585240389E+02  0.15585240389E+02  0.00000000000E+00 0. -1.
          2   -1    0    0  502    0  0.00000000000E+00 -0.00000000000E+00 -0.24771093532E+04  0.24771093532E+04  0.00000000000E+00 0.  1.
          6    2    1    2  502    0  0.92736229789E+02 -0.15513351807E+02 -0.13098629888E+04  0.13245649852E+04  0.17288920784E+03 0.  0.
         24    2    3    3    0    0  0.32165084546E+02  0.25420077598E-01 -0.11441764741E+04  0.11474084775E+04  0.79823662102E+02 0.  0.
         -6    2    1    2    0  501 -0.92736229789E+02  0.15513351807E+02 -0.11516611240E+04  0.11681296084E+04  0.17135566825E+03 0.  0.
        -24    2    5    5    0    0 -0.78480367648E+01  0.58289425983E+02 -0.54853880765E+03  0.55754430205E+03  0.80632353173E+02 0.  0.
          5    1    3    3  502    0  0.60571145244E+02 -0.15538771884E+02 -0.16568651465E+03  0.17715650766E+03  0.47000000000E+01 0. -1.
        -11    1    4    4    0    0  0.16280169793E+02 -0.39438732396E+02 -0.65346745389E+03  0.65485889383E+03  0.00000000000E+00 0.  1.
         12    1    4    4    0    0  0.15884914753E+02  0.39464152474E+02 -0.49070902024E+03  0.49254958369E+03  0.00000000000E+00 0. -1.
         -5    1    5    5    0  501 -0.84888193024E+02 -0.42776074176E+02 -0.60312231639E+03  0.61058530638E+03  0.47000000000E+01 0.  1.
         13    1    6    6    0    0 -0.16393311348E+02  0.77104847027E+02 -0.41574897897E+03  0.42315613148E+03  0.00000000000E+00 0. -1.
        -14    1    6    6    0    0  0.85452745828E+01 -0.18815421044E+02 -0.13278982868E+03  0.13438817056E+03  0.00000000000E+00 0.  1.
</event>
<event>
12    1  0.2689284E-002  0.2910016E+03  0.7818608E-02  0.1089827E+00
         -1   -1    0    0    0  501 -0.00000000000E+00  0.00000000000E+00  0.57508055949E+02  0.57508055949E+02  0.00000000000E+00 0. -1.
          1   -1    0    0  502    0  0.00000000000E+00 -0.00000000000E+00 -0.15414954461E+04  0.15414954461E+04  0.00000000000E+00 0.  1.
          6    2    1    2  502    0 -0.23389296818E+03 -0.21122295276E+02 -0.91180753355E+03  0.95720529677E+03  0.17232797220E+03 0.  0.
         24    2    3    3    0    0 -0.12297194943E+03  0.33597370787E+02 -0.64900782296E+03  0.66671692842E+03  0.83960852313E+02 0.  0.
         -6    2    1    2    0  501  0.23389296818E+03  0.21122295276E+02 -0.57217985657E+03  0.64179820525E+03  0.17135657582E+03 0.  0.
        -24    2    5    5    0    0  0.22432756892E+03 -0.17494638123E+02 -0.40792340935E+03  0.47272711114E+03  0.80252683288E+02 0.  0.
          5    1    3    3  502    0 -0.11092101875E+03 -0.54719666063E+02 -0.26279971059E+03  0.29048836834E+03  0.47000000000E+01 0. -1.
        -11    1    4    4    0    0  0.42945053980E+00  0.11215179592E+02 -0.20581676487E+03  0.20612254943E+03  0.00000000000E+00 0.  1.
         12    1    4    4    0    0 -0.12340139997E+03  0.22382191195E+02 -0.44319105809E+03  0.46059437900E+03  0.00000000000E+00 0. -1.
         -5    1    5    5    0  501  0.95653992576E+01  0.38616933399E+02 -0.16425644722E+03  0.16907109410E+03  0.47000000000E+01 0.  1.
         13    1    6    6    0    0  0.66982342950E+02 -0.18028359368E+02 -0.63403830957E+02  0.93977134393E+02  0.00000000000E+00 0. -1.
        -14    1    6    6    0    0  0.15734522597E+03  0.53372124513E+00 -0.34451957839E+03  0.37874997675E+03  0.00000000000E+00 0.  1.
</event>
<event>
12    1  0.2689284E-002  0.1746806E+03  0.7818608E-02  0.1173053E+00
         -2   -1    0    0    0  501 -0.00000000000E+00  0.00000000000E+00  0.21799798128E+03  0.21799798128E+03  0.00000000000E+00 0.  1.
          2   -1    0    0  502    0  0.00000000000E+00 -0.00000000000E+00 -0.15204189488E+03  0.15204189488E+03  0.00000000000E+00 0. -1.
          6    2    1    2  502    0 -0.29263719258E+02 -0.46197170751E+01 -0.19138088132E+02  0.17582314156E+03  0.17224924859E+03 0.  0.
         24    2    3    3    0    0 -0.48360542004E+02  0.74713823573E+01 -0.72093408834E+02  0.11805429775E+03  0.79654215477E+02 0.  0.
         -6    2    1    2    0  501  0.29263719258E+02  0.46197170751E+01  0.85094174529E+02  0.19421673460E+03  0.17205061584E+03 0.  0.
        -24    2    5    5    0    0 -0.45844503868E+02 -0.11121243757E+02  0.43391721283E+02  0.10675126921E+03  0.85367390759E+02 0.  0.
          5    1    3    3  502    0  0.19096822746E+02 -0.12091099432E+02  0.52955320703E+02  0.57768843811E+02  0.47000000000E+01 0. -1.
        -11    1    4    4    0    0 -0.34699242878E+02 -0.16272494628E+01  0.85362969623E+01  0.35770850744E+02  0.00000000000E+00 0.  1.
         12    1    4    4    0    0 -0.13661299127E+02  0.90986318201E+01 -0.80629705797E+02  0.82283447009E+02  0.00000000000E+00 0. -1.
         -5    1    5    5    0  501  0.75108223126E+02  0.15740960832E+02  0.41702453246E+02  0.87465465389E+02  0.47000000000E+01 0.  1.
         11    1    6    6    0    0 -0.52717711474E+02 -0.40344238999E+02  0.22172598170E+02  0.69988847919E+02  0.00000000000E+00 0. -1.
        -12    1    6    6    0    0  0.68732076060E+01  0.29222995242E+02  0.21219123113E+02  0.36762421294E+02  0.00000000000E+00 0.  1.
</event>
<event>
12    1  0.2689284E-002  0.2385456E+03  0.7818608E-02  0.1120765E+00
          2   -1    0    0  502    0  0.00000000000E+00  0.00000000000E+00  0.23581476543E+04  0.23581476543E+04  0.00000000000E+00 0. -1.
         -2   -1    0    0    0  501 -0.00000000000E+00 -0.00000000000E+00 -0.24364105402E+02  0.24364105402E+02  0.00000000000E+00 0.  1.
          6    2    1    2  502    0  0.13466842810E+03  0.97090855022E+02  0.12849740362E+04  0.13069860307E+04  0.17173232429E+03 0.  0.
         24    2    3    3    0    0  0.68169621038E+02  0.17041868138E+02  0.34828002827E+03  0.36451709963E+03  0.81462969043E+02 0.  0.
         -6    2    1    2    0  501 -0.13466842810E+03 -0.97090855022E+02  0.10488095128E+04  0.10755257290E+04  0.17085660672E+03 0.  0.
        -24    2    5    5    0    0 -0.72480248644E+02  0.97529483679E+01  0.37407077607E+03  0.38953927085E+03  0.80395221153E+02 0.  0.
          5    1    3    3  502    0  0.66498807065E+02  0.80048986885E+02  0.93669400790E+03  0.94246893109E+03  0.47000000000E+01 0. -1.
        -13    1    4    4    0    0 -0.10004250743E+02  0.78718036113E+00  0.15593666955E+03  0.15625923844E+03  0.00000000000E+00 0.  1.
         14    1    4    4    0    0  0.78173871781E+02  0.16254687776E+02  0.19234335872E+03  0.20825786119E+03  0.00000000000E+00 0. -1.
         -5    1    5    5    0  501 -0.62188179459E+02 -0.10684380339E+03  0.67473873669E+03  0.68598645816E+03  0.47000000000E+01 0.  1.
         11    1    6    6    0    0  0.10334804017E+02  0.21564904571E+02  0.10853914538E+03  0.11114224833E+03  0.00000000000E+00 0. -1.
        -12    1    6    6    0    0 -0.82815052661E+02 -0.11811956203E+02  0.26553163069E+03  0.27839702253E+03  0.00000000000E+00 0.  1.
</event>
<event>
12    1  0.2689284E-002  0.2668104E+03  0.7818608E-02  0.1103119E+00
          2   -1    0    0  502    0  0.00000000000E+00  0.00000000000E+00  0.13385042268E+04  0.13385042268E+04  0.00000000000E+00 0. -1.
         -2   -1    0    0    0  501 -0.00000000000E+00 -0.00000000000E+00 -0.88919516550E+02  0.88919516550E+02  0.00000000000E+00 0.  1.
          6    2    1    2  502    0  0.13886156650E+03  0.14937887564E+03  0.17268369205E+03  0.31802134432E+03  0.17239876684E+03 0.  0.
         24    2    3    3    0    0  0.90507975459E+02  0.75521595125E+02  0.23751919607E+02  0.14482858901E+03  0.80721506164E+02 0.  0.
         -6    2    1    2    0  501 -0.13886156650E+03 -0.14937887564E+03  0.10769010182E+04  0.11094023990E+04  0.17164293409E+03 0.  0.
        -24    2    5    5    0    0 -0.85594260600E+02 -0.17074802150E+03  0.90735528041E+03  0.93034404687E+03  0.75928758510E+02 0.  0.
          5    1    3    3  502    0  0.48353591039E+02  0.73857280512E+02  0.14893177244E+03  0.17319275531E+03  0.47000000000E+01 0. -1.
        -11    1    4    4    0    0  0.13248808044E+02  0.13107183348E+02 -0.27378600260E+02  0.33119736142E+02  0.00000000000E+00 0.  1.
         12    1    4    4    0    0  0.77259167414E+02  0.62414411777E+02  0.51130519866E+02  0.11170885287E+03  0.00000000000E+00 0. -1.
         -5    1    5    5    0  501 -0.53267305898E+02  0.21369145862E+02  0.16954573777E+03  0.17905835214E+03  0.47000000000E+01 0.  1.
         11    1    6    6    0    0 -0.85849659753E+01 -0.10164706042E+03  0.46203694090E+03  0.47316377850E+03  0.00000000000E+00 0. -1.
        -12    1    6    6    0    0 -0.77009294625E+02 -0.69100961084E+02  0.44531833952E+03  0.45718026837E+03  0.00000000000E+00 0.  1.
</event>
<event>
12    1  0.2689284E-002  0.1921863E+03  0.7818608E-02  0.1156504E+00
         -1   -1    0    0    0  501 -0.00000000000E+00  0.00000000000E+00  0.23703230500E+02  0.23703230500E+02  0.00000000000E+00 0.  1.
          1   -1    0    0  502    0  0.00000000000E+00 -0.00000000000E+00 -0.16059224618E+04  0.16059224618E+04  0.00000000000E+00 0. -1.
          6    2    1    2  502    0 -0.63956890030E+02 -0.53145818343E+02 -0.64260417146E+03  0.67013129592E+03  0.17094113260E+03 0.  0.
         24    2    3    3    0    0  0.33556452374E+01  0.22540580162E+02 -0.23855759188E+03  0.25355580842E+03  0.82834082538E+02 0.  0.
         -6    2    1    2    0  501  0.63956890030E+02  0.53145818343E+02 -0.93961505988E+03  0.95949439641E+03  0.17560772820E+03 0.  0.
        -24    2    5    5    0    0  0.88139974962E+02  0.26963552775E+02 -0.88884099966E+03  0.89728163391E+03  0.81119168556E+02 0.  0.
          5    1    3    3  502    0 -0.67312535268E+02 -0.75686398505E+02 -0.40404657957E+03  0.41657548750E+03  0.47000000000E+01 0. -1.
        -11    1    4    4    0    0 -0.29536865992E+02 -0.15324587084E+02 -0.66869440912E+02  0.74691308396E+02  0.00000000000E+00 0.  1.
         12    1    4    4    0    0  0.32892511230E+02  0.37865167246E+02 -0.17168815097E+03  0.17886450002E+03  0.00000000000E+00 0. -1.
         -5    1    5    5    0  501 -0.24183084931E+02  0.26182265568E+02 -0.50774060213E+02  0.62212762498E+02  0.47000000000E+01 0.  1.
         11    1    6    6    0    0  0.24368515093E+02  0.30332121305E+02 -0.12844414434E+03  0.13420789964E+03  0.00000000000E+00 0. -1.
        -12    1    6    6    0    0  0.63771459868E+02 -0.33685685303E+01 -0.76039685533E+03  0.76307373427E+03  0.00000000000E+00 0.  1.
</event>
<event>
12    1  0.2689284E-002  0.1764491E+03  0.7818608E-02  0.1171285E+00
          2   -1    0    0  502    0  0.00000000000E+00  0.00000000000E+00  0.28624595186E+02  0.28624595186E+02  0.00000000000E+00 0. -1.
         -2   -1    0    0    0  501 -0.00000000000E+00 -0.00000000000E+00 -0.13296584488E+04  0.13296584488E+04  0.00000000000E+00 0.  1.
          6    2    1    2  502    0  0.31037300655E+02 -0.21386814584E+02 -0.36387722083E+03  0.40484655436E+03  0.17341681253E+03 0.  0.
         24    2    3    3    0    0 -0.28526977285E+01 -0.37258196595E+02 -0.35615366197E+03  0.36634751387E+03  0.77257743215E+02 0.  0.
         -6    2    1    2    0  501 -0.31037300655E+02  0.21386814584E+02 -0.93715663281E+03  0.95343648965E+03  0.17134140046E+03 0.  0.
        -24    2    5    5    0    0 -0.56723551728E+02  0.36772515710E+02 -0.35055252732E+03  0.36604993051E+03  0.80843663809E+02 0.  0.
          5    1    3    3  502    0  0.33889998383E+02  0.15871382011E+02 -0.77235588643E+01  0.38499040493E+02  0.47000000000E+01 0. -1.
        -13    1    4    4    0    0 -0.37959979853E+02 -0.30273497492E+02 -0.23749151861E+03  0.24240393176E+03  0.00000000000E+00 0.  1.
         14    1    4    4    0    0  0.35107282124E+02 -0.69846991024E+01 -0.11866214336E+03  0.12394358211E+03  0.00000000000E+00 0. -1.
         -5    1    5    5    0  501  0.25686251073E+02 -0.15385701126E+02 -0.58660410549E+03  0.58738655915E+03  0.47000000000E+01 0.  1.
         13    1    6    6    0    0 -0.11665708291E+02  0.44085470592E+02 -0.83658379084E+02  0.95280333008E+02  0.00000000000E+00 0. -1.
        -14    1    6    6    0    0 -0.45057843437E+02 -0.73129548823E+01 -0.26689414824E+03  0.27076959750E+03  0.00000000000E+00 0.  1.
</event>
<event>
12    1  0.2689284E-002  0.1782943E+03  0.7818608E-02  0.1169464E+00
          1   -1    0    0  502    0  0.00000000000E+00  0.00000000000E+00  0.29443463028E+03  0.29443463028E+03  0.00000000000E+00 0.  1.
         -1   -1    0    0    0  501 -0.00000000000E+00 -0.00000000000E+00 -0.12860565566E+03  0.12860565566E+03  0.00000000000E+00 0. -1.
          6    2    1    2  502    0 -0.44735325039E+02  0.12160628414E+02  0.16751780048E+03  0.24439632843E+03  0.17180867756E+03 0.  0.
         24    2    3    3    0    0 -0.45351134712E+02  0.67270168427E+02  0.14808147624E+03  0.18576782579E+03  0.77456830008E+02 0.  0.
         -6    2    1    2    0  501  0.44735325039E+02 -0.12160628414E+02 -0.16888258633E+01  0.17864395751E+03  0.17251574198E+03 0.  0.
        -24    2    5    5    0    0  0.89875121039E+02 -0.16678091731E+02 -0.30449930622E+02  0.12472457505E+03  0.79204325769E+02 0.  0.
          5    1    3    3  502    0  0.61580967341E+00 -0.55109540013E+02  0.19436324235E+02  0.58628502640E+02  0.47000000000E+01 0. -1.
        -11    1    4    4    0    0  0.32856695908E+01  0.52748266828E+02  0.11089583376E+03  0.12284568052E+03  0.00000000000E+00 0.  1.
         12    1    4    4    0    0 -0.48636804303E+02  0.14521901599E+02  0.37185642483E+02  0.62922145273E+02  0.00000000000E+00 0. -1.
         -5    1    5    5    0  501 -0.45139796000E+02  0.45174633165E+01  0.28761104758E+02  0.53919382458E+02  0.47000000000E+01 0.  1.
         11    1    6    6    0    0  0.71518313633E+02  0.10171994460E+02 -0.48992807813E+02  0.87284786037E+02  0.00000000000E+00 0. -1.
        -12    1    6    6    0    0  0.18356807406E+02 -0.26850086191E+02  0.18542877192E+02  0.37439789011E+02  0.00000000000E+00 0.  1.
</event>
<event>
12    1  0.2689284E-002  0.2036719E+03  0.7818608E-02  0.1146678E+00
         -2   -1    0    0    0  501 -0.00000000000E+00  0.00000000000E+00  0.52709491129E+02  0.52709491129E+02  0.00000000000E+00 0.  1.
          2   -1    0    0  502    0  0.00000000000E+00 -0.00000000000E+00 -0.16487646238E+04  0.16487646238E+04  0.00000000000E+00 0. -1.
          6    2    1    2  502    0  0.31887062256E+02 -0.10264903604E+03 -0.18343015463E+03  0.27427649769E+03  0.17328406222E+03 0.  0.
         24    2    3    3    0    0  0.13439184443E+02 -0.13440505529E+02 -0.16058928694E+03  0.18024309220E+03  0.79607753003E+02 0.  0.
         -6    2    1    2    0  501 -0.31887062256E+02  0.10264903604E+03 -0.14126249781E+04  0.14271976173E+04  0.17271392739E+03 0.  0.
        -24    2    5    5    0    0  0.26310270214E+02  0.35816415623E+02 -0.99983702628E+03  0.10049778738E+04  0.91276512237E+02 0.  0.
          5    1    3    3  502    0  0.18447877813E+02 -0.89208530509E+02 -0.22840867683E+02  0.94033405489E+02  0.47000000000E+01 0. -1.
        -13    1    4    4    0    0 -0.65905242000E+01  0.31432750468E+02 -0.53161275503E+02  0.62109371469E+02  0.00000000000E+00 0.  1.
         14    1    4    4    0    0  0.20029708643E+02 -0.44873255997E+02 -0.10742801144E+03  0.11813372073E+03  0.00000000000E+00 0. -1.
         -5    1    5    5    0  501 -0.58197332470E+02  0.66832620416E+02 -0.41278795179E+03  0.42221974350E+03  0.47000000000E+01 0.  1.
         13    1    6    6    0    0 -0.10154427732E+02 -0.24126147781E+02 -0.15153057161E+03  0.15377482740E+03  0.00000000000E+00 0. -1.
        -14    1    6    6    0    0  0.36464697946E+02  0.59942563404E+02 -0.84830645467E+03  0.85120304636E+03  0.00000000000E+00 0.  1.
</event>
<event>
12    1  0.2689284E-002  0.1782819E+03  0.7818608E-02  0.1169476E+00
         -1   -1    0    0    0  501 -0.00000000000E+00  0.00000000000E+00  0.47546722142E+02  0.47546722142E+02  0.00000000000E+00 0. -1.
          1   -1    0    0  502    0  0.00000000000E+00 -0.00000000000E+00 -0.69979830235E+03  0.69979830235E+03  0.00000000000E+00 0.  1.
          6    2    1    2  502    0  0.46415505301E+02 -0.17169963983E+02 -0.24541500023E+03  0.30276808451E+03  0.17026680200E+03 0.  0.
         24    2    3    3    0    0  0.58206070583E+02  0.23894179619E+02 -0.72449023859E+02  0.12454182297E+03  0.79390970134E+02 0.  0.
         -6    2    1    2    0  501 -0.46415505301E+02  0.17169963983E+02 -0.40683657998E+03  0.44457693999E+03  0.17228884456E+03 0.  0.
        -24    2    5    5    0    0 -0.94817773092E+02  0.16203769167E+02 -0.29241538066E+03  0.32024667853E+03  0.88307463065E+02 0.  0.
          5    1    3    3  502    0 -0.11790565282E+02 -0.41064143602E+02 -0.17296597637E+03  0.17822626153E+03  0.47000000000E+01 0. -1.
        -11    1    4    4    0    0  0.32946436146E+02  0.46000258627E+02 -0.71209605082E+02  0.90952181416E+02  0.00000000000E+00 0.  1.
         12    1    4    4    0    0  0.25259634438E+02 -0.22106079007E+02 -0.12394187769E+01  0.33589641557E+02  0.00000000000E+00 0. -1.
         -5    1    5    5    0  501  0.48402267791E+02  0.96619481587E+00 -0.11442119933E+03  0.12433026146E+03  0.47000000000E+01 0.  1.
         13    1    6    6    0    0 -0.36557713759E+02 -0.26132618771E+02 -0.49385364693E+02  0.66770460871E+02  0.00000000000E+00 0. -1.
        -14    1    6    6    0    0 -0.58260059333E+02  0.42336387937E+02 -0.24303001597E+03  0.25347621766E+03  0.00000000000E+00 0.  1.
</event>
<event>
12    1  0.2689284E-002  0.2052259E+03  0.7818608E-02  0.1145403E+00
         -1   -1    0    0    0  501 -0.00000000000E+00  0.00000000000E+00  0.10400550496E+03  0.10400550496E+03  0.00000000000E+00 0. -1.
          1   -1    0    0  502    0  0.00000000000E+00 -0.00000000000E+00 -0.40561094815E+03  0.40561094815E+03  0.00000000000E+00 0.  1.
          6    2    1    2  502    0  0.89650397814E+02  0.68408437008E+02 -0.15990529690E+03  0.25910309329E+03  0.16984640383E+03 0.  0.
         24    2    3    3    0    0  0.68156069402E+01  0.87682218628E+02 -0.99603701801E+02  0.15474096602E+03  0.79304761462E+02 0.  0.
         -6    2    1    2    0  501 -0.89650397814E+02 -0.68408437008E+02 -0.14170014629E+03  0.25051335982E+03  0.17309276100E+03 0.  0.
        -24    2    5    5    0    0 -0.11611162166E+03 -0.31597550442E+02 -0.56736994133E+02  0.15409725660E+03  0.77759656056E+02 0.  0.
          5    1    3    3  502    0  0.82834790874E+02 -0.19273781620E+02 -0.60301595098E+02  0.10436212727E+03  0.47000000000E+01 0. -1.
        -13    1    4    4    0    0 -0.15299804664E+02  0.93098545976E+02 -0.70442710003E+02  0.11774378403E+03  0.00000000000E+00 0.  1.
         14    1    4    4    0    0  0.22115411604E+02 -0.54163273476E+01 -0.29160991798E+02  0.36997181987E+02  0.00000000000E+00 0. -1.
         -5    1    5    5    0  501  0.26461223842E+02 -0.36810886565E+02 -0.84963152156E+02  0.96416103225E+02  0.47000000000E+01 0.  1.
         13    1    6    6    0    0 -0.11832630834E+03 -0.33832957843E+02 -0.69236863300E+02  0.14120739188E+03  0.00000000000E+00 0. -1.
        -14    1    6    6    0    0  0.22146866811E+01  0.22354074002E+01  0.12499869166E+02  0.12889864720E+02  0.00000000000E+00 0.  1.
</event>
<event>
12    1  0.2689284E-002  0.4629505E+03  0.7818608E-02  0.1023929E+00
         -1   -1    0    0    0  501 -0.00000000000E+00  0.00000000000E+00  0.13256953246E+03  0.13256953246E+03  0.00000000000E+00 0. -1.
          1   -1    0    0  502    0  0.00000000000E+00 -0.00000000000E+00 -0.20628945605E+04  0.20628945605E+04  0.00000000000E+00 0.  1.
          6    2    1    2  502    0  0.41972651244E+03 -0.87898817510E+02 -0.45552913988E+03  0.64987831802E+03  0.17589338698E+03 0.  0.
         24    2    3    3    0    0  0.18803981611E+03  0.86178032376E+00 -0.13360318649E+03  0.24341112568E+03  0.77713895508E+02 0.  0.
         -6    2    1    2    0  501 -0.41972651244E+03  0.87898817510E+02 -0.14747958881E+04  0.15455857749E+04  0.17296221732E+03 0.  0.
        -24    2    5    5    0    0 -0.37854163508E+03  0.30044468795E+02 -0.13062299910E+04  0.13626107180E+04  0.79213254935E+02 0.  0.
          5    1    3    3  502    0  0.23168669634E+03 -0.88760597834E+02 -0.32192595339E+03  0.40646719234E+03  0.47000000000E+01 0. -1.
        -13    1    4    4    0    0  0.40566028648E+01 -0.17885479164E+02 -0.15193567848E+02  0.23815769894E+02  0.00000000000E+00 0.  1.
         14    1    4    4    0    0  0.18398321324E+03  0.18747259488E+02 -0.11840961865E+03  0.21959535578E+03  0.00000000000E+00 0. -1.
         -5    1    5    5    0  501 -0.41184877361E+02  0.57854348716E+02 -0.16856589714E+03  0.18297505695E+03  0.47000000000E+01 0.  1.
         11    1    6    6    0    0 -0.13067557390E+03  0.25621713399E+02 -0.34167823202E+03  0.36671050169E+03  0.00000000000E+00 0. -1.
        -12    1    6    6    0    0 -0.24786606118E+03  0.44227553961E+01 -0.96455175895E+03  0.99590021626E+03  0.00000000000E+00 0.  1.
</event>
<event>
12    1  0.2689284E-002  0.1913810E+03  0.7818608E-02  0.1157222E+00
         -2   -1    0    0    0  501 -0.00000000000E+00  0.00000000000E+00  0.17631012793E+02  0.17631012793E+02  0.00000000000E+00 0. -1.
          2   -1    0    0  502    0  0.00000000000E+00 -0.00000000000E+00 -0.21544873281E+04  0.21544873281E+04  0.00000000000E+00 0.  1.
          6    2    1    2  502    0 -0.75811766055E+02 -0.31590598457E+02 -0.88290211824E+03  0.90416480289E+03  0.17678362652E+03 0.  0.
         24    2    3    3    0    0 -0.11988328783E+03 -0.35818901569E+02 -0.63548610930E+03  0.65277476915E+03  0.81346835989E+02 0.  0.
         -6    2    1    2    0  501  0.75811766055E+02  0.31590598457E+02 -0.12539541971E+04  0.12679535380E+04  0.16899602484E+03 0.  0.
        -24    2    5    5    0    0  0.11327613518E+03  0.31567715655E+02 -0.11107746917E+04  0.11198790964E+04  0.80503239200E+02 0.  0.
          5    1    3    3  502    0  0.44071521777E+02  0.42283031120E+01 -0.24741600894E+03  0.25139003373E+03  0.47000000000E+01 0. -1.
        -11    1    4    4    0    0 -0.72233780862E+02 -0.22184743889E+02 -0.53932544701E+03  0.54459326084E+03  0.00000000000E+00 0.  1.
         12    1    4    4    0    0 -0.47649506970E+02 -0.13634157679E+02 -0.96160662290E+02  0.10818150832E+03  0.00000000000E+00 0. -1.
         -5    1    5    5    0  501 -0.37464369130E+02  0.22882802142E-01 -0.14317950539E+03  0.14807444156E+03  0.47000000000E+01 0.  1.
         13    1    6    6    0    0  0.38283720557E+02  0.42305931427E+02 -0.28621931203E+03  0.29185086890E+03  0.00000000000E+00 0. -1.
        -14    1    6    6    0    0  0.74992414628E+02 -0.10738215773E+02 -0.82455537963E+03  0.82802822754E+03  0.00000000000E+00 0.  1.
</event>
<event>
12    1  0.2689284E-002  0.1940005E+03  0.7818608E-02  0.1154902E+00
          2   -1    0    0  502    0  0.00000000000E+00  0.00000000000E+00  0.42071899355E+03  0.42071899355E+03  0.00000000000E+00 0.  1.
         -2   -1    0    0    0  501 -0.00000000000E+00 -0.00000000000E+00 -0.13446596290E+03  0.13446596290E+03  0.00000000000E+00 0. -1.
          6    2    1    2  502    0 -0.86556941968E+02  0.26237099710E+02  0.30374273205E+03  0.36042597796E+03  0.17165881484E+03 0.  0.
         24    2    3    3    0    0 -0.72172104211E+02  0.11226156217E+02  0.76198100199E+02  0.13188516877E+03  0.79074066914E+02 0.  0.
         -6    2    1    2    0  501  0.86556941968E+02 -0.26237099710E+02 -0.17489701406E+02  0.19475897848E+03  0.17159452334E+03 0.  0.
        -24    2    5    5    0    0  0.47121240793E+02 -0.78833322423E+02 -0.13703668239E+01  0.12691017512E+03  0.87574029170E+02 0.  0.
          5    1    3    3  502    0 -0.14384837757E+02  0.15010943493E+02  0.22754463185E+03  0.22854080919E+03  0.47000000000E+01 0. -1.
        -13    1    4    4    0    0 -0.80639663984E+02 -0.12920020725E+02  0.53091784410E+02  0.97408520751E+02  0.00000000000E+00 0.  1.
         14    1    4    4    0    0  0.84675597727E+01  0.24146176942E+02  0.23106315789E+02  0.34476648021E+02  0.00000000000E+00 0. -1.
         -5    1    5    5    0  501  0.39435701176E+02  0.52596222714E+02 -0.16119334582E+02  0.67848803367E+02  0.47000000000E+01 0.  1.
         13    1    6    6    0    0 -0.80261961083E+01 -0.14807708236E+02 -0.32703901894E+02  0.36786318738E+02  0.00000000000E+00 0. -1.
        -14    1    6    6    0    0  0.55147436901E+02 -0.64025614187E+02  0.31333535070E+02  0.90123856380E+02  0.00000000000E+00 0.  1.
</event>
<event>
12    1  0.2689284E-002  0.1777216E+03  0.7818608E-02  0.1170026E+00
         -1   -1    0    0    0  501 -0.00000000000E+00  0.00000000000E+00  0.39856157928E+03  0.39856157928E+03  0.00000000000E+00 0.  1.
          1   -1    0    0  502    0  0.00000000000E+00 -0.00000000000E+00 -0.80028223826E+02  0.80028223826E+02  0.00000000000E+00 0. -1.
          6    2    1    2  502    0  0.10783877905E+02  0.21498914146E+02  0.13421786111E+03  0.22134604270E+03  0.17435922988E+03 0.  0.
         24    2    3    3    0    0 -0.12239588008E+02  0.13530205924E+02  0.16343190437E+03  0.18301680299E+03  0.80326140338E+02 0.  0.
         -6    2    1    2    0  501 -0.10783877905E+02 -0.21498914146E+02  0.18431549434E+03  0.25724376040E+03  0.17783041214E+03 0.  0.
        -24    2    5    5    0    0 -0.67248299940E+02 -0.70332816870E+01  0.62803453396E+02  0.12239291105E+03  0.80398694146E+02 0.  0.
          5    1    3    3  502    0  0.23023465913E+02  0.79687082221E+01 -0.29214043259E+02  0.38329239712E+02  0.47000000000E+01 0. -1.
        -13    1    4    4    0    0 -0.13809669071E+02  0.25871778050E+02  0.16740683958E+03  0.16995618788E+03  0.00000000000E+00 0.  1.
         14    1    4    4    0    0  0.15700810632E+01 -0.12341572126E+02 -0.39749352096E+01  0.13060615108E+02  0.00000000000E+00 0. -1.
         -5    1    5    5    0  501  0.56464422035E+02 -0.14465632459E+02  0.12151204094E+03  0.13485084935E+03  0.47000000000E+01 0.  1.
         11    1    6    6    0    0 -0.11540338990E+02  0.33799340368E+02  0.17330499508E+02  0.39697872065E+02  0.00000000000E+00 0. -1.
        -12    1    6    6    0    0 -0.55707960950E+02 -0.40832622055E+02  0.45472953888E+02  0.82695038983E+02  0.00000000000E+00 0.  1.
</event>
<event>
12    1  0.2689284E-002  0.1821130E+03  0.7818608E-02  0.1165774E+00
         -1   -1    0    0    0  501 -0.00000000000E+00  0.00000000000E+00  0.29819644886E+02  0.29819644886E+02  0.00000000000E+00 0.  1.
          1   -1    0    0  502    0  0.00000000000E+00 -0.00000000000E+00 -0.28068721564E+04  0.28068721564E+04  0.00000000000E+00 0. -1.
          6    2    1    2  502    0 -0.60191813180E+02  0.83973961449E+01 -0.24821665644E+04  0.24886400089E+04  0.16877401998E+03 0.  0.
         24    2    3    3    0    0 -0.28365941675E+02  0.28774421741E+02 -0.64116304829E+03  0.64724267383E+03  0.78742811341E+02 0.  0.
         -6    2    1    2    0  501  0.60191813180E+02 -0.83973961449E+01 -0.29488594710E+03  0.34805179238E+03  0.17461030251E+03 0.  0.
        -24    2    5    5    0    0  0.69201014849E+02  0.54055316021E+02 -0.15690767904E+03  0.19625719620E+03  0.78651825611E+02 0.  0.
          5    1    3    3  502    0 -0.31825871504E+02 -0.20377025596E+02 -0.18410035161E+04  0.18413973350E+04  0.47000000000E+01 0. -1.
        -13    1    4    4    0    0 -0.41337205271E+02 -0.11612451675E+02 -0.23684664355E+03  0.24070717924E+03  0.00000000000E+00 0.  1.
         14    1    4    4    0    0  0.12971263595E+02  0.40386873416E+02 -0.40431640474E+03  0.40653549460E+03  0.00000000000E+00 0. -1.
         -5    1    5    5    0  501 -0.90092016692E+01 -0.62452712165E+02 -0.13797826807E+03  0.15179459618E+03  0.47000000000E+01 0.  1.
         13    1    6    6    0    0 -0.64436450780E+01  0.14592922718E+02 -0.79406597178E+02  0.80993096191E+02  0.00000000000E+00 0. -1.
        -14    1    6    6    0    0  0.75644659927E+02  0.39462393303E+02 -0.77501081859E+02  0.11526410000E+03  0.00000000000E+00 0.  1.
</event>
<event>
12    1  0.2689284E-002  0.1772350E+03  0.7818608E-02  0.1170506E+00
         -2   -1    0    0    0  501 -0.00000000000E+00  0.00000000000E+00  0.32139467901E+02  0.32139467901E+02  0.00000000000E+00 0.  1.
          2   -1    0    0  502    0  0.00000000000E+00 -0.00000000000E+00 -0.18424516740E+04  0.18424516740E+04  0.00000000000E+00 0. -1.
          6    2    1    2  502    0 -0.35739939879E+02  0.24123063897E+02 -0.15454790872E+04  0.15555280256E+04  0.17117991697E+03 0.  0.
         24    2    3    3    0    0 -0.89311802938E+02  0.23429092648E+02 -0.11108047504E+04  0.11175391043E+04  0.80504258458E+02 0.  0.
         -6    2    1    2    0  501  0.35739939879E+02 -0.24123063897E+02 -0.26483311890E+03  0.31906311629E+03  0.17264247970E+03 0.  0.
        -24    2    5    5    0    0  0.52069508620E+02  0.44707501460E+02 -0.17012656671E+03  0.20075959745E+03  0.81555949216E+02 0.  0.
          5    1    3    3  502    0  0.53571863059E+02  0.69397124921E+00 -0.43467433681E+03  0.43798892131E+03  0.47000000000E+01 0. -1.
        -11    1    4    4    0    0 -0.29884847449E+02  0.49261336681E+02 -0.50213847080E+03  0.50543330644E+03  0.00000000000E+00 0.  1.
         12    1    4    4    0    0 -0.59426955490E+02 -0.25832244032E+02 -0.60866627962E+03  0.61210579790E+03  0.00000000000E+00 0. -1.
         -5    1    5    5    0  501 -0.16329568741E+02 -0.68830565357E+02 -0.94706552188E+02  0.11830351884E+03  0.47000000000E+01 0.  1.
         11    1    6    6    0    0  0.24069134601E+02  0.28698505922E+02 -0.11931798059E+02  0.39310244053E+02  0.00000000000E+00 0. -1.
        -12    1    6    6    0    0  0.28000374019E+02  0.16008995537E+02 -0.15819476865E+03  0.16144935340E+03  0.00000000000E+00 0.  1.
</event>
<event>
12    1  0.2689284E-002  0.2560817E+03  0.7818608E-02  0.1109521E+00
          2   -1    0    0  502    0  0.00000000000E+00  0.00000000000E+00  0.17059823816E+04  0.17059823816E+04  0.00000000000E+00 0. -1.
         -2   -1    0    0    0  501 -0.00000000000E+00 -0.00000000000E+00 -0.40375564884E+02  0.40375564884E+02  0.00000000000E+00 0.  1.
          6    2    1    2  502    0 -0.18637902495E+03 -0.36021495773E+02  0.10240756488E+04  0.10556150239E+04  0.17192281699E+03 0.  0.
         24    2    3    3    0    0 -0.14583410397E+03  0.12679640747E+02  0.90896159697E+03  0.92412728205E+03  0.79822863141E+02 0.  0.
         -6    2    1    2    0  501  0.18637902495E+03  0.36021495773E+02  0.64153116791E+03  0.69074292263E+03  0.17183962485E+03 0.  0.
        -24    2    5    5    0    0  0.14831559396E+03 -0.34262460875E+02  0.49123907478E+03  0.52045357301E+03  0.79904076378E+02 0.  0.
          5    1    3    3  502    0 -0.40544920985E+02 -0.48701136519E+02  0.11511405185E+03  0.13148774182E+03  0.47000000000E+01 0. -1.
        -11    1    4    4    0    0 -0.71044713888E+02  0.22043939741E+01  0.22379713430E+03  0.23481347501E+03  0.00000000000E+00 0.  1.
         12    1    4    4    0    0 -0.74789390079E+02  0.10475246772E+02  0.68516446267E+03  0.68931380704E+03  0.00000000000E+00 0. -1.
         -5    1    5    5    0  501  0.38063430988E+02  0.70283956648E+02  0.15029209313E+03  0.17028934963E+03  0.47000000000E+01 0.  1.
         11    1    6    6    0    0  0.12495999819E+03 -0.14685161168E+02  0.45965381511E+03  0.47656299148E+03  0.00000000000E+00 0. -1.
        -12    1    6    6    0    0  0.23355595772E+02 -0.19577299707E+02  0.31585259673E+02  0.43890581521E+02  0.00000000000E+00 0.  1.
</event>
<event>
12    1  0.2689284E-002  0.2046003E+03  0.7818608E-02  0.1145915E+00
         -1   -1    0    0    0  501 -0.00000000000E+00  0.00000000000E+00  0.12572864903E+03  0.12572864903E+03  0.00000000000E+00 0.  1.
          1   -1    0    0  502    0  0.00000000000E+00 -0.00000000000E+00 -0.42926281280E+03  0.42926281280E+03  0.00000000000E+00 0. -1.
          6    2    1    2  502    0 -0.23489329868E+02 -0.10790209941E+03 -0.20621486325E+02  0.20614909951E+03  0.17285136348E+03 0.  0.
         24    2    3    3    0    0 -0.77946583343E+02 -0.76582624539E+02  0.97524579285E+01  0.13621221045E+03  0.80734674117E+02 0.  0.
         -6    2    1    2    0  501  0.23489329868E+02  0.10790209941E+03 -0.28291267745E+03  0.34884236232E+03  0.17162983135E+03 0.  0.
        -24    2    5    5    0    0  0.36311437220E+02  0.12630900980E+03 -0.28712707681E+03  0.32553845816E+03  0.79125489412E+02 0.  0.
          5    1    3    3  502    0  0.54457253474E+02 -0.31319474872E+02 -0.30373944253E+02  0.69936889062E+02  0.47000000000E+01 0. -1.
        -13    1    4    4    0    0 -0.35893169621E+02 -0.71346884801E+01  0.35554217402E+02  0.51022796672E+02  0.00000000000E+00 0.  1.
         14    1    4    4    0    0 -0.42053413722E+02 -0.69447936059E+02 -0.25801759473E+02  0.85189413781E+02  0.00000000000E+00 0. -1.
         -5    1    5    5    0  501 -0.12822107352E+02 -0.18406910385E+02  0.42143993596E+01  0.23303904154E+02  0.47000000000E+01 0.  1.
         11    1    6    6    0    0  0.17805873815E+01  0.93612044813E+02 -0.12251961095E+03  0.15419935309E+03  0.00000000000E+00 0. -1.
        -12    1    6    6    0    0  0.34530849839E+02  0.32696964982E+02 -0.16460746586E+03  0.17133910507E+03  0.00000000000E+00 0.  1.
</event>
<event>
12    1  0.2689284E-002  0.2071966E+03  0.7818608E-02  0.1143805E+00
          1   -1    0    0  502    0  0.00000000000E+00  0.00000000000E+00  0.12182640221E+04  0.12182640221E+04  0.00000000000E+00 0. -1.
         -1   -1    0    0    0  501 -0.00000000000E+00 -0.00000000000E+00 -0.36399740093E+02  0.36399740093E+02  0.00000000000E+00 0.  1.
          6    2    1    2  502    0  0.55609064917E+00 -0.11479316988E+03  0.47654154074E+03  0.51929189718E+03  0.17144810682E+03 0.  0.
         24    2    3    3    0    0  0.51973187593E+02 -0.32330601639E+02  0.31577731712E+03  0.33137963409E+03  0.79691077644E+02 0.  0.
         -6    2    1    2    0  501 -0.55609064917E+00  0.11479316988E+03  0.70532274126E+03  0.73537186501E+03  0.17353336689E+03 0.  0.
        -24    2    5    5    0    0 -0.52483817649E+02  0.12249310020E+03  0.51314679737E+03  0.53609953586E+03  0.79523367501E+02 0.  0.
          5    1    3    3  502    0 -0.51417096944E+02 -0.82462568239E+02  0.16076422363E+03  0.18791226308E+03  0.47000000000E+01 0. -1.
        -13    1    4    4    0    0 -0.14273861973E+02 -0.68943974440E+01  0.15284323832E+03  0.15366304485E+03  0.00000000000E+00 0.  1.
         14    1    4    4    0    0  0.66247049565E+02 -0.25436204195E+02  0.16293407879E+03  0.17771658924E+03  0.00000000000E+00 0. -1.
         -5    1    5    5    0  501  0.51927726999E+02 -0.76999303249E+01  0.19217594388E+03  0.19927232915E+03  0.47000000000E+01 0.  1.
         11    1    6    6    0    0 -0.12286010409E+02 -0.10532402289E+02  0.57262373121E+02  0.59505099993E+02  0.00000000000E+00 0. -1.
        -12    1    6    6    0    0 -0.40197807239E+02  0.13302550249E+03  0.45588442425E+03  0.47659443586E+03  0.00000000000E+00 0.  1.
</event>
<event>
12    1  0.2689284E-002  0.1764683E+03  0.7818608E-02  0.1171265E+00
         -2   -1    0    0    0  501 -0.00000000000E+00  0.00000000000E+00  0.71346341774E+02  0.71346341774E+02  0.00000000000E+00 0.  1.
          2   -1    0    0  502    0  0.00000000000E+00 -0.00000000000E+00 -0.56834820556E+03  0.56834820556E+03  0.00000000000E+00 0. -1.
          6    2    1    2  502    0 -0.29338849243E+02 -0.63139630302E+01 -0.40003772617E+03  0.43631780935E+03  0.17158791970E+03 0.  0.
         24    2    3    3    0    0  0.16428965179E+02 -0.43612835166E+02 -0.12687463584E+03  0.15680741130E+03  0.79494658497E+02 0.  0.
         -6    2    1    2    0  501  0.29338849243E+02  0.63139630302E+01 -0.96964137614E+02  0.20337673799E+03  0.17623682750E+03 0.  0.
        -24    2    5    5    0    0 -0.40527193974E+02 -0.35953085637E+02 -0.59931641411E+02  0.11359220049E+03  0.79851791166E+02 0.  0.
          5    1    3    3  502    0 -0.45767814422E+02  0.37298872135E+02 -0.27316309033E+03  0.27951039805E+03  0.47000000000E+01 0. -1.
        -11    1    4    4    0    0  0.10612361613E+02 -0.36514037296E+02 -0.13756178571E+03  0.14272050317E+03  0.00000000000E+00 0.  1.
         12    1    4    4    0    0  0.58166035655E+01 -0.70987978701E+01  0.10687149866E+02  0.14086908124E+02  0.00000000000E+00 0. -1.
         -5    1    5    5    0  501  0.69866043218E+02  0.42267048667E+02 -0.37032496202E+02  0.89784537493E+02  0.47000000000E+01 0.  1.
         11    1    6    6    0    0  0.48121784616E+01  0.22078011374E+02 -0.10645134516E+02  0.24978281298E+02  0.00000000000E+00 0. -1.
        -12    1    6    6    0    0 -0.45339372436E+02 -0.58031097010E+02 -0.49286506896E+02  0.88613919195E+02  0.00000000000E+00 0.  1.
</event>
<event>
12    1  0.2689284E-002  0.2460938E+03  0.7818608E-02  0.1115799E+00
          2   -1    0    0  502    0  0.00000000000E+00  0.00000000000E+00  0.22336211115E+03  0.22336211115E+03  0.00000000000E+00 0. -1.
         -2   -1    0    0    0  501 -0.00000000000E+00 -0.00000000000E+00 -0.31091473720E+03  0.31091473720E+03  0.00000000000E+00 0.  1.
          6    2    1    2  502    0 -0.17538831073E+03  0.93692056320E+01  0.51873820669E+02  0.25084690205E+03  0.17141888298E+03 0.  0.
         24    2    3    3    0    0 -0.42010261967E+02 -0.75296180272E+01  0.70462805945E+02  0.11504220955E+03  0.80300346807E+02 0.  0.
         -6    2    1    2    0  501  0.17538831073E+03 -0.93692056320E+01 -0.13942644672E+03  0.28342994630E+03  0.17333193261E+03 0.  0.
        -24    2    5    5    0    0  0.77776354424E+02 -0.64812378731E+02 -0.43183355518E+02  0.13548785608E+03  0.79008551472E+02 0.  0.
          5    1    3    3  502    0 -0.13337804876E+03  0.16898823659E+02 -0.18588985276E+02  0.13580469250E+03  0.47000000000E+01 0. -1.
        -13    1    4    4    0    0 -0.22400758661E+02  0.32614223071E+02  0.11769995862E+02  0.41279708547E+02  0.00000000000E+00 0.  1.
         14    1    4    4    0    0 -0.19609503306E+02 -0.40143841099E+02  0.58692810083E+02  0.73762500998E+02  0.00000000000E+00 0. -1.
         -5    1    5    5    0  501  0.97611956306E+02  0.55443173099E+02 -0.96243091203E+02  0.14794209023E+03  0.47000000000E+01 0.  1.
         11    1    6    6    0    0  0.64161586780E+02 -0.11672142512E+02  0.73137053728E+00  0.65218732216E+02  0.00000000000E+00 0. -1.
        -12    1    6    6    0    0  0.13614767644E+02 -0.53140236219E+02 -0.43914726056E+02  0.70269123859E+02  0.00000000000E+00 0.  1.
</event>
<event>
12    1  0.2689284E-002  0.2058361E+03  0.7818608E-02  0.1144906E+00
         -2   -1    0    0    0  501 -0.00000000000E+00  0.00000000000E+00  0.92242273391E+03  0.92242273391E+03  0.00000000000E+00 0. -1.
          2   -1    0    0  502    0  0.00000000000E+00 -0.00000000000E+00 -0.56186269355E+02  0.56186269355E+02  0.00000000000E+00 0.  1.
          6    2    1    2  502    0  0.10559372687E+03 -0.41076843722E+02  0.64148326177E+03  0.67357956870E+03  0.17138062317E+03 0.  0.
         24    2    3    3    0    0  0.37397455392E+02  0.40649789231E+02  0.27713477426E+03  0.29397202883E+03  0.81024043325E+02 0.  0.
         -6    2    1    2    0  501 -0.10559372687E+03  0.41076843722E+02  0.22475320279E+03  0.30502943456E+03  0.17231254029E+03 0.  0.
        -24    2    5    5    0    0 -0.96885793657E+02 -0.33261232701E+02  0.16630790161E+03  0.20995093575E+03  0.76992926106E+02 0.  0.
          5    1    3    3  502    0  0.68196271477E+02 -0.81726632952E+02  0.36434848751E+03  0.37960753987E+03  0.47000000000E+01 0. -1.
        -11    1    4    4    0    0 -0.20597604634E+02 -0.68767479898E+01  0.43832979535E+02  0.48917083667E+02  0.00000000000E+00 0.  1.
         12    1    4    4    0    0  0.57995060026E+02  0.47526537220E+02  0.23330179473E+03  0.24505494517E+03  0.00000000000E+00 0. -1.
         -5    1    5    5    0  501 -0.87079332118E+01  0.74338076423E+02  0.58445301174E+02  0.95078498812E+02  0.47000000000E+01 0.  1.
         11    1    6    6    0    0 -0.60620212343E+02  0.14866736181E+02  0.11482135142E+03  0.13068960453E+03  0.00000000000E+00 0. -1.
        -12    1    6    6    0    0 -0.36265581314E+02 -0.48127968882E+02  0.51486550193E+02  0.79261331225E+02  0.00000000000E+00 0.  1.
</event>
<event>
12    1  0.2689284E-002  0.3044729E+03  0.7818608E-02  0.1083026E+00
          2   -1    0    0  502    0  0.00000000000E+00  0.00000000000E+00  0.46556199623E+03  0.46556199623E+03  0.00000000000E+00 0.  1.
         -2   -1    0    0    0  501 -0.00000000000E+00 -0.00000000000E+00 -0.22759600709E+03  0.22759600709E+03  0.00000000000E+00 0. -1.
          6    2    1    2  502    0  0.96593262851E+02  0.22954472754E+03  0.24089717492E+03  0.38675434329E+03  0.17183257201E+03 0.  0.
         24    2    3    3    0    0  0.12862238416E+03  0.15729460028E+03  0.21313873899E+03  0.30285817970E+03  0.70778852551E+02 0.  0.
         -6    2    1    2    0  501 -0.96593262851E+02 -0.22954472754E+03 -0.29311857746E+01  0.30640366004E+03  0.17847568648E+03 0.  0.
        -24    2    5    5    0    0 -0.53314423480E+02 -0.24098821358E+03 -0.15877727230E+02  0.25956655673E+03  0.78771494317E+02 0.  0.
          5    1    3    3  502    0 -0.32029121307E+02  0.72250127256E+02  0.27758435922E+02  0.83896163590E+02  0.47000000000E+01 0. -1.
        -13    1    4    4    0    0  0.11095309631E+03  0.14217837264E+03  0.14673373873E+03  0.23249961142E+03  0.00000000000E+00 0.  1.
         14    1    4    4    0    0  0.17669287849E+02  0.15116227639E+02  0.66405000262E+02  0.70358568284E+02  0.00000000000E+00 0. -1.
         -5    1    5    5    0  501 -0.43278839371E+02  0.11443486043E+02  0.12946541455E+02  0.46837103303E+02  0.47000000000E+01 0.  1.
         13    1    6    6    0    0 -0.28130363932E+02 -0.75567135077E+02 -0.40842968547E+02  0.90387263254E+02  0.00000000000E+00 0. -1.
        -14    1    6    6    0    0 -0.25184059548E+02 -0.16542107850E+03  0.24965241317E+02  0.16917929348E+03  0.00000000000E+00 0.  1.
</event>
<event>
12    1  0.2689284E-002  0.1798255E+03  0.7818608E-02  0.1167972E+00
          2   -1    0    0  502    0  0.00000000000E+00  0.00000000000E+00  0.88897138860E+03  0.88897138860E+03  0.00000000000E+00 0.  1.
         -2   -1    0    0    0  501 -0.00000000000E+00 -0.00000000000E+00 -0.37087089840E+02  0.37087089840E+02  0.00000000000E+00 0. -1.
          6    2    1    2  502    0  0.16711361498E+02 -0.50454265135E+02  0.49082193470E+03  0.52284120276E+03  0.17213904045E+03 0.  0.
         24    2    3    3    0    0  0.23340250152E+02 -0.95839308859E+02  0.41897904284E+03  0.43747589676E+03  0.78177883718E+02 0.  0.
         -6    2    1    2    0  501 -0.16711361498E+02  0.50454265135E+02  0.36106236406E+03  0.40321727568E+03  0.17144456303E+03 0.  0.
        -24    2    5    5    0    0 -0.77061864854E+02  0.38076241162E+02  0.25407286719E+03  0.27966873796E+03  0.79203850866E+02 0.  0.
          5    1    3    3  502    0 -0.66288886542E+01  0.45385043724E+02  0.71842891860E+02  0.85365306005E+02  0.47000000000E+01 0. -1.
        -11    1    4    4    0    0  0.35749187558E+01 -0.50896862755E+02  0.34458138922E+03  0.34833834771E+03  0.00000000000E+00 0.  1.
         12    1    4    4    0    0  0.19765331396E+02 -0.44942446104E+02  0.74397653617E+02  0.89137549051E+02  0.00000000000E+00 0. -1.
         -5    1    5    5    0  501  0.60350503356E+02  0.12378023972E+02  0.10698949686E+03  0.12354853772E+03  0.47000000000E+01 0.  1.
         13    1    6    6    0    0  0.24771128456E+01  0.34809191191E+02  0.53495716414E+02  0.63871805627E+02  0.00000000000E+00 0. -1.
        -14    1    6    6    0    0 -0.79538977700E+02  0.32670499709E+01  0.20057715078E+03  0.21579693233E+03  0.00000000000E+00 0.  1.
</event>
<event>
12    1  0.2689284E-002  0.2064044E+03  0.7818608E-02  0.1144445E+00
         -4   -1    0    0    0  501 -0.00000000000E+00  0.00000000000E+00  0.10502697119E+03  0.10502697119E+03  0.00000000000E+00 0. -1.
          4   -1    0    0  502    0  0.00000000000E+00 -0.00000000000E+00 -0.82895084606E+03  0.82895084606E+03  0.00000000000E+00 0.  1.
          6    2    1    2  502    0  0.24305106271E+02  0.11974872742E+03 -0.69177612287E+03  0.72067563786E+03  0.16089958027E+03 0.  0.
         24    2    3    3    0    0  0.27101169550E+02  0.10020678801E+03 -0.28720162165E+03  0.31559253231E+03  0.79611564618E+02 0.  0.
         -6    2    1    2    0  501 -0.24305106271E+02 -0.11974872742E+03 -0.32147752005E+02  0.21330217939E+03  0.17185414125E+03 0.  0.
        -24    2    5    5    0    0 -0.50836877882E+02 -0.11368951799E+02  0.72298919301E+01  0.94884277407E+02  0.78975398346E+02 0.  0.
          5    1    3    3  502    0 -0.27960632795E+01  0.19541939411E+02 -0.40457450122E+03  0.40508310555E+03  0.47000000000E+01 0. -1.
        -11    1    4    4    0    0  0.32671964309E+02  0.87835159357E+02 -0.28711701282E+03  0.30202425651E+03  0.00000000000E+00 0.  1.
         12    1    4    4    0    0 -0.55707947585E+01  0.12371628649E+02 -0.84608832610E-01  0.13568275805E+02  0.00000000000E+00 0. -1.
         -5    1    5    5    0  501  0.26531771611E+02 -0.10837977562E+03 -0.39377643935E+02  0.11841790198E+03  0.47000000000E+01 0.  1.
         11    1    6    6    0    0 -0.21170580675E+02 -0.32602842150E+02  0.32363776352E+02  0.50582139359E+02  0.00000000000E+00 0. -1.
        -12    1    6    6    0    0 -0.29666297207E+02  0.21233890351E+02 -0.25133884422E+02  0.44302138047E+02  0.00000000000E+00 0.  1.
</event>
<event>
12    1  0.2689284E-002  0.1772233E+03  0.7818608E-02  0.1170518E+00
         -2   -1    0    0    0  501 -0.00000000000E+00  0.00000000000E+00  0.20587288168E+03  0.20587288168E+03  0.00000000000E+00 0. -1.
          2   -1    0    0  502    0  0.00000000000E+00 -0.00000000000E+00 -0.15643898572E+03  0.15643898572E+03  0.00000000000E+00 0.  1.
          6    2    1    2  502    0 -0.12155333840E-02 -0.48037678611E+02  0.53352771570E+02  0.18599104946E+03  0.17157661168E+03 0.  0.
         24    2    3    3    0    0  0.36737430438E+02  0.29229095787E+02  0.28804987770E+02  0.96858753275E+02  0.79673784458E+02 0.  0.
         -6    2    1    2    0  501  0.12155333840E-02  0.48037678611E+02 -0.39188756058E+01  0.17632081794E+03  0.16960558566E+03 0.  0.
        -24    2    5    5    0    0 -0.20126166591E+02  0.58817820626E+02 -0.60072119910E+02  0.11552114838E+03  0.76628177117E+02 0.  0.
          5    1    3    3  502    0 -0.36738645971E+02 -0.77266774398E+02  0.24547783800E+02  0.89132296185E+02  0.47000000000E+01 0. -1.
        -11    1    4    4    0    0  0.23213823228E+02  0.37867004560E+02 -0.17585938233E+02  0.47770878648E+02  0.00000000000E+00 0.  1.
         12    1    4    4    0    0  0.13523607209E+02 -0.86379087729E+01  0.46390926004E+02  0.49087874627E+02  0.00000000000E+00 0. -1.
         -5    1    5    5    0  501  0.20127382124E+02 -0.10780142015E+02  0.56153244304E+02  0.60799669563E+02  0.47000000000E+01 0.  1.
         11    1    6    6    0    0 -0.26558507743E+02 -0.91135574090E+01 -0.66353189569E+01  0.28852014139E+02  0.00000000000E+00 0. -1.
        -12    1    6    6    0    0  0.64323411527E+01  0.67931378035E+02 -0.53436800953E+02  0.86669134243E+02  0.00000000000E+00 0.  1.
</event>
<event>
12    1  0.2689284E-002  0.2158350E+03  0.7818608E-02  0.1137027E+00
         -2   -1    0    0    0  501 -0.00000000000E+00  0.00000000000E+00  0.82012932524E+02  0.82012932524E+02  0.00000000000E+00 0.  1.
          2   -1    0    0  502    0  0.00000000000E+00 -0.00000000000E+00 -0.89645484938E+03  0.89645484938E+03  0.00000000000E+00 0. -1.
          6    2    1    2  502    0 -0.12565683563E+03 -0.38045655169E+02 -0.11055617306E+03  0.24210180607E+03  0.17074397466E+03 0.  0.
         24    2    3    3    0    0 -0.13948242379E+03 -0.15364735368E+02 -0.40846355735E+02  0.16735476839E+03  0.81533870812E+02 0.  0.
         -6    2    1    2    0  501  0.12565683563E+03  0.38045655169E+02 -0.70388574380E+03  0.73636597583E+03  0.17187960268E+03 0.  0.
        -24    2    5    5    0    0  0.34518778028E+02  0.65707227939E+01 -0.52583490796E+03  0.53382954193E+03  0.85070023970E+02 0.  0.
          5    1    3    3  502    0  0.13825588151E+02 -0.22680919801E+02 -0.69709817320E+02  0.74747037678E+02  0.47000000000E+01 0. -1.
        -13    1    4    4    0    0 -0.95604587182E+02 -0.27338987011E+02 -0.62012234211E+02  0.11718862783E+03  0.00000000000E+00 0.  1.
         14    1    4    4    0    0 -0.43877836604E+02  0.11974251643E+02  0.21165878476E+02  0.50166140564E+02  0.00000000000E+00 0. -1.
         -5    1    5    5    0  501  0.91138057606E+02  0.31474932375E+02 -0.17805083584E+03  0.20253643390E+03  0.47000000000E+01 0.  1.
         11    1    6    6    0    0  0.58181216064E+02  0.18694025643E+02 -0.28176958435E+03  0.28832034122E+03  0.00000000000E+00 0. -1.
        -12    1    6    6    0    0 -0.23662438036E+02 -0.12123302849E+02 -0.24406532361E+03  0.24550920071E+03  0.00000000000E+00 0.  1.
</event>
<event>
12    1  0.2689284E-002  0.1991831E+03  0.7818608E-02  0.1150430E+00
         -2   -1    0    0    0  501 -0.00000000000E+00  0.00000000000E+00  0.40191165549E+03  0.40191165549E+03  0.00000000000E+00 0. -1.
          2   -1    0    0  502    0  0.00000000000E+00 -0.00000000000E+00 -0.12033195161E+03  0.12033195161E+03  0.00000000000E+00 0.  1.
          6    2    1    2  502    0 -0.89849827977E+02 -0.43569212716E+02  0.29872728649E+02  0.20100502517E+03  0.17187021948E+03 0.  0.
         24    2    3    3    0    0 -0.91235783240E+02 -0.34722799152E+01  0.73422556420E+02  0.14160500505E+03  0.79530376538E+02 0.  0.
         -6    2    1    2    0  501  0.89849827977E+02  0.43569212716E+02  0.25170697523E+03  0.32123858193E+03  0.17281943542E+03 0.  0.
        -24    2    5    5    0    0  0.83670492185E+02  0.88362015013E+01  0.26044961427E+03  0.28459038967E+03  0.77967035325E+02 0.  0.
          5    1    3    3  502    0  0.13859552630E+01 -0.40096932801E+02 -0.43549827771E+02  0.59400020126E+02  0.47000000000E+01 0. -1.
        -11    1    4    4    0    0  0.37912510054E+01 -0.21331715132E+01 -0.12654782359E+02  0.13381611317E+02  0.00000000000E+00 0.  1.
         12    1    4    4    0    0 -0.95027034245E+02 -0.13391084020E+01  0.86077338778E+02  0.12822339373E+03  0.00000000000E+00 0. -1.
         -5    1    5    5    0  501  0.61793357920E+01  0.34733011215E+02 -0.87426390434E+01  0.36648192266E+02  0.47000000000E+01 0.  1.
         13    1    6    6    0    0  0.85175237153E+02  0.30920360905E+01  0.13937359836E+03  0.16336885147E+03  0.00000000000E+00 0. -1.
        -14    1    6    6    0    0 -0.15047449680E+01  0.57441654108E+01  0.12107601591E+03  0.12122153820E+03  0.00000000000E+00 0.  1.
</event>
<event>
12    1  0.2689284E-002  0.1836193E+03  0.7818608E-02  0.1164346E+00
         -1   -1    0    0    0  501 -0.00000000000E+00  0.00000000000E+00  0.30388220195E+02  0.30388220195E+02  0.00000000000E+00 0.  1.
          1   -1    0    0  502    0  0.00000000000E+00 -0.00000000000E+00 -0.11137341093E+04  0.11137341093E+04  0.00000000000E+00 0. -1.
          6    2    1    2  502    0  0.13244755045E+02 -0.60298755559E+02 -0.50628446220E+03  0.53853503714E+03  0.17287181986E+03 0.  0.
         24    2    3    3    0    0  0.35905096476E+02 -0.33862728883E+02 -0.12733524656E+03  0.15796053377E+03  0.79381388573E+02 0.  0.
         -6    2    1    2    0  501 -0.13244755045E+02  0.60298755559E+02 -0.57706142692E+03  0.60558729237E+03  0.17298761454E+03 0.  0.
        -24    2    5    5    0    0 -0.64451722337E+02  0.66761665845E+02 -0.48234621876E+03  0.49761978168E+03  0.79727208821E+02 0.  0.
          5    1    3    3  502    0 -0.22660341431E+02 -0.26436026676E+02 -0.37894921564E+03  0.38057450337E+03  0.47000000000E+01 0. -1.
        -13    1    4    4    0    0 -0.11753472099E+02 -0.24991389636E+02 -0.73893347057E+01  0.28588737812E+02  0.00000000000E+00 0.  1.
         14    1    4    4    0    0  0.47658568575E+02 -0.88713392468E+01 -0.11994591185E+03  0.12937179595E+03  0.00000000000E+00 0. -1.
         -5    1    5    5    0  501  0.51206967292E+02 -0.64629102856E+01 -0.94715208161E+02  0.10796751069E+03  0.47000000000E+01 0.  1.
         11    1    6    6    0    0 -0.67426655491E+02  0.13230107173E+02 -0.26700189471E+03  0.27570165285E+03  0.00000000000E+00 0. -1.
        -12    1    6    6    0    0  0.29749331533E+01  0.53531558672E+02 -0.21534432404E+03  0.22191812882E+03  0.00000000000E+00 0.  1.
</event>
<event>
12    1  0.2689284E-002  0.2257741E+03  0.7818608E-02  0.1129650E+00
          2   -1    0    0  502    0  0.00000000000E+00  0.00000000000E+00  0.14636823821E+04  0.14636823821E+04  0.00000000000E+00 0. -1.
         -2   -1    0    0    0  501 -0.00000000000E+00 -0.00000000000E+00 -0.37162279075E+02  0.37162279075E+02  0.00000000000E+00 0.  1.
          6    2    1    2  502    0 -0.14555246465E+03  0.15827251580E+02  0.90138514050E+03  0.92922726957E+03  0.17184913481E+03 0.  0.
         24    2    3    3    0    0 -0.78654283843E+02  0.79898467643E+02  0.51579530779E+03  0.53263920064E+03  0.71340430508E+02 0.  0.
         -6    2    1    2    0  501  0.14555246465E+03 -0.15827251580E+02  0.52513496249E+03  0.57161739158E+03  0.17188278465E+03 0.  0.
        -24    2    5    5    0    0  0.85493933477E+02 -0.31093852837E+02  0.47939104324E+03  0.49445073796E+03  0.79935721624E+02 0.  0.
          5    1    3    3  502    0 -0.66898180810E+02 -0.64071216064E+02  0.38558983271E+03  0.39658806893E+03  0.47000000000E+01 0. -1.
        -13    1    4    4    0    0  0.38258994749E+01  0.40262241543E+02  0.13035250605E+03  0.13648245834E+03  0.00000000000E+00 0.  1.
         14    1    4    4    0    0 -0.82480183318E+02  0.39636226100E+02  0.38544280174E+03  0.39615674230E+03  0.00000000000E+00 0. -1.
         -5    1    5    5    0  501  0.60058531176E+02  0.15266601258E+02  0.45743919259E+02  0.77166653615E+02  0.47000000000E+01 0.  1.
         11    1    6    6    0    0  0.86054381953E+01  0.19014323780E+02  0.35577121096E+02  0.41247177125E+02  0.00000000000E+00 0. -1.
        -12    1    6    6    0    0  0.76888495282E+02 -0.50108176617E+02  0.44381392214E+03  0.45320356084E+03  0.00000000000E+00 0.  1.
</event>
<event>
12    1  0.2689284E-002  0.1876139E+03  0.7818608E-02  0.1160631E+00
          2   -1    0    0  502    0  0.00000000000E+00  0.00000000000E+00  0.21325185592E+04  0.21325185592E+04  0.00000000000E+00 0.  1.
         -2   -1    0    0    0  501 -0.00000000000E+00 -0.00000000000E+00 -0.16525808389E+02  0.16525808389E+02  0.00000000000E+00 0. -1.
          6    2    1    2  502    0 -0.64476646152E+02  0.54987414067E+02  0.10056798174E+04  0.10222620401E+04  0.16262512078E+03 0.  0.
         24    2    3    3    0    0 -0.43817162861E+01 -0.21898570386E+02  0.51823545242E+03  0.52512327260E+03  0.81778484109E+02 0.  0.
         -6    2    1    2    0  501  0.64476646152E+02 -0.54987414067E+02  0.11103129335E+04  0.11267823275E+04  0.17222877177E+03 0.  0.
        -24    2    5    5    0    0  0.29432061736E+02 -0.96690598337E+02  0.61747039636E+03  0.63091628226E+03  0.81057675637E+02 0.  0.
          5    1    3    3  502    0 -0.60094929866E+02  0.76885984452E+02  0.48744436496E+03  0.49713876748E+03  0.47000000000E+01 0. -1.
        -13    1    4    4    0    0 -0.38149529288E+02 -0.24426813753E+02  0.19868580304E+03  0.20378445511E+03  0.00000000000E+00 0.  1.
         14    1    4    4    0    0  0.33767813002E+02  0.25282433677E+01  0.31954964937E+03  0.32133881749E+03  0.00000000000E+00 0. -1.
         -5    1    5    5    0  501  0.35044584417E+02  0.41703184271E+02  0.49284253710E+03  0.49586604526E+03  0.47000000000E+01 0.  1.
         13    1    6    6    0    0  0.34651026514E+02 -0.87941299121E+02  0.61218514048E+03  0.61943927221E+03  0.00000000000E+00 0. -1.
        -14    1    6    6    0    0 -0.52189647781E+01 -0.87492992163E+01  0.52852558831E+01  0.11477010058E+02  0.00000000000E+00 0.  1.
</event>
<event>
12    1  0.2689284E-002  0.2760030E+03  0.7818608E-02  0.1097892E+00
          1   -1    0    0  502    0  0.00000000000E+00  0.00000000000E+00  0.88565522581E+03  0.88565522581E+03  0.00000000000E+00 0.  1.
         -1   -1    0    0    0  501 -0.00000000000E+00 -0.00000000000E+00 -0.89841575171E+02  0.89841575171E+02  0.00000000000E+00 0. -1.
          6    2    1    2  502    0  0.86535387420E+02  0.19761916575E+03  0.29859628259E+03  0.40728995611E+03  0.17373445377E+03 0.  0.
         24    2    3    3    0    0  0.11005677014E+03  0.18523600611E+03  0.30304179129E+03  0.37993213026E+03  0.78033491043E+02 0.  0.
         -6    2    1    2    0  501 -0.86535387420E+02 -0.19761916575E+03  0.49721736805E+03  0.56820684487E+03  0.17056435593E+03 0.  0.
        -24    2    5    5    0    0 -0.72670752228E+02 -0.17261969573E+03  0.26230789515E+03  0.33151769837E+03  0.77588368273E+02 0.  0.
          5    1    3    3  502    0 -0.23521382715E+02  0.12383159639E+02 -0.44455087066E+01  0.27357825848E+02  0.47000000000E+01 0. -1.
        -13    1    4    4    0    0  0.71367143004E+02  0.69565122958E+02  0.89195896250E+02  0.13374783490E+03  0.00000000000E+00 0.  1.
         14    1    4    4    0    0  0.38689627132E+02  0.11567088315E+03  0.21384589504E+03  0.24618429536E+03  0.00000000000E+00 0. -1.
         -5    1    5    5    0  501 -0.13864635192E+02 -0.24999470015E+02  0.23490947290E+03  0.23668914650E+03  0.47000000000E+01 0.  1.
         13    1    6    6    0    0  0.90966809360E+01 -0.24984078812E+02  0.10941897774E+02  0.28752024712E+02  0.00000000000E+00 0. -1.
        -14    1    6    6    0    0 -0.81767433164E+02 -0.14763561692E+03  0.25136599738E+03  0.30276567366E+03  0.00000000000E+00 0.  1.
</event>
<event>
12    1  0.2689284E-002  0.2312922E+03  0.7818608E-02  0.1125734E+00
         -1   -1    0    0    0  501 -0.00000000000E+00  0.00000000000E+00  0.17635724237E+03  0.17635724237E+03  0.00000000000E+00 0.  1.
          1   -1    0    0  502    0  0.00000000000E+00 -0.00000000000E+00 -0.69687597140E+03  0.69687597140E+03  0.00000000000E+00 0. -1.
          6    2    1    2  502    0  0.11444306824E+03 -0.10508541457E+03  0.68122770977E+02  0.24057473018E+03  0.17057352857E+03 0.  0.
         24    2    3    3    0    0  0.27163965071E+02 -0.11458724276E+03  0.40027200432E+02  0.14827425524E+03  0.80715307055E+02 0.  0.
         -6    2    1    2    0  501 -0.11444306824E+03  0.10508541457E+03 -0.58864150000E+03  0.63265848359E+03  0.17209817286E+03 0.  0.
        -24    2    5    5    0    0 -0.14279698362E+03  0.10349443988E+03 -0.55786174039E+03  0.59051635122E+03  0.79986011618E+02 0.  0.
          5    1    3    3  502    0  0.87279103168E+02  0.95018281805E+01  0.28095570545E+02  0.92300474933E+02  0.47000000000E+01 0. -1.
        -11    1    4    4    0    0  0.34058965102E+02 -0.88434961392E+02  0.62153581279E+02  0.11333059237E+03  0.00000000000E+00 0.  1.
         12    1    4    4    0    0 -0.68950000317E+01 -0.26152281363E+02 -0.22126380847E+02  0.34943662878E+02  0.00000000000E+00 0. -1.
         -5    1    5    5    0  501  0.28353915385E+02  0.15909746941E+01 -0.30779759619E+02  0.42142132366E+02  0.47000000000E+01 0.  1.
         11    1    6    6    0    0 -0.59713981636E+02  0.18278875437E+02 -0.10399449469E+03  0.12130429430E+03  0.00000000000E+00 0. -1.
        -12    1    6    6    0    0 -0.83083001988E+02  0.85215564443E+02 -0.45386724570E+03  0.46921205692E+03  0.00000000000E+00 0.  1.
</event>
<event>
12    1  0.2689284E-002  0.1862137E+03  0.7818608E-02  0.1161921E+00
          2   -1    0    0  502    0  0.00000000000E+00  0.00000000000E+00  0.62683516497E+03  0.62683516497E+03  0.00000000000E+00 0.  1.
         -2   -1    0    0    0  501 -0.00000000000E+00 -0.00000000000E+00 -0.61668924434E+02  0.61668924434E+02  0.00000000000E+00 0. -1.
          6    2    1    2  502    0  0.71479658172E+02 -0.25283185272E+02  0.39676296146E+03  0.43949993069E+03  0.17317840655E+03 0.  0.
         24    2    3    3    0    0  0.71958039230E+02 -0.48378766338E+02  0.40258280595E+03  0.41521834707E+03  0.53055590221E+02 0.  0.
         -6    2    1    2    0  501 -0.71479658172E+02  0.25283185272E+02  0.16840327908E+03  0.24900415872E+03  0.16701744120E+03 0.  0.
        -24    2    5    5    0    0  0.76235270997E+01  0.98300373072E+00  0.14073374995E+03  0.16162277864E+03  0.79100251177E+02 0.  0.
          5    1    3    3  502    0 -0.47838105795E+00  0.23095581066E+02 -0.58198444874E+01  0.24281583620E+02  0.47000000000E+01 0. -1.
        -13    1    4    4    0    0  0.35967757886E+02 -0.42805265409E+02  0.32159103361E+03  0.32641501689E+03  0.00000000000E+00 0.  1.
         14    1    4    4    0    0  0.35990281344E+02 -0.55735009287E+01  0.80991772345E+02  0.88803330182E+02  0.00000000000E+00 0. -1.
         -5    1    5    5    0  501 -0.79103185272E+02  0.24300181541E+02  0.27669529122E+02  0.87381380081E+02  0.47000000000E+01 0.  1.
         11    1    6    6    0    0  0.91978842691E+01 -0.24681506457E+01 -0.82445177565E+01  0.12596226247E+02  0.00000000000E+00 0. -1.
        -12    1    6    6    0    0 -0.15743571694E+01  0.34511543764E+01  0.14897826771E+03  0.14902655239E+03  0.00000000000E+00 0.  1.
</event>
<event>
12    1  0.2689284E-002  0.2039204E+03  0.7818608E-02  0.1146473E+00
          1   -1    0    0  502    0  0.00000000000E+00  0.00000000000E+00  0.23250439252E+03  0.23250439252E+03  0.00000000000E+00 0. -1.
         -1   -1    0    0    0  501 -0.00000000000E+00 -0.00000000000E+00 -0.18856736910E+03  0.18856736910E+03  0.00000000000E+00 0.  1.
          6    2    1    2  502    0 -0.10634663484E+03  0.53123516490E+00  0.69568467759E+02  0.21395335675E+03  0.17212314837E+03 0.  0.
         24    2    3    3    0    0 -0.99962858228E+02 -0.52778331737E+02  0.18689954469E+02  0.13983604675E+03  0.80166578113E+02 0.  0.
         -6    2    1    2    0  501  0.10634663484E+03 -0.53123516490E+00 -0.25631444341E+02  0.20711840486E+03  0.17587260657E+03 0.  0.
        -24    2    5    5    0    0  0.18300012180E+02 -0.22210521947E+02  0.41083345621E+02  0.94445637808E+02  0.80024617978E+02 0.  0.
          5    1    3    3  502    0 -0.63837766071E+01  0.53309566902E+02  0.50878513291E+02  0.74117310000E+02  0.47000000000E+01 0. -1.
        -11    1    4    4    0    0 -0.54131549201E+01 -0.32528700487E+02  0.27230403260E+02  0.42765797821E+02  0.00000000000E+00 0.  1.
         12    1    4    4    0    0 -0.94549703308E+02 -0.20249631250E+02 -0.85404487911E+01  0.97070248928E+02  0.00000000000E+00 0. -1.
         -5    1    5    5    0  501  0.88046622656E+02  0.21679286782E+02 -0.66714789962E+02  0.11267276706E+03  0.47000000000E+01 0.  1.
         13    1    6    6    0    0  0.40083439269E+02 -0.62757131760E+00  0.48473465905E+02  0.62902725269E+02  0.00000000000E+00 0. -1.
        -14    1    6    6    0    0 -0.21783427089E+02 -0.21582950629E+02 -0.73901202841E+01  0.31542912539E+02  0.00000000000E+00 0.  1.
</event>
<event>
12    1  0.2689284E-002  0.2060899E+03  0.7818608E-02  0.1144700E+00
         -2   -1    0    0    0  501 -0.00000000000E+00  0.00000000000E+00  0.33572001692E+03  0.33572001692E+03  0.00000000000E+00 0. -1.
          2   -1    0    0  502    0  0.00000000000E+00 -0.00000000000E+00 -0.13831619314E+03  0.13831619314E+03  0.00000000000E+00 0.  1.
          6    2    1    2  502    0  0.73754850537E+02 -0.87380474287E+02  0.16774639946E+03  0.26539171370E+03  0.17093502246E+03 0.  0.
         24    2    3    3    0    0  0.35330648458E+02 -0.38537909793E+02  0.16006605613E+02  0.10135186961E+03  0.85337944895E+02 0.  0.
         -6    2    1    2    0  501 -0.73754850537E+02  0.87380474287E+02  0.29657424325E+02  0.20864449636E+03  0.17198208564E+03 0.  0.
        -24    2    5    5    0    0 -0.24072658794E+02  0.10471050296E+03  0.61047137900E+02  0.14719488946E+03  0.79973746345E+02 0.  0.
          5    1    3    3  502    0  0.38424202079E+02 -0.48842564494E+02  0.15173979384E+03  0.16403984409E+03  0.47000000000E+01 0. -1.
        -13    1    4    4    0    0  0.22777697933E+02  0.17734372447E+02  0.30404698614E+02  0.41925853445E+02  0.00000000000E+00 0.  1.
         14    1    4    4    0    0  0.12552950525E+02 -0.56272282240E+02 -0.14398093001E+02  0.59426016167E+02  0.00000000000E+00 0. -1.
         -5    1    5    5    0  501 -0.49682191743E+02 -0.17330028676E+02 -0.31389713575E+02  0.61449606904E+02  0.47000000000E+01 0.  1.
         13    1    6    6    0    0  0.38949390637E+01 -0.23541562836E-01  0.35641546727E+02  0.35853743983E+02  0.00000000000E+00 0. -1.
        -14    1    6    6    0    0 -0.27967597858E+02  0.10473404453E+03  0.25405591173E+02  0.11134114547E+03  0.00000000000E+00 0.  1.
</event>
<event>
12    1  0.2689284E-002  0.1734717E+03  0.7818608E-02  0.1174275E+00
         -1   -1    0    0    0  501 -0.00000000000E+00  0.00000000000E+00  0.71867233111E+03  0.71867233111E+03  0.00000000000E+00 0. -1.
          1   -1    0    0  502    0  0.00000000000E+00 -0.00000000000E+00 -0.44793727458E+02  0.44793727458E+02  0.00000000000E+00 0.  1.
          6    2    1    2  502    0  0.12019998665E+02  0.19200505433E+02  0.23930268997E+03  0.29551627910E+03  0.17190390923E+03 0.  0.
         24    2    3    3    0    0 -0.36185662893E+02 -0.32750376360E+02  0.17728929233E+03  0.20122719483E+03  0.81724545965E+02 0.  0.
         -6    2    1    2    0  501 -0.12019998665E+02 -0.19200505433E+02  0.43457591368E+03  0.46794977946E+03  0.17206868273E+03 0.  0.
        -24    2    5    5    0    0  0.10751113602E+02 -0.31535240871E+02  0.43300650365E+03  0.44158271099E+03  0.79941232043E+02 0.  0.
          5    1    3    3  502    0  0.48205661559E+02  0.51950881793E+02  0.62013397636E+02  0.94289084266E+02  0.47000000000E+01 0. -1.
        -13    1    4    4    0    0 -0.41879847774E+02  0.11528800777E+02  0.49460877348E+02  0.65827147022E+02  0.00000000000E+00 0.  1.
         14    1    4    4    0    0  0.56941848809E+01 -0.44279177137E+02  0.12782841499E+03  0.13540004781E+03  0.00000000000E+00 0. -1.
         -5    1    5    5    0  501 -0.22771112267E+02  0.12334735438E+02  0.15694100282E+01  0.26367068477E+02  0.47000000000E+01 0.  1.
         11    1    6    6    0    0  0.40389142975E+02 -0.35858518461E+02  0.22279849306E+03  0.22925157519E+03  0.00000000000E+00 0. -1.
        -12    1    6    6    0    0 -0.29638029373E+02  0.43232775895E+01  0.21020801059E+03  0.21233113580E+03  0.00000000000E+00 0.  1.
</event>
<event>
12    1  0.2689284E-002  0.2067077E+03  0.7818608E-02  0.1144200E+00
         -2   -1    0    0    0  501 -0.00000000000E+00  0.00000000000E+00  0.15007022199E+03  0.15007022199E+03  0.00000000000E+00 0.  1.
          2   -1    0    0  502    0  0.00000000000E+00 -0.00000000000E+00 -0.29711225777E+03  0.29711225777E+03  0.00000000000E+00 0. -1.
          6    2    1    2  502    0  0.99371343567E+02  0.53608292946E+02 -0.28001398259E+02  0.20900575264E+03  0.17363989558E+03 0.  0.
         24    2    3    3    0    0  0.16531245748E+02  0.35428289189E+02  0.42497212718E+02  0.98619437848E+02  0.79945823355E+02 0.  0.
         -6    2    1    2    0  501 -0.99371343567E+02 -0.53608292946E+02 -0.11904063751E+03  0.23817672712E+03  0.17265273518E+03 0.  0.
        -24    2    5    5    0    0 -0.12129220340E+03 -0.34175022742E+02 -0.43949881609E+02  0.15743709801E+03  0.83517165605E+02 0.  0.
          5    1    3    3  502    0  0.82840097819E+02  0.18180003757E+02 -0.70498610977E+02  0.11038631479E+03  0.47000000000E+01 0. -1.
        -11    1    4    4    0    0  0.26360542384E+02  0.35880289317E+02 -0.96462359729E+01  0.45555715609E+02  0.00000000000E+00 0.  1.
         12    1    4    4    0    0 -0.98292966357E+01 -0.45200012851E+00  0.52143448691E+02  0.53063722239E+02  0.00000000000E+00 0. -1.
         -5    1    5    5    0  501  0.21920859833E+02 -0.19433270203E+02 -0.75090755904E+02  0.80739629111E+02  0.47000000000E+01 0.  1.
         11    1    6    6    0    0 -0.44052473878E+02  0.24739466195E+02 -0.31399535024E+02  0.59486069312E+02  0.00000000000E+00 0. -1.
        -12    1    6    6    0    0 -0.77239729522E+02 -0.58914488937E+02 -0.12550346585E+02  0.97951028697E+02  0.00000000000E+00 0.  1.
</event>
<event>
12    1  0.2689284E-002  0.1783196E+03  0.7818608E-02  0.1169439E+00
         -2   -1    0    0    0  501 -0.00000000000E+00  0.00000000000E+00  0.99211720268E+02  0.99211720268E+02  0.00000000000E+00 0. -1.
          2   -1    0    0  502    0  0.00000000000E+00 -0.00000000000E+00 -0.36996304765E+03  0.36996304765E+03  0.00000000000E+00 0.  1.
          6    2    1    2  502    0 -0.23516523209E+02  0.42127036117E+02 -0.22198190925E+03  0.28554998527E+03  0.17301766389E+03 0.  0.
         24    2    3    3    0    0 -0.20352955928E+02  0.87141852963E+02 -0.20219011905E+03  0.23605102717E+03  0.82651665639E+02 0.  0.
         -6    2    1    2    0  501  0.23516523209E+02 -0.42127036117E+02 -0.48769418134E+02  0.18362478265E+03  0.17032877215E+03 0.  0.
        -24    2    5    5    0    0  0.31863960853E+02  0.21100494064E+02 -0.73586495739E+02  0.11502902747E+03  0.79725541421E+02 0.  0.
          5    1    3    3  502    0 -0.31635672818E+01 -0.45014816846E+02 -0.19791790197E+02  0.49498958098E+02  0.47000000000E+01 0. -1.
        -11    1    4    4    0    0  0.25931529618E+02  0.50949706423E+02 -0.13610324066E+03  0.14762252176E+03  0.00000000000E+00 0.  1.
         12    1    4    4    0    0 -0.46284485546E+02  0.36192146539E+02 -0.66086878397E+02  0.88428505413E+02  0.00000000000E+00 0. -1.
         -5    1    5    5    0  501 -0.83474376433E+01 -0.63227530181E+02  0.24817077604E+02  0.68595755181E+02  0.47000000000E+01 0.  1.
         13    1    6    6    0    0  0.10048838298E+02  0.48114583211E+02 -0.24546974381E+02  0.54941297946E+02  0.00000000000E+00 0. -1.
        -14    1    6    6    0    0  0.21815122555E+02 -0.27014089147E+02 -0.49039521357E+02  0.60087729525E+02  0.00000000000E+00 0.  1.
</event>
<event>
12    1  0.2689284E-002  0.2526005E+03  0.7818608E-02  0.1111672E+00
          2   -1    0    0  502    0  0.00000000000E+00  0.00000000000E+00  0.55692783370E+03  0.55692783370E+03  0.00000000000E+00 0.  1.
         -2   -1    0    0    0  501 -0.00000000000E+00 -0.00000000000E+00 -0.13084695871E+03  0.13084695871E+03  0.00000000000E+00 0. -1.
          6    2    1    2  502    0 -0.17165595538E+03  0.71318760526E+02  0.33468816145E+03  0.41960618774E+03  0.17175871086E+03 0.  0.
         24    2    3    3    0    0 -0.71037520186E+02  0.66067597984E+02  0.27551822887E+03  0.30266682255E+03  0.79282118151E+02 0.  0.
         -6    2    1    2    0  501  0.17165595538E+03 -0.71318760526E+02  0.91392713542E+02  0.26816860466E+03  0.17032216478E+03 0.  0.
        -24    2    5    5    0    0  0.13113104936E+03 -0.10892204657E+03  0.40560508238E+02  0.19292049355E+03  0.80708101626E+02 0.  0.
          5    1    3    3  502    0 -0.10061843520E+03  0.52511625421E+01  0.59169932582E+02  0.11693936519E+03  0.47000000000E+01 0. -1.
        -11    1    4    4    0    0 -0.16645958434E+02 -0.18083072341E+02  0.65830572523E+02  0.70269123491E+02  0.00000000000E+00 0.  1.
         12    1    4    4    0    0 -0.54391561752E+02  0.84150670325E+02  0.20968765635E+03  0.23239769906E+03  0.00000000000E+00 0. -1.
         -5    1    5    5    0  501  0.40524906020E+02  0.37603286045E+02  0.50832205304E+02  0.75248111109E+02  0.47000000000E+01 0.  1.
         11    1    6    6    0    0  0.10809984156E+03 -0.47122876872E+02  0.46370635678E+02  0.12671376059E+03  0.00000000000E+00 0. -1.
        -12    1    6    6    0    0  0.23031207799E+02 -0.61799169700E+02 -0.58101274405E+01  0.66206732959E+02  0.00000000000E+00 0.  1.
</event>
<event>
12    1  0.2689284E-002  0.2538950E+03  0.7818608E-02  0.1110868E+00
         -1   -1    0    0    0  501 -0.00000000000E+00  0.00000000000E+00  0.20206337339E+03  0.20206337339E+03  0.00000000000E+00 0. -1.
          1   -1    0    0  502    0  0.00000000000E+00 -0.00000000000E+00 -0.34966539724E+03  0.34966539724E+03  0.00000000000E+00 0.  1.
          6    2    1    2  502    0 -0.13120760519E+03 -0.13248312710E+03 -0.15553071192E+03  0.29795435035E+03  0.17268404072E+03 0.  0.
         24    2    3    3    0    0 -0.12628556105E+03 -0.62779361988E+02 -0.15686494362E+03  0.22790642702E+03  0.86286949867E+02 0.  0.
         -6    2    1    2    0  501  0.13120760519E+03  0.13248312710E+03  0.79286880674E+01  0.25377442028E+03  0.17196330325E+03 0.  0.
        -24    2    5    5    0    0  0.19546958501E+02  0.97266124635E+01  0.35025692124E+02  0.85567406349E+02  0.74955262282E+02 0.  0.
          5    1    3    3  502    0 -0.49220441435E+01 -0.69703765112E+02  0.13342317061E+01  0.70047923335E+02  0.47000000000E+01 0. -1.
        -11    1    4    4    0    0 -0.11196943707E+03 -0.12135509926E+02 -0.10360716892E+03  0.15303225441E+03  0.00000000000E+00 0.  1.
         12    1    4    4    0    0 -0.14316123984E+02 -0.50643852063E+02 -0.53257774701E+02  0.74874172608E+02  0.00000000000E+00 0. -1.
         -5    1    5    5    0  501  0.11166064669E+03  0.12275651464E+03 -0.27097004057E+02  0.16820701393E+03  0.47000000000E+01 0.  1.
         13    1    6    6    0    0  0.19675656551E+02  0.35898894644E+02  0.41825925072E+02  0.58525807175E+02  0.00000000000E+00 0. -1.
        -14    1    6    6    0    0 -0.12869804954E+00 -0.26172282180E+02 -0.68002329485E+01  0.27041599174E+02  0.00000000000E+00 0.  1.
</event>
<event>
12    1  0.2689284E-002  0.1891772E+03  0.7818608E-02  0.1159206E+00
          2   -1    0    0  502    0  0.00000000000E+00  0.00000000000E+00  0.32620958955E+04  0.32620958955E+04  0.00000000000E+00 0.  1.
         -2   -1    0    0    0  501 -0.00000000000E+00 -0.00000000000E+00 -0.11123660552E+02  0.11123660552E+02  0.00000000000E+00 0. -1.
          6    2    1    2  502    0  0.39031126124E+02  0.73339537619E+02  0.14276315411E+04  0.14400161581E+04  0.16915259985E+03 0.  0.
         24    2    3    3    0    0  0.68767585937E+02  0.41116592987E+02  0.13005123544E+04  0.13054652279E+04  0.80545156587E+02 0.  0.
         -6    2    1    2    0  501 -0.39031126124E+02 -0.73339537619E+02  0.18233406939E+04  0.18332033979E+04  0.17076678720E+03 0.  0.
        -24    2    5    5    0    0  0.32387419342E+02 -0.77275450147E+02  0.12644489003E+04  0.12697335878E+04  0.79824321259E+02 0.  0.
          5    1    3    3  502    0 -0.29736459814E+02  0.32222944632E+02  0.12711918669E+03  0.13455093023E+03  0.47000000000E+01 0. -1.
        -13    1    4    4    0    0  0.84774330922E+02  0.34129813875E+02  0.91370315878E+03  0.91826194180E+03  0.00000000000E+00 0.  1.
         14    1    4    4    0    0 -0.16006744985E+02  0.69867791116E+01  0.38680919560E+03  0.38720328610E+03  0.00000000000E+00 0. -1.
         -5    1    5    5    0  501 -0.71418545466E+02  0.39359125276E+01  0.55889179356E+03  0.56346981015E+03  0.47000000000E+01 0.  1.
         13    1    6    6    0    0 -0.81553383452E+01 -0.23278794629E+02  0.89229535144E+02  0.92576032346E+02  0.00000000000E+00 0. -1.
        -14    1    6    6    0    0  0.40542757688E+02 -0.53996655518E+02  0.11752193652E+04  0.11771575554E+04  0.00000000000E+00 0.  1.
</event>
<event>
12    1  0.2689284E-002  0.1948128E+03  0.7818608E-02  0.1154191E+00
         -3   -1    0    0    0  501 -0.00000000000E+00  0.00000000000E+00  0.17421544855E+03  0.17421544855E+03  0.00000000000E+00 0. -1.
          3   -1    0    0  502    0  0.00000000000E+00 -0.00000000000E+00 -0.23125945279E+03  0.23125945279E+03  0.00000000000E+00 0.  1.
          6    2    1    2  502    0 -0.51846634594E+01 -0.89834206781E+02 -0.77362247700E+02  0.20969741590E+03  0.17289020627E+03 0.  0.
         24    2    3    3    0    0  0.35561832526E+02 -0.66552107552E+02 -0.10777905685E+03  0.15357607096E+03  0.79217785405E+02 0.  0.
         -6    2    1    2    0  501  0.51846634594E+01  0.89834206781E+02  0.20318243451E+02  0.19577748544E+03  0.17268157790E+03 0.  0.
        -24    2    5    5    0    0 -0.22132538424E+02  0.15612179686E+02  0.63913434735E+02  0.10534646461E+03  0.79242419541E+02 0.  0.
          5    1    3    3  502    0 -0.40746495985E+02 -0.23282099229E+02  0.30416809147E+02  0.56121344944E+02  0.47000000000E+01 0. -1.
        -13    1    4    4    0    0  0.31358498622E+02 -0.36226526293E+02 -0.11279748997E+03  0.12255199054E+03  0.00000000000E+00 0.  1.
         14    1    4    4    0    0  0.42033339043E+01 -0.30325581259E+02  0.50184331221E+01  0.31024080416E+02  0.00000000000E+00 0. -1.
         -5    1    5    5    0  501  0.27317201883E+02  0.74222027095E+02 -0.43595191284E+02  0.90431020827E+02  0.47000000000E+01 0.  1.
         13    1    6    6    0    0 -0.21054587336E+02  0.13769242181E+02 -0.13058773736E+02  0.28344651164E+02  0.00000000000E+00 0. -1.
        -14    1    6    6    0    0 -0.10779510876E+01  0.18429375050E+01  0.76972208471E+02  0.77001813447E+02  0.00000000000E+00 0.  1.
</event>
<event>
12    1  0.2689284E-002  0.2467609E+03  0.7818608E-02  0.1115369E+00
         -2   -1    0    0    0  501 -0.00000000000E+00  0.00000000000E+00  0.59986794335E+02  0.59986794335E+02  0.00000000000E+00 0.  1.
          2   -1    0    0  502    0  0.00000000000E+00 -0.00000000000E+00 -0.11074324309E+04  0.11074324309E+04  0.00000000000E+00 0. -1.
          6    2    1    2  502    0 -0.14610028610E+03  0.92747907077E+02 -0.36084003688E+03  0.43877267078E+03  0.17991235794E+03 0.  0.
         24    2    3    3    0    0 -0.35696137557E+02  0.65414513870E+02 -0.83494104504E+02  0.13897432754E+03  0.82397362624E+02 0.  0.
         -6    2    1    2    0  501  0.14610028610E+03 -0.92747907077E+02 -0.68660559964E+03  0.72864655441E+03  0.17190428713E+03 0.  0.
        -24    2    5    5    0    0  0.13134864915E+03 -0.13056982332E+03 -0.54803289390E+03  0.58417305194E+03  0.81345899848E+02 0.  0.
          5    1    3    3  502    0 -0.11040414855E+03  0.27333393207E+02 -0.27734593238E+03  0.29979834324E+03  0.47000000000E+01 0. -1.
        -13    1    4    4    0    0  0.11849442012E+01  0.47781662513E-01  0.15053860368E+02  0.15100499589E+02  0.00000000000E+00 0.  1.
         14    1    4    4    0    0 -0.36881081758E+02  0.65366732208E+02 -0.98547964872E+02  0.12387382795E+03  0.00000000000E+00 0. -1.
         -5    1    5    5    0  501  0.14751636954E+02  0.37821916239E+02 -0.13857270574E+03  0.14447350247E+03  0.47000000000E+01 0.  1.
         13    1    6    6    0    0  0.10303563552E+03 -0.84162509924E+02 -0.47405088278E+03  0.49236562606E+03  0.00000000000E+00 0. -1.
        -14    1    6    6    0    0  0.28313013626E+02 -0.46407313392E+02 -0.73982011127E+02  0.91807425883E+02  0.00000000000E+00 0.  1.
</event>
<event>
12    1  0.2689284E-002  0.1799365E+03  0.7818608E-02  0.1167865E+00
          1   -1    0    0  502    0  0.00000000000E+00  0.00000000000E+00  0.18740899410E+04  0.18740899410E+04  0.00000000000E+00 0.  1.
         -1   -1    0    0    0  501 -0.00000000000E+00 -0.00000000000E+00 -0.18439956757E+02  0.18439956757E+02  0.00000000000E+00 0. -1.
          6    2    1    2  502    0 -0.45727990806E+02 -0.24592279878E+02  0.68943732877E+03  0.71249645077E+03  0.17213812095E+03 0.  0.
         24    2    3    3    0    0 -0.96796468950E+02 -0.14630250976E+02  0.45990970873E+03  0.47709838400E+03  0.80760926089E+02 0.  0.
         -6    2    1    2    0  501  0.45727990806E+02  0.24592279878E+02  0.11662126555E+04  0.11800334470E+04  0.17242722769E+03 0.  0.
        -24    2    5    5    0    0 -0.34303425628E+02  0.10855791223E+02  0.79272894144E+03  0.79779544078E+03  0.82242431428E+02 0.  0.
          5    1    3    3  502    0  0.51068478144E+02 -0.99620289022E+01  0.22952762004E+03  0.23539806677E+03  0.47000000000E+01 0. -1.
        -11    1    4    4    0    0  0.93559963169E+01  0.13063812832E+02  0.83292460395E+02  0.84828249018E+02  0.00000000000E+00 0.  1.
         12    1    4    4    0    0 -0.10615246527E+03 -0.27694063807E+02  0.37661724833E+03  0.39227013498E+03  0.00000000000E+00 0. -1.
         -5    1    5    5    0  501  0.80031416435E+02  0.13736488655E+02  0.37348371404E+03  0.38223800621E+03  0.47000000000E+01 0.  1.
         13    1    6    6    0    0 -0.47127747195E+02 -0.16204676705E+01  0.23010713739E+03  0.23488921889E+03  0.00000000000E+00 0. -1.
        -14    1    6    6    0    0  0.12824321566E+02  0.12476258893E+02  0.56262180405E+03  0.56290622190E+03  0.00000000000E+00 0.  1.
</event>
<event>
12    1  0.2689284E-002  0.2283297E+03  0.7818608E-02  0.1127821E+00
          2   -1    0    0  502    0  0.00000000000E+00  0.00000000000E+00  0.13666181308E+04  0.13666181308E+04  0.00000000000E+00 0. -1.
         -2   -1    0    0    0  501 -0.00000000000E+00 -0.00000000000E+00 -0.39160162962E+02  0.39160162962E+02  0.00000000000E+00 0.  1.
          6    2    1    2  502    0 -0.19981831513E+02  0.14964310706E+03  0.77349611378E+03  0.80617884295E+03  0.16981094105E+03 0.  0.
         24    2    3    3    0    0  0.18086250663E+02  0.67605693914E+02  0.23930812195E+03  0.26436871324E+03  0.87890824301E+02 0.  0.
         -6    2    1    2    0  501  0.19981831513E+02 -0.14964310706E+03  0.55396185402E+03  0.59959945078E+03  0.17278145903E+03 0.  0.
        -24    2    5    5    0    0 -0.36941286397E+01 -0.85749068351E+02  0.49685652353E+03  0.51057075854E+03  0.80309060481E+02 0.  0.
          5    1    3    3  502    0 -0.38068082176E+02  0.82037413143E+02  0.53418799183E+03  0.54181012971E+03  0.47000000000E+01 0. -1.
        -13    1    4    4    0    0  0.40688742668E+02  0.74125379414E+02  0.21248267675E+03  0.22868981956E+03  0.00000000000E+00 0.  1.
         14    1    4    4    0    0 -0.22602492005E+02 -0.65196855000E+01  0.26825445204E+02  0.35678893680E+02  0.00000000000E+00 0. -1.
         -5    1    5    5    0  501  0.23675960152E+02 -0.63894038706E+02  0.57105330499E+02  0.89028692244E+02  0.47000000000E+01 0.  1.
         13    1    6    6    0    0  0.18120902823E+02 -0.84754293476E+02  0.45678979368E+03  0.46493932184E+03  0.00000000000E+00 0. -1.
        -14    1    6    6    0    0 -0.21815031462E+02 -0.99477487526E+00  0.40066729844E+02  0.45631436698E+02  0.00000000000E+00 0.  1.
</event>
<event>
12    1  0.2689284E-002  0.1903975E+03  0.7818608E-02  0.1158103E+00
          1   -1    0    0  502    0  0.00000000000E+00  0.00000000000E+00  0.30172890173E+03  0.30172890173E+03  0.00000000000E+00 0. -1.
         -1   -1    0    0    0  501 -0.00000000000E+00 -0.00000000000E+00 -0.12242671714E+03  0.12242671714E+03  0.00000000000E+00 0.  1.
          6    2    1    2  502    0  0.65519193166E+02 -0.48485878880E+02  0.60756673153E+02  0.19997651987E+03  0.17220798484E+03 0.  0.
         24    2    3    3    0    0 -0.16343066879E+02 -0.60683037018E+00  0.65772438003E+02  0.10489192174E+03  0.80055215736E+02 0.  0.
         -6    2    1    2    0  501 -0.65519193166E+02  0.48485878880E+02  0.11854551144E+03  0.22417909899E+03  0.17192901157E+03 0.  0.
        -24    2    5    5    0    0 -0.10497250341E+03  0.44777163897E+02  0.11860388605E+03  0.18427406593E+03  0.82860296334E+02 0.  0.
          5    1    3    3  502    0  0.81862260045E+02 -0.47879048510E+02 -0.50157648495E+01  0.95084598137E+02  0.47000000000E+01 0. -1.
        -11    1    4    4    0    0 -0.23623434079E+02  0.28079645881E+02  0.46595808046E+01  0.36989793778E+02  0.00000000000E+00 0.  1.
         12    1    4    4    0    0  0.72803671997E+01 -0.28686476251E+02  0.61112857198E+02  0.67902127958E+02  0.00000000000E+00 0. -1.
         -5    1    5    5    0  501  0.39453310246E+02  0.37087149829E+01 -0.58374609438E-01  0.39905033063E+02  0.47000000000E+01 0.  1.
         13    1    6    6    0    0 -0.49587671131E+02 -0.11041464662E+02  0.12692904027E+02  0.52363736332E+02  0.00000000000E+00 0. -1.
        -14    1    6    6    0    0 -0.55384832281E+02  0.55818628559E+02  0.10591098202E+03  0.13191032960E+03  0.00000000000E+00 0.  1.
</event>
<event>
12    1  0.2689284E-002  0.3049465E+03  0.7818608E-02  0.1082794E+00
          1   -1    0    0  502    0  0.00000000000E+00  0.00000000000E+00  0.84743234775E+03  0.84743234775E+03  0.00000000000E+00 0.  1.
         -1   -1    0    0    0  501 -0.00000000000E+00 -0.00000000000E+00 -0.18111377791E+03  0.18111377791E+03  0.00000000000E+00 0. -1.
          6    2    1    2  502    0 -0.65735082275E+02 -0.24297767307E+03  0.65608056898E+03  0.72353098560E+03  0.17232563209E+03 0.  0.
         24    2    3    3    0    0 -0.10836820882E+03 -0.17287141862E+03  0.41575573904E+03  0.46954164669E+03  0.77384283779E+02 0.  0.
         -6    2    1    2    0  501  0.65735082275E+02  0.24297767307E+03  0.10238000854E+02  0.30501514007E+03  0.17195978704E+03 0.  0.
        -24    2    5    5    0    0 -0.30031923356E+02  0.13590548677E+03  0.14392550640E+02  0.16122667485E+03  0.80091681303E+02 0.  0.
          5    1    3    3  502    0  0.42633126544E+02 -0.70106254444E+02  0.24032482994E+03  0.25398933891E+03  0.47000000000E+01 0. -1.
        -13    1    4    4    0    0 -0.75398354581E+02 -0.16794401969E+03  0.36534913518E+03  0.40910890506E+03  0.00000000000E+00 0.  1.
         14    1    4    4    0    0 -0.32969854239E+02 -0.49273989362E+01  0.50406603861E+02  0.60432741636E+02  0.00000000000E+00 0. -1.
         -5    1    5    5    0  501  0.95767005631E+02  0.10707218630E+03 -0.41545497860E+01  0.14378846522E+03  0.47000000000E+01 0.  1.
         13    1    6    6    0    0 -0.58380546579E+01  0.46012562038E+02 -0.32847292397E+02  0.56834702122E+02  0.00000000000E+00 0. -1.
        -14    1    6    6    0    0 -0.24193868698E+02  0.89892924733E+02  0.47239843037E+02  0.10439197273E+03  0.00000000000E+00 0.  1.
</event>
<event>
12    1  0.2689284E-002  0.2359563E+03  0.7818608E-02  0.1122516E+00
         -2   -1    0    0    0  501 -0.00000000000E+00  0.00000000000E+00  0.10462986805E+03  0.10462986805E+03  0.00000000000E+00 0. -1.
          2   -1    0    0  502    0  0.00000000000E+00 -0.00000000000E+00 -0.60820320270E+03  0.60820320270E+03  0.00000000000E+00 0.  1.
          6    2    1    2  502    0 -0.88174599513E+02 -0.13378450346E+03 -0.37758874209E+03  0.44510415681E+03  0.17283344263E+03 0.  0.
         24    2    3    3    0    0  0.46411162691E+01 -0.31466073347E+02 -0.21641771280E+03  0.23277891357E+03  0.79609939420E+02 0.  0.
         -6    2    1    2    0  501  0.88174599513E+02  0.13378450346E+03 -0.12598459256E+03  0.26772891395E+03  0.17359032356E+03 0.  0.
        -24    2    5    5    0    0  0.65071012588E+02  0.79500808944E+02 -0.21235216392E+01  0.13045491746E+03  0.80370148964E+02 0.  0.
          5    1    3    3  502    0 -0.92815715782E+02 -0.10231843012E+03 -0.16117102928E+03  0.21232524324E+03  0.47000000000E+01 0. -1.
        -13    1    4    4    0    0 -0.22960746908E+01  0.25074776738E+02 -0.38837802121E+02  0.46285972616E+02  0.00000000000E+00 0.  1.
         14    1    4    4    0    0  0.69371909599E+01 -0.56540850084E+02 -0.17757991068E+03  0.18649294095E+03  0.00000000000E+00 0. -1.
         -5    1    5    5    0  501  0.23103586924E+02  0.54283694521E+02 -0.12386107092E+03  0.13727399648E+03  0.47000000000E+01 0.  1.
         13    1    6    6    0    0  0.70483795488E+02  0.26289189227E+02 -0.11660045986E+02  0.76125183540E+02  0.00000000000E+00 0. -1.
        -14    1    6    6    0    0 -0.54127828999E+01  0.53211619717E+02  0.95365243467E+01  0.54329733924E+02  0.00000000000E+00 0.  1.
</event>
<event>
12    1  0.2689284E-002  0.2206737E+03  0.7818608E-02  0.1133382E+00
         -4   -1    0    0    0  501 -0.00000000000E+00  0.00000000000E+00  0.20463019542E+03  0.20463019542E+03  0.00000000000E+00 0.  1.
          4   -1    0    0  502    0  0.00000000000E+00 -0.00000000000E+00 -0.27549975467E+03  0.27549975467E+03  0.00000000000E+00 0. -1.
          6    2    1    2  502    0  0.30549495306E+02  0.13794564052E+03  0.53347946290E+02  0.22565123628E+03  0.16766098431E+03 0.  0.
         24    2    3    3    0    0  0.17581499494E+02  0.41303641796E+02  0.75984077074E+02  0.12543981353E+03  0.89142957655E+02 0.  0.
         -6    2    1    2    0  501 -0.30549495306E+02 -0.13794564052E+03 -0.12421750554E+03  0.25447871381E+03  0.17136847931E+03 0.  0.
        -24    2    5    5    0    0  0.42182283534E+02 -0.73964216974E+02 -0.10493042318E+03  0.15559688657E+03  0.77135899342E+02 0.  0.
          5    1    3    3  502    0  0.12967995812E+02  0.96641998720E+02 -0.22636130784E+02  0.10021142275E+03  0.47000000000E+01 0. -1.
        -11    1    4    4    0    0 -0.30451639888E+02  0.41699757282E+02  0.42654152806E+02  0.66974240428E+02  0.00000000000E+00 0.  1.
         12    1    4    4    0    0  0.48033139382E+02 -0.39611548568E+00  0.33329924268E+02  0.58465573102E+02  0.00000000000E+00 0. -1.
         -5    1    5    5    0  501 -0.72731778840E+02 -0.63981423543E+02 -0.19287082369E+02  0.98881827239E+02  0.47000000000E+01 0.  1.
         13    1    6    6    0    0 -0.26895496252E+01 -0.26196322518E+02 -0.82061470979E+02  0.86183327911E+02  0.00000000000E+00 0. -1.
        -14    1    6    6    0    0  0.44871833159E+02 -0.47767894456E+02 -0.22868952197E+02  0.69413558664E+02  0.00000000000E+00 0.  1.
</event>
<event>
12    1  0.2689284E-002  0.2578963E+03  0.7818608E-02  0.1108414E+00
         -1   -1    0    0    0  501 -0.00000000000E+00  0.00000000000E+00  0.10731814999E+03  0.10731814999E+03  0.00000000000E+00 0.  1.
          1   -1    0    0  502    0  0.00000000000E+00 -0.00000000000E+00 -0.65281304098E+03  0.65281304098E+03  0.00000000000E+00 0. -1.
          6    2    1    2  502    0 -0.18459172551E+03 -0.68127407314E+02 -0.18449978337E+03  0.31483393819E+03  0.16237238009E+03 0.  0.
         24    2    3    3    0    0 -0.11404973957E+03 -0.66790411844E+02 -0.19717315960E+03  0.24299617791E+03  0.51976777519E+02 0.  0.
         -6    2    1    2    0  501  0.18459172551E+03  0.68127407314E+02 -0.36099510762E+03  0.44529725278E+03  0.17104597876E+03 0.  0.
        -24    2    5    5    0    0  0.14855545931E+03  0.96496012622E+01 -0.15888968649E+03  0.23178622839E+03  0.79480084971E+02 0.  0.
          5    1    3    3  502    0 -0.70541985942E+02 -0.13369954696E+01  0.12673376223E+02  0.71837760283E+02  0.47000000000E+01 0. -1.
        -11    1    4    4    0    0 -0.76918641646E+02 -0.42927527187E+02 -0.84824543709E+02  0.12228840190E+03  0.00000000000E+00 0.  1.
         12    1    4    4    0    0 -0.37131097925E+02 -0.23862884657E+02 -0.11234861589E+03  0.12070777601E+03  0.00000000000E+00 0. -1.
         -5    1    5    5    0  501  0.36036266208E+02  0.58477806051E+02 -0.20210542113E+03  0.21351102438E+03  0.47000000000E+01 0.  1.
         13    1    6    6    0    0  0.74232102115E+02  0.49842883127E+01 -0.13399774793E+03  0.15326658006E+03  0.00000000000E+00 0. -1.
        -14    1    6    6    0    0  0.74323357190E+02  0.46653129495E+01 -0.24891938561E+02  0.78519648332E+02  0.00000000000E+00 0.  1.
</event>
<event>
12    1  0.2689284E-002  0.1747111E+03  0.7818608E-02  0.1173022E+00
          1   -1    0    0  502    0  0.00000000000E+00  0.00000000000E+00  0.54037464158E+03  0.54037464158E+03  0.00000000000E+00 0.  1.
         -1   -1    0    0    0  501 -0.00000000000E+00 -0.00000000000E+00 -0.63786118630E+02  0.63786118630E+02  0.00000000000E+00 0. -1.
          6    2    1    2  502    0 -0.23015322003E+02 -0.35110591585E+02  0.13537048225E+03  0.22053525700E+03  0.16896204730E+03 0.  0.
         24    2    3    3    0    0  0.46660026058E+02 -0.33831141379E+02  0.48042537305E+02  0.10871150689E+03  0.78666398042E+02 0.  0.
         -6    2    1    2    0  501  0.23015322003E+02  0.35110591585E+02  0.34121804070E+03  0.38362550321E+03  0.17022431297E+03 0.  0.
        -24    2    5    5    0    0  0.59278225490E+02  0.33044028490E+02  0.11421415702E+03  0.15368611542E+03  0.77257572913E+02 0.  0.
          5    1    3    3  502    0 -0.69675348061E+02 -0.12794502057E+01  0.87327944944E+02  0.11182375011E+03  0.47000000000E+01 0. -1.
        -11    1    4    4    0    0  0.27203573773E+02 -0.56545020656E+02  0.47668531276E+02  0.78801412811E+02  0.00000000000E+00 0.  1.
         12    1    4    4    0    0  0.19456452285E+02  0.22713879277E+02  0.37400602843E+00  0.29910094079E+02  0.00000000000E+00 0. -1.
         -5    1    5    5    0  501 -0.36262903487E+02  0.20665630944E+01  0.22700388368E+03  0.22993938779E+03  0.47000000000E+01 0.  1.
         11    1    6    6    0    0  0.41074565930E+02  0.41770544866E+02  0.11926549404E+03  0.13287647066E+03  0.00000000000E+00 0. -1.
        -12    1    6    6    0    0  0.18203659560E+02 -0.87265163759E+01 -0.50513370218E+01  0.20809644763E+02  0.00000000000E+00 0.  1.
</event>
<event>
12    1  0.2689284E-002  0.2098993E+03  0.7818608E-02  0.1141646E+00
          1   -1    0    0  502    0  0.00000000000E+00  0.00000000000E+00  0.17893688713E+03  0.17893688713E+03  0.00000000000E+00 0. -1.
         -1   -1    0    0    0  501 -0.00000000000E+00 -0.00000000000E+00 -0.24847087782E+03  0.24847087782E+03  0.00000000000E+00 0.  1.
          6    2    1    2  502    0 -0.11888088863E+03  0.20924247097E+02 -0.55060025586E+02  0.21672073137E+03  0.17136446303E+03 0.  0.
         24    2    3    3    0    0 -0.31900405770E+02  0.31897240715E+02 -0.83257398676E+02  0.12450797283E+03  0.80841641562E+02 0.  0.
         -6    2    1    2    0  501  0.11888088863E+03 -0.20924247097E+02 -0.14473965105E+02  0.21068703357E+03  0.17207277720E+03 0.  0.
        -24    2    5    5    0    0  0.27426114879E+02 -0.66477608096E+02 -0.11729769904E+02  0.10837034409E+03  0.80218949256E+02 0.  0.
          5    1    3    3  502    0 -0.86980482862E+02 -0.10972993618E+02  0.28197373091E+02  0.92212758537E+02  0.47000000000E+01 0. -1.
        -13    1    4    4    0    0 -0.11342180474E+02 -0.24215172202E+02 -0.48479636719E+02  0.55365104525E+02  0.00000000000E+00 0.  1.
         14    1    4    4    0    0 -0.20558225296E+02  0.56112412917E+02 -0.34777761957E+02  0.69142868305E+02  0.00000000000E+00 0. -1.
         -5    1    5    5    0  501  0.91454773752E+02  0.45553360999E+02 -0.27441952010E+01  0.10231668949E+03  0.47000000000E+01 0.  1.
         13    1    6    6    0    0 -0.24899647181E+02 -0.15028766372E+02 -0.18827106693E+02  0.34645579730E+02  0.00000000000E+00 0. -1.
        -14    1    6    6    0    0  0.52325762060E+02 -0.51448841724E+02  0.70973367889E+01  0.73724764356E+02  0.00000000000E+00 0.  1.
</event>
<event>
12    1  0.2689284E-002  0.1724930E+03  0.7818608E-02  0.1175273E+00
          2   -1    0    0  502    0  0.00000000000E+00  0.00000000000E+00  0.31311380620E+03  0.31311380620E+03  0.00000000000E+00 0.  1.
         -2   -1    0    0    0  501 -0.00000000000E+00 -0.00000000000E+00 -0.15888252010E+03  0.15888252010E+03  0.00000000000E+00 0. -1.
          6    2    1    2  502    0  0.84628116212E+01  0.32135004582E+01  0.22658158446E+03  0.28443585373E+03  0.17170496413E+03 0.  0.
         24    2    3    3    0    0  0.34325219481E+02  0.24006195244E+02  0.48338828405E+02  0.10306945557E+03  0.80821731217E+02 0.  0.
         -6    2    1    2    0  501 -0.84628116212E+01 -0.32135004582E+01 -0.72350298354E+02  0.18756047257E+03  0.17280746348E+03 0.  0.
        -24    2    5    5    0    0  0.52510331710E+02  0.15195151270E+02 -0.42015862908E+02  0.11685778069E+03  0.94351367837E+02 0.  0.
          5    1    3    3  502    0 -0.25862407860E+02 -0.20792694786E+02  0.17824275605E+03  0.18136639816E+03  0.47000000000E+01 0. -1.
        -11    1    4    4    0    0 -0.12723845389E+02  0.30850619708E+02  0.44146756211E+02  0.55340699867E+02  0.00000000000E+00 0.  1.
         12    1    4    4    0    0  0.47049064870E+02 -0.68444244641E+01  0.41920721940E+01  0.47728755700E+02  0.00000000000E+00 0. -1.
         -5    1    5    5    0  501 -0.60973143331E+02 -0.18408651728E+02 -0.30334435446E+02  0.70702691886E+02  0.47000000000E+01 0.  1.
         11    1    6    6    0    0  0.55423425746E+02 -0.30098525390E+02 -0.30370730379E+02  0.70000418683E+02  0.00000000000E+00 0. -1.
        -12    1    6    6    0    0 -0.29130940362E+01  0.45293676660E+02 -0.11645132529E+02  0.46857362003E+02  0.00000000000E+00 0.  1.
</event>
<event>
12    1  0.2689284E-002  0.1758322E+03  0.7818608E-02  0.1171899E+00
         -1   -1    0    0    0  501 -0.00000000000E+00  0.00000000000E+00  0.30482851735E+03  0.30482851735E+03  0.00000000000E+00 0. -1.
          1   -1    0    0  502    0  0.00000000000E+00 -0.00000000000E+00 -0.14509405972E+03  0.14509405972E+03  0.00000000000E+00 0.  1.
          6    2    1    2  502    0  0.17206306104E+02 -0.28104558402E+02  0.20319339748E+03  0.26852324545E+03  0.17242753086E+03 0.  0.
         24    2    3    3    0    0 -0.55154834755E+02 -0.29816409842E+02  0.96570341827E+02  0.13956731834E+03  0.78880487668E+02 0.  0.
         -6    2    1    2    0  501 -0.17206306104E+02  0.28104558402E+02 -0.43458939852E+02  0.18139933162E+03  0.17300611228E+03 0.  0.
        -24    2    5    5    0    0  0.25133315623E+02  0.89841663348E+01  0.35220613325E+02  0.89907282519E+02  0.78297056445E+02 0.  0.
          5    1    3    3  502    0  0.72361140859E+02  0.17118514403E+01  0.10662305565E+03  0.12895592711E+03  0.47000000000E+01 0. -1.
        -13    1    4    4    0    0  0.17617233431E+02 -0.21032788387E+02  0.24883659847E+02  0.37039730405E+02  0.00000000000E+00 0.  1.
         14    1    4    4    0    0 -0.72772068186E+02 -0.87836214547E+01  0.71686681980E+02  0.10252758793E+03  0.00000000000E+00 0. -1.
         -5    1    5    5    0  501 -0.42339621726E+02  0.19120392067E+02 -0.78679553177E+02  0.91492049102E+02  0.47000000000E+01 0.  1.
         11    1    6    6    0    0  0.23306747549E+02 -0.27540525254E+02 -0.39789604611E+01  0.36297618916E+02  0.00000000000E+00 0. -1.
        -12    1    6    6    0    0  0.18265680737E+01  0.36524691589E+02  0.39199573786E+02  0.53609663603E+02  0.00000000000E+00 0.  1.
</event>
<event>
12    1  0.2689284E-002  0.1848815E+03  0.7818608E-02  0.1163161E+00
          2   -1    0    0  502    0  0.00000000000E+00  0.00000000000E+00  0.14293415684E+04  0.14293415684E+04  0.00000000000E+00 0.  1.
         -2   -1    0    0    0  501 -0.00000000000E+00 -0.00000000000E+00 -0.26202468721E+02  0.26202468721E+02  0.00000000000E+00 0. -1.
          6    2    1    2  502    0 -0.67534536532E+02  0.13379187103E+02  0.91785407335E+03  0.93635801944E+03  0.17196024056E+03 0.  0.
         24    2    3    3    0    0 -0.85883561464E+02  0.36873386854E+02  0.87448612564E+03  0.88352305917E+03  0.84565828604E+02 0.  0.
         -6    2    1    2    0  501  0.67534536532E+02 -0.13379187103E+02  0.48528502629E+03  0.51918601764E+03  0.17120936862E+03 0.  0.
        -24    2    5    5    0    0 -0.17895384815E+02  0.31951229511E+02  0.23086806024E+03  0.24696698681E+03  0.79696332860E+02 0.  0.
          5    1    3    3  502    0  0.18349024932E+02 -0.23494199752E+02  0.43367947718E+02  0.52834960274E+02  0.47000000000E+01 0. -1.
        -13    1    4    4    0    0  0.16830755341E+02  0.66869089180E+00  0.13911696671E+03  0.14013297934E+03  0.00000000000E+00 0.  1.
         14    1    4    4    0    0 -0.10271431680E+03  0.36204695962E+02  0.73536915892E+03  0.74339007983E+03  0.00000000000E+00 0. -1.
         -5    1    5    5    0  501  0.85429921348E+02 -0.45330416613E+02  0.25441696605E+03  0.27221903083E+03  0.47000000000E+01 0.  1.
         11    1    6    6    0    0  0.27081059759E+02 -0.30089234167E+01  0.45413558389E+02  0.52960633525E+02  0.00000000000E+00 0. -1.
        -12    1    6    6    0    0 -0.44976444574E+02  0.34960152927E+02  0.18545450185E+03  0.19400635329E+03  0.00000000000E+00 0.  1.
</event>
<event>
12    1  0.2689284E-002  0.1767287E+03  0.7818608E-02  0.1171007E+00
          3   -1    0    0  502    0  0.00000000000E+00  0.00000000000E+00  0.16818075558E+03  0.16818075558E+03  0.00000000000E+00 0.  1.
         -3   -1    0    0    0  501 -0.00000000000E+00 -0.00000000000E+00 -0.23374798387E+03  0.23374798387E+03  0.00000000000E+00 0. -1.
          6    2    1    2  502    0 -0.86220214952E+01  0.30469415165E+02 -0.12354952195E+03  0.21393634389E+03  0.17176015356E+03 0.  0.
         24    2    3    3    0    0 -0.67061224147E+02 -0.13449735758E+01 -0.93025622050E+02  0.14058040206E+03  0.81302314527E+02 0.  0.
         -6    2    1    2    0  501  0.86220214952E+01 -0.30469415165E+02  0.57982293658E+02  0.18799239555E+03  0.17600133492E+03 0.  0.
        -24    2    5    5    0    0  0.65786818792E+02 -0.10557407108E+02  0.70485951694E+02  0.12600260947E+03  0.80430242041E+02 0.  0.
          5    1    3    3  502    0  0.58439202652E+02  0.31814388741E+02 -0.30523899900E+02  0.73355941836E+02  0.47000000000E+01 0. -1.
        -11    1    4    4    0    0 -0.35512781801E+02 -0.24366271517E+02 -0.38650154731E+01  0.43241313619E+02  0.00000000000E+00 0.  1.
         12    1    4    4    0    0 -0.31548442346E+02  0.23021297941E+02 -0.89160606577E+02  0.97339088441E+02  0.00000000000E+00 0. -1.
         -5    1    5    5    0  501 -0.57164797297E+02 -0.19912008058E+02 -0.12503658036E+02  0.61989786087E+02  0.47000000000E+01 0.  1.
         13    1    6    6    0    0  0.43863104283E+02  0.29064038957E+02  0.15670181593E+02  0.54902139020E+02  0.00000000000E+00 0. -1.
        -14    1    6    6    0    0  0.21923714509E+02 -0.39621446064E+02  0.54815770101E+02  0.71100470447E+02  0.00000000000E+00 0.  1.
</event>
<event>
12    1  0.2689284E-002  0.2110066E+03  0.7818608E-02  0.1140771E+00
          2   -1    0    0  502    0  0.00000000000E+00  0.00000000000E+00  0.23105304866E+03  0.23105304866E+03  0.00000000000E+00 0. -1.
         -2   -1    0    0    0  501 -0.00000000000E+00 -0.00000000000E+00 -0.24457969594E+03  0.24457969594E+03  0.00000000000E+00 0.  1.
          6    2    1    2  502    0  0.11909033677E+03 -0.23916846910E+02  0.10277162598E+03  0.23451755539E+03  0.17228451120E+03 0.  0.
         24    2    3    3    0    0  0.54491841822E+02 -0.71393853274E+02  0.28108246333E+02  0.12486473078E+03  0.82065122743E+02 0.  0.
         -6    2    1    2    0  501 -0.11909033677E+03  0.23916846910E+02 -0.11629827326E+03  0.24111518921E+03  0.17279097843E+03 0.  0.
        -24    2    5    5    0    0 -0.13872181261E+03  0.38802257941E+02 -0.12969549843E+03  0.21268024684E+03  0.87536327134E+02 0.  0.
          5    1    3    3  502    0  0.64598494952E+02  0.47477006364E+02  0.74663379650E+02  0.10965282461E+03  0.47000000000E+01 0. -1.
        -11    1    4    4    0    0 -0.14173839456E+02  0.83309944915E+01  0.38312691951E+01  0.16881404497E+02  0.00000000000E+00 0.  1.
         12    1    4    4    0    0  0.68665681278E+02 -0.79724847766E+02  0.24276977138E+02  0.10798332629E+03  0.00000000000E+00 0. -1.
         -5    1    5    5    0  501  0.19631475837E+02 -0.14885411031E+02  0.13397225177E+02  0.28434942369E+02  0.47000000000E+01 0.  1.
         13    1    6    6    0    0 -0.11676646432E+03  0.11021604917E+02 -0.54015175467E+02  0.12912599330E+03  0.00000000000E+00 0. -1.
        -14    1    6    6    0    0 -0.21955348290E+02  0.27780653024E+02 -0.75680322966E+02  0.83554253544E+02  0.00000000000E+00 0.  1.
</event>
<event>
12    1  0.2689284E-002  0.1756738E+03  0.7818608E-02  0.1172057E+00
         -1   -1    0    0    0  501 -0.00000000000E+00  0.00000000000E+00  0.10990157235E+03  0.10990157235E+03  0.00000000000E+00 0.  1.
          1   -1    0    0  502    0  0.00000000000E+00 -0.00000000000E+00 -0.32597085827E+03  0.32597085827E+03  0.00000000000E+00 0. -1.
          6    2    1    2  502    0  0.60150940174E+01  0.39452106507E+02 -0.18896592517E+03  0.25776953549E+03  0.17071720032E+03 0.  0.
         24    2    3    3    0    0  0.63949956230E+02  0.29126407941E+02 -0.75956321545E+02  0.13026922638E+03  0.79137627072E+02 0.  0.
         -6    2    1    2    0  501 -0.60150940174E+01 -0.39452106507E+02 -0.27103360749E+02  0.17810289514E+03  0.17144503209E+03 0.  0.
        -24    2    5    5    0    0 -0.46132076363E+02  0.26723211119E+02 -0.82166767332E+01  0.98307270144E+02  0.82185808413E+02 0.  0.
          5    1    3    3  502    0 -0.57934862212E+02  0.10325698566E+02 -0.11300960363E+03  0.12750030911E+03  0.47000000000E+01 0. -1.
        -13    1    4    4    0    0  0.21663947466E+02 -0.10620754721E+02  0.10359949036E+02  0.26257486451E+02  0.00000000000E+00 0.  1.
         14    1    4    4    0    0  0.42286008763E+02  0.39747162662E+02 -0.86316270581E+02  0.10401173993E+03  0.00000000000E+00 0. -1.
         -5    1    5    5    0  501  0.40116982345E+02 -0.66175317626E+02 -0.18886684016E+02  0.79795624996E+02  0.47000000000E+01 0.  1.
         13    1    6    6    0    0  0.15791618219E+02  0.73898373472E+01 -0.25759754219E+02  0.31105463176E+02  0.00000000000E+00 0. -1.
        -14    1    6    6    0    0 -0.61923694582E+02  0.19333373772E+02  0.17543077485E+02  0.67201806968E+02  0.00000000000E+00 0.  1.
</event>
<event>
12    1  0.2689284E-002  0.1805290E+03  0.7818608E-02  0.1167292E+00
         -2   -1    0    0    0  501 -0.00000000000E+00  0.00000000000E+00  0.17214120122E+02  0.17214120122E+02  0.00000000000E+00 0.  1.
          2   -1    0    0  502    0  0.00000000000E+00 -0.00000000000E+00 -0.26078876690E+04  0.26078876690E+04  0.00000000000E+00 0. -1.
          6    2    1    2  502    0 -0.12944480406E+02  0.26107763537E+02 -0.64639692992E+03  0.67308336710E+03  0.18537274118E+03 0.  0.
         24    2    3    3    0    0  0.23606241316E+02  0.30055903519E+02 -0.14439720308E+03  0.16971733843E+03  0.80577979270E+02 0.  0.
         -6    2    1    2    0  501  0.12944480406E+02 -0.26107763537E+02 -0.19442766190E+04  0.19520184220E+04  0.17121674563E+03 0.  0.
        -24    2    5    5    0    0 -0.91673170615E+01 -0.22822635964E+02 -0.19041296392E+04  0.19058275827E+04  0.76577933075E+02 0.  0.
          5    1    3    3  502    0 -0.36550721722E+02 -0.39481399818E+01 -0.50199972685E+03  0.50336602867E+03  0.47000000000E+01 0. -1.
        -13    1    4    4    0    0 -0.26462953197E+02  0.11084568199E+02 -0.22108725066E+02  0.36220867854E+02  0.00000000000E+00 0.  1.
         14    1    4    4    0    0  0.50069194513E+02  0.18971335321E+02 -0.12228847801E+03  0.13349647058E+03  0.00000000000E+00 0. -1.
         -5    1    5    5    0  501  0.22111797467E+02 -0.32851275734E+01 -0.40146979819E+02  0.46190839340E+02  0.47000000000E+01 0.  1.
         11    1    6    6    0    0 -0.36425923027E+02 -0.27693198670E+02 -0.15257959158E+04  0.15264818826E+04  0.00000000000E+00 0. -1.
        -12    1    6    6    0    0  0.27258605965E+02  0.48705627055E+01 -0.37833372336E+03  0.37934570014E+03  0.00000000000E+00 0.  1.
</event>
<event>
12    1  0.2689284E-002  0.2012062E+03  0.7818608E-02  0.1148725E+00
          4   -1    0    0  502    0  0.00000000000E+00  0.00000000000E+00  0.26089725457E+03  0.26089725457E+03  0.00000000000E+00 0. -1.
         -4   -1    0    0    0  501 -0.00000000000E+00 -0.00000000000E+00 -0.16356890485E+03  0.16356890485E+03  0.00000000000E+00 0.  1.
          6    2    1    2  502    0  0.36727504877E+02  0.99857492178E+02  0.96672208302E+02  0.22292275672E+03  0.17037784847E+03 0.  0.
         24    2    3    3    0    0 -0.39953525029E+02  0.43547094778E+02  0.35548316974E+02  0.10974563318E+03  0.85368539499E+02 0.  0.
         -6    2    1    2    0  501 -0.36727504877E+02 -0.99857492178E+02  0.65614141667E+00  0.20154340270E+03  0.17116916864E+03 0.  0.
        -24    2    5    5    0    0 -0.74999276697E+02 -0.19856178358E+02  0.12471441788E+02  0.11195194075E+03  0.79740459329E+02 0.  0.
          5    1    3    3  502    0  0.76681029906E+02  0.56310397399E+02  0.61123891328E+02  0.11317712354E+03  0.47000000000E+01 0. -1.
        -11    1    4    4    0    0 -0.11499665491E+02  0.65183460034E+02  0.12918792527E+02  0.67439016665E+02  0.00000000000E+00 0.  1.
         12    1    4    4    0    0 -0.28453859538E+02 -0.21636365256E+02  0.22629524447E+02  0.42306616513E+02  0.00000000000E+00 0. -1.
         -5    1    5    5    0  501  0.38271771820E+02 -0.80001313820E+02 -0.11815300372E+02  0.89591461948E+02  0.47000000000E+01 0.  1.
         13    1    6    6    0    0 -0.80801756179E+02  0.76506246774E+01 -0.84606184935E-01  0.81163187578E+02  0.00000000000E+00 0. -1.
        -14    1    6    6    0    0  0.58024794823E+01 -0.27506803035E+02  0.12556047973E+02  0.30788753175E+02  0.00000000000E+00 0.  1.
</event>
<event>
12    1  0.2689284E-002  0.1920360E+03  0.7818608E-02  0.1156638E+00
          2   -1    0    0  502    0  0.00000000000E+00  0.00000000000E+00  0.30897916831E+03  0.30897916831E+03  0.00000000000E+00 0. -1.
         -2   -1    0    0    0  501 -0.00000000000E+00 -0.00000000000E+00 -0.12676667093E+03  0.12676667093E+03  0.00000000000E+00 0.  1.
          6    2    1    2  502    0  0.74943656210E+01 -0.81025970150E+02  0.38064177265E+02  0.19497421583E+03  0.17304534057E+03 0.  0.
         24    2    3    3    0    0 -0.76623412937E+01  0.19217322868E+02  0.44648721039E+02  0.93269300627E+02  0.79231541553E+02 0.  0.
         -6    2    1    2    0  501 -0.74943656210E+01  0.81025970150E+02  0.14414832012E+03  0.24077162341E+03  0.17484525470E+03 0.  0.
        -24    2    5    5    0    0 -0.51632649977E+02  0.31659044423E+02  0.13839790516E+03  0.17413500604E+03  0.86607127533E+02 0.  0.
          5    1    3    3  502    0  0.15156706915E+02 -0.10024329302E+03 -0.65845437738E+01  0.10170491520E+03  0.47000000000E+01 0. -1.
        -13    1    4    4    0    0  0.86844832623E+01 -0.16895705987E+02 -0.13206582759E+02  0.23136528661E+02  0.00000000000E+00 0.  1.
         14    1    4    4    0    0 -0.16346824556E+02  0.36113028855E+02  0.57855303798E+02  0.70132771966E+02  0.00000000000E+00 0. -1.
         -5    1    5    5    0  501  0.44138284356E+02  0.49366925727E+02  0.57504149602E+01  0.66636617365E+02  0.47000000000E+01 0.  1.
         11    1    6    6    0    0 -0.56042242589E+01  0.21254474307E+02  0.12232336658E+03  0.12428260546E+03  0.00000000000E+00 0. -1.
        -12    1    6    6    0    0 -0.46028425718E+02  0.10404570116E+02  0.16074538575E+02  0.49852400582E+02  0.00000000000E+00 0.  1.
</event>
<event>
12    1  0.2689284E-002  0.1727218E+03  0.7818608E-02  0.1175039E+00
         -2   -1    0    0    0  501 -0.00000000000E+00  0.00000000000E+00  0.30350466763E+03  0.30350466763E+03  0.00000000000E+00 0. -1.
          2   -1    0    0  502    0  0.00000000000E+00 -0.00000000000E+00 -0.23102156728E+03  0.23102156728E+03  0.00000000000E+00 0.  1.
          6    2    1    2  502    0  0.10398088562E+02 -0.89968872034E+01 -0.16611449636E+03  0.24128468810E+03  0.17445690180E+03 0.  0.
         24    2    3    3    0    0 -0.41672223965E+02 -0.33558043040E+02 -0.38863351683E+02  0.10153665898E+03  0.77049441983E+02 0.  0.
         -6    2    1    2    0  501 -0.10398088562E+02  0.89968872034E+01  0.23859759671E+03  0.29324154681E+03  0.16991976752E+03 0.  0.
        -24    2    5    5    0    0 -0.29982994963E+02 -0.37931132570E+02  0.69550367944E+02  0.11664918245E+03  0.80199920694E+02 0.  0.
          5    1    3    3  502    0  0.52070312527E+02  0.24561155837E+02 -0.12725114467E+03  0.13974802912E+03  0.47000000000E+01 0. -1.
        -11    1    4    4    0    0 -0.12653791754E+02 -0.32848328608E+02 -0.57228248426E+02  0.67187822974E+02  0.00000000000E+00 0.  1.
         12    1    4    4    0    0 -0.29018432210E+02 -0.70971443221E+00  0.18364896744E+02  0.34348836005E+02  0.00000000000E+00 0. -1.
         -5    1    5    5    0  501  0.19584906401E+02  0.46928019773E+02  0.16904722876E+03  0.17659236436E+03  0.47000000000E+01 0.  1.
         11    1    6    6    0    0 -0.10142938515E+02 -0.12838341378E+02  0.81028232509E+02  0.82663635745E+02  0.00000000000E+00 0. -1.
        -12    1    6    6    0    0 -0.19840056448E+02 -0.25092791191E+02 -0.11477864565E+02  0.33985546702E+02  0.00000000000E+00 0.  1.
</event>
<event>
12    1  0.2689284E-002  0.1730224E+03  0.7818608E-02  0.1174732E+00
          2   -1    0    0  502    0  0.00000000000E+00  0.00000000000E+00  0.10760261889E+03  0.10760261889E+03  0.00000000000E+00 0.  1.
         -2   -1    0    0    0  501 -0.00000000000E+00 -0.00000000000E+00 -0.41160043958E+03  0.41160043958E+03  0.00000000000E+00 0. -1.
          6    2    1    2  502    0  0.10870370979E+02  0.77824309794E+01 -0.45327878706E+01  0.17361154028E+03  0.17303667112E+03 0.  0.
         24    2    3    3    0    0  0.74656328425E+02  0.19942674697E+01 -0.95263656542E+01  0.10919743450E+03  0.79093511627E+02 0.  0.
         -6    2    1    2    0  501 -0.10870370979E+02 -0.77824309794E+01 -0.29946503282E+03  0.34559151819E+03  0.17197517370E+03 0.  0.
        -24    2    5    5    0    0 -0.24766949306E+01 -0.61832581276E+02 -0.11807159741E+03  0.15607228182E+03  0.81168053528E+02 0.  0.
          5    1    3    3  502    0 -0.63785957447E+02  0.57881635097E+01  0.49935777836E+01  0.64414105779E+02  0.47000000000E+01 0. -1.
        -11    1    4    4    0    0  0.68655467285E+02  0.16271851754E+02  0.22137627370E+02  0.73948772087E+02  0.00000000000E+00 0.  1.
         12    1    4    4    0    0  0.60008611400E+01 -0.14277584285E+02 -0.31663993024E+02  0.35248662410E+02  0.00000000000E+00 0. -1.
         -5    1    5    5    0  501 -0.83936760480E+01  0.54050150296E+02 -0.18139343541E+03  0.18951923637E+03  0.47000000000E+01 0.  1.
         13    1    6    6    0    0  0.21076924641E+02 -0.55087819278E+02 -0.11760576524E+03  0.13156755148E+03  0.00000000000E+00 0. -1.
        -14    1    6    6    0    0 -0.23553619571E+02 -0.67447619974E+01 -0.46583216502E+00  0.24504730338E+02  0.00000000000E+00 0.  1.
</event>
<event>
12    1  0.2689284E-002  0.1923899E+03  0.7818608E-02  0.1156323E+00
          4   -1    0    0  502    0  0.00000000000E+00  0.00000000000E+00  0.15549106619E+04  0.15549106619E+04  0.00000000000E+00 0. -1.
         -4   -1    0    0    0  501 -0.00000000000E+00 -0.00000000000E+00 -0.24467648915E+02  0.24467648915E+02  0.00000000000E+00 0.  1.
          6    2    1    2  502    0  0.77207142258E+02  0.28966717773E+02  0.90317322428E+03  0.92388523085E+03  0.17618749434E+03 0.  0.
         24    2    3    3    0    0  0.81060944069E+02  0.81976766891E+02  0.68023401192E+03  0.69464976347E+03  0.80801707587E+02 0.  0.
         -6    2    1    2    0  501 -0.77207142258E+02 -0.28966717773E+02  0.62726978873E+03  0.65549308000E+03  0.17147529418E+03 0.  0.
        -24    2    5    5    0    0 -0.94231101104E+02 -0.20681210707E+02  0.62186775498E+03  0.63525112429E+03  0.86702210688E+02 0.  0.
          5    1    3    3  502    0 -0.38538018107E+01 -0.53010049118E+02  0.22293921236E+03  0.22923546738E+03  0.47000000000E+01 0. -1.
        -13    1    4    4    0    0  0.63051342363E+02  0.28382876285E+02  0.21144507886E+03  0.22246366179E+03  0.00000000000E+00 0.  1.
         14    1    4    4    0    0  0.18009601706E+02  0.53593890605E+02  0.46878893306E+03  0.47218610168E+03  0.00000000000E+00 0. -1.
         -5    1    5    5    0  501  0.17023958846E+02 -0.82855070656E+01  0.54020337513E+01  0.20241955705E+02  0.47000000000E+01 0.  1.
         13    1    6    6    0    0 -0.21267409606E+00 -0.10797848693E+01  0.28390858496E+03  0.28391071797E+03  0.00000000000E+00 0. -1.
        -14    1    6    6    0    0 -0.94018427008E+02 -0.19601425838E+02  0.33795917002E+03  0.35134040632E+03  0.00000000000E+00 0.  1.
</event>
<event>
12    1  0.2689284E-002  0.2077385E+03  0.7818608E-02  0.1143369E+00
         -2   -1    0    0    0  501 -0.00000000000E+00  0.00000000000E+00  0.13435723993E+02  0.13435723993E+02  0.00000000000E+00 0. -1.
          2   -1    0    0  502    0  0.00000000000E+00 -0.00000000000E+00 -0.33505989486E+04  0.33505989486E+04  0.00000000000E+00 0.  1.
          6    2    1    2  502    0 -0.29133436643E+01 -0.10198933751E+03 -0.19633645622E+04  0.19737369532E+04  0.17443292039E+03 0.  0.
         24    2    3    3    0    0  0.53342847463E+02 -0.28937245052E+02 -0.13154602007E+04  0.13192879339E+04  0.80014306532E+02 0.  0.
         -6    2    1    2    0  501  0.29133436643E+01  0.10198933751E+03 -0.13737986625E+04  0.13902977195E+04  0.18760242864E+03 0.  0.
        -24    2    5    5    0    0  0.35073165464E+01  0.61387321940E+02 -0.31499173039E+03  0.33070200134E+03  0.79770413754E+02 0.  0.
          5    1    3    3  502    0 -0.56256191127E+02 -0.73052092461E+02 -0.64790436144E+03  0.65444901927E+03  0.47000000000E+01 0. -1.
        -13    1    4    4    0    0  0.30252833712E+02  0.12206057565E+02 -0.97818894871E+03  0.97873277311E+03  0.00000000000E+00 0.  1.
         14    1    4    4    0    0  0.23090013751E+02 -0.41143302617E+02 -0.33727125203E+03  0.34055516078E+03  0.00000000000E+00 0. -1.
         -5    1    5    5    0  501 -0.59397288208E+00  0.40602015572E+02 -0.10588069321E+04  0.10595957181E+04  0.47000000000E+01 0.  1.
         11    1    6    6    0    0  0.22801341793E+02 -0.99870574221E+01 -0.54404700755E+02  0.59829039502E+02  0.00000000000E+00 0. -1.
        -12    1    6    6    0    0 -0.19294025247E+02  0.71374379363E+02 -0.26058702964E+03  0.27087296184E+03  0.00000000000E+00 0.  1.
</event>
<event>
12    1  0.2689284E-002  0.1801162E+03  0.7818608E-02  0.1167691E+00
         -3   -1    0    0    0  501 -0.00000000000E+00  0.00000000000E+00  0.17934207046E+03  0.17934207046E+03  0.00000000000E+00 0. -1.
          3   -1    0    0  502    0  0.00000000000E+00 -0.00000000000E+00 -0.18618562230E+03  0.18618562230E+03  0.00000000000E+00 0.  1.
          6    2    1    2  502    0  0.41714086142E+02  0.38032919340E+02  0.27394446468E+02  0.18189555728E+03  0.17073069474E+03 0.  0.
         24    2    3    3    0    0  0.82449976948E+02  0.23591266135E+01  0.48263763144E+02  0.12367485078E+03  0.78501679635E+02 0.  0.
         -6    2    1    2    0  501 -0.41714086142E+02 -0.38032919340E+02 -0.34237998309E+02  0.18363213548E+03  0.17135329794E+03 0.  0.
        -24    2    5    5    0    0 -0.15786915160E+02 -0.49304443639E+02  0.36494350133E+02  0.10731424392E+03  0.86627677473E+02 0.  0.
          5    1    3    3  502    0 -0.40735890806E+02  0.35673792726E+02 -0.20869316676E+02  0.58220706503E+02  0.47000000000E+01 0. -1.
        -11    1    4    4    0    0  0.31998091938E+01  0.29724752223E+02  0.10108078047E+02  0.31559038569E+02  0.00000000000E+00 0.  1.
         12    1    4    4    0    0  0.79250167754E+02 -0.27365625609E+02  0.38155685097E+02  0.92115812211E+02  0.00000000000E+00 0. -1.
         -5    1    5    5    0  501 -0.25927170982E+02  0.11271524300E+02 -0.70732348442E+02  0.76317891554E+02  0.47000000000E+01 0.  1.
         13    1    6    6    0    0 -0.42708124895E+02 -0.56172308384E+01 -0.20656983465E+01  0.43125448682E+02  0.00000000000E+00 0. -1.
        -14    1    6    6    0    0  0.26921209734E+02 -0.43687212801E+02  0.38560048479E+02  0.64188795242E+02  0.00000000000E+00 0.  1.
</event>
<event>
12    1  0.2689284E-002  0.1760280E+03  0.7818608E-02  0.1171703E+00
         -2   -1    0    0    0  501 -0.00000000000E+00  0.00000000000E+00  0.13939804931E+02  0.13939804931E+02  0.00000000000E+00 0.  1.
          2   -1    0    0  502    0  0.00000000000E+00 -0.00000000000E+00 -0.22638901306E+04  0.22638901306E+04  0.00000000000E+00 0. -1.
          6    2    1    2  502    0 -0.14474984359E+02 -0.32498987530E+02 -0.12759112327E+04  0.12879440541E+04  0.17200204512E+03 0.  0.
         24    2    3    3    0    0  0.18021703800E+02  0.19547214156E+02 -0.10625853805E+04  0.10659196162E+04  0.79937862444E+02 0.  0.
         -6    2    1    2    0  501  0.14474984359E+02  0.32498987530E+02 -0.97403909295E+03  0.98988588137E+03  0.17278945038E+03 0.  0.
        -24    2    5    5    0    0 -0.41938720042E+01  0.85323392380E+02 -0.76132569660E+03  0.76986764818E+03  0.76037553635E+02 0.  0.
          5    1    3    3  502    0 -0.32496688159E+02 -0.52046201686E+02 -0.21332585216E+03  0.22202443796E+03  0.47000000000E+01 0. -1.
        -13    1    4    4    0    0 -0.86127859270E+01  0.13030507791E+01 -0.11947415101E+02  0.14785761744E+02  0.00000000000E+00 0.  1.
         14    1    4    4    0    0  0.26634489727E+02  0.18244163377E+02 -0.10506379654E+04  0.10511338544E+04  0.00000000000E+00 0. -1.
         -5    1    5    5    0  501  0.18668856363E+02 -0.52824404849E+02 -0.21271339636E+03  0.22001823319E+03  0.47000000000E+01 0.  1.
         13    1    6    6    0    0 -0.10098750120E+02  0.29785407246E+02 -0.56159729619E+03  0.56247726916E+03  0.00000000000E+00 0. -1.
        -14    1    6    6    0    0  0.59048781153E+01  0.55537985134E+02 -0.19972840041E+03  0.20739037901E+03  0.00000000000E+00 0.  1.
</event>
<event>
12    1  0.2689284E-002  0.1738816E+03  0.7818608E-02  0.1173859E+00
         -2   -1    0    0    0  501 -0.00000000000E+00  0.00000000000E+00  0.14164132264E+03  0.14164132264E+03  0.00000000000E+00 0. -1.
          2   -1    0    0  502    0  0.00000000000E+00 -0.00000000000E+00 -0.21688939003E+03  0.21688939003E+03  0.00000000000E+00 0.  1.
          6    2    1    2  502    0  0.82556531564E+01 -0.21704873399E+02 -0.60074282650E+02  0.18358289987E+03  0.17191423545E+03 0.  0.
         24    2    3    3    0    0 -0.27169624218E+02 -0.65980332888E+02 -0.13357035994E+02  0.10996321687E+03  0.82594829417E+02 0.  0.
         -6    2    1    2    0  501 -0.82556531564E+01  0.21704873399E+02 -0.15173784742E+02  0.17494781279E+03  0.17273458287E+03 0.  0.
        -24    2    5    5    0    0  0.35648429870E+01 -0.33733982977E+02  0.41026421890E+02  0.94986921405E+02  0.78668025474E+02 0.  0.
          5    1    3    3  502    0  0.35425277374E+02  0.44275459489E+02 -0.46717246657E+02  0.73619683001E+02  0.47000000000E+01 0. -1.
        -13    1    4    4    0    0  0.13455061832E+02 -0.37623625572E+01 -0.30638585215E+02  0.33673683566E+02  0.00000000000E+00 0.  1.
         14    1    4    4    0    0 -0.40624686050E+02 -0.62217970331E+02  0.17281549221E+02  0.76289533307E+02  0.00000000000E+00 0. -1.
         -5    1    5    5    0  501 -0.11820496143E+02  0.55438856376E+02 -0.56200206632E+02  0.79960891384E+02  0.47000000000E+01 0.  1.
         13    1    6    6    0    0 -0.22640798894E+02  0.13097809474E+02  0.30709631757E+02  0.40339061345E+02  0.00000000000E+00 0. -1.
        -14    1    6    6    0    0  0.26205641881E+02 -0.46831792451E+02  0.10316790133E+02  0.54647860061E+02  0.00000000000E+00 0.  1.
</event>
<event>
12    1  0.2689284E-002  0.3386068E+03  0.7818608E-02  0.1067391E+00
          2   -1    0    0  502    0  0.00000000000E+00  0.00000000000E+00  0.11666022310E+03  0.11666022310E+03  0.00000000000E+00 0.  1.
         -2   -1    0    0    0  501 -0.00000000000E+00 -0.00000000000E+00 -0.98324141345E+03  0.98324141345E+03  0.00000000000E+00 0. -1.
          6    2    1    2  502    0  0.40906252391E+02 -0.28860581134E+03 -0.42237646167E+03  0.54164395327E+03  0.17323296716E+03 0.  0.
         24    2    3    3    0    0  0.65571786549E+02 -0.19667787447E+03 -0.19148455364E+03  0.29185945145E+03  0.74389243982E+02 0.  0.
         -6    2    1    2    0  501 -0.40906252391E+02  0.28860581134E+03 -0.44420472868E+03  0.55825768329E+03  0.17136850396E+03 0.  0.
        -24    2    5    5    0    0 -0.88433312805E+02  0.22912821723E+03 -0.37309865712E+03  0.45397648132E+03  0.81066928520E+02 0.  0.
          5    1    3    3  502    0 -0.24665534158E+02 -0.91927936871E+02 -0.23089190803E+03  0.24978450182E+03  0.47000000000E+01 0. -1.
        -13    1    4    4    0    0  0.60428249616E+01  0.54588423868E+01 -0.17994914440E+01  0.83398359203E+01  0.00000000000E+00 0.  1.
         14    1    4    4    0    0  0.59528961587E+02 -0.20213671686E+03 -0.18968506220E+03  0.28351961553E+03  0.00000000000E+00 0. -1.
         -5    1    5    5    0  501  0.47527060414E+02  0.59477594109E+02 -0.71106071558E+02  0.10428120197E+03  0.47000000000E+01 0.  1.
         11    1    6    6    0    0  0.13063730024E+02  0.59728190947E+02 -0.86094748765E+02  0.10559556620E+03  0.00000000000E+00 0. -1.
        -12    1    6    6    0    0 -0.10149704283E+03  0.16940002629E+03 -0.28700390835E+03  0.34838091512E+03  0.00000000000E+00 0.  1.
</event>
<event>
12    1  0.2689284E-002  0.2586772E+03  0.7818608E-02  0.1107941E+00
         -4   -1    0    0    0  501 -0.00000000000E+00  0.00000000000E+00  0.73751908927E+02  0.73751908927E+02  0.00000000000E+00 0. -1.
          4   -1    0    0  502    0  0.00000000000E+00 -0.00000000000E+00 -0.94810066743E+03  0.94810066743E+03  0.00000000000E+00 0.  1.
          6    2    1    2  502    0  0.16120059187E+03 -0.10729965034E+03 -0.33123365010E+03  0.42030000131E+03  0.17157364123E+03 0.  0.
         24    2    3    3    0    0  0.17305789468E+03 -0.59919290354E+02 -0.30901025514E+03  0.36643476739E+03  0.72441319026E+02 0.  0.
         -6    2    1    2    0  501 -0.16120059187E+03  0.10729965034E+03 -0.54311510840E+03  0.60155257504E+03  0.17144280030E+03 0.  0.
        -24    2    5    5    0    0 -0.40274919248E+02  0.68871830197E+02 -0.10582300055E+03  0.14619975221E+03  0.61728939628E+02 0.  0.
          5    1    3    3  502    0 -0.11857302802E+02 -0.47380359990E+02 -0.22223394952E+02  0.53865233924E+02  0.47000000000E+01 0. -1.
        -11    1    4    4    0    0  0.44276401201E+02 -0.44953967859E+02 -0.67989864238E+02  0.92757105220E+02  0.00000000000E+00 0.  1.
         12    1    4    4    0    0  0.12878149348E+03 -0.14965322495E+02 -0.24102039091E+03  0.27367766217E+03  0.00000000000E+00 0. -1.
         -5    1    5    5    0  501 -0.12092567263E+03  0.38427820147E+02 -0.43729210786E+03  0.45535282282E+03  0.47000000000E+01 0.  1.
         13    1    6    6    0    0 -0.46401587094E+02  0.32398635107E+02 -0.89230889977E+02  0.10566423505E+03  0.00000000000E+00 0. -1.
        -14    1    6    6    0    0  0.61266678464E+01  0.36473195090E+02 -0.16592110570E+02  0.40535517168E+02  0.00000000000E+00 0.  1.
</event>
<event>
12    1  0.2689284E-002  0.1730806E+03  0.7818608E-02  0.1174673E+00
          2   -1    0    0  502    0  0.00000000000E+00  0.00000000000E+00  0.34071613745E+03  0.34071613745E+03  0.00000000000E+00 0.  1.
         -2   -1    0    0    0  501 -0.00000000000E+00 -0.00000000000E+00 -0.18646517382E+03  0.18646517382E+03  0.00000000000E+00 0. -1.
          6    2    1    2  502    0 -0.22111425947E+02 -0.39317726322E+01 -0.11459864297E+03  0.20716498771E+03  0.17111431609E+03 0.  0.
         24    2    3    3    0    0 -0.55508511430E+02 -0.19833231405E+02 -0.13245586305E+03  0.16582261213E+03  0.80486217014E+02 0.  0.
         -6    2    1    2    0  501  0.22111425947E+02  0.39317726322E+01  0.26884960659E+03  0.32001632355E+03  0.17212194045E+03 0.  0.
        -24    2    5    5    0    0 -0.44097810861E+02  0.34956063282E+02  0.17819510520E+03  0.20345518821E+03  0.80461014234E+02 0.  0.
          5    1    3    3  502    0  0.33397085482E+02  0.15901458773E+02  0.17857220081E+02  0.41342375583E+02  0.47000000000E+01 0. -1.
        -13    1    4    4    0    0 -0.58104000781E+01 -0.39912471170E+02 -0.85610619229E+02  0.94635850652E+02  0.00000000000E+00 0.  1.
         14    1    4    4    0    0 -0.49698111352E+02  0.20079239764E+02 -0.46845243818E+02  0.71186761478E+02  0.00000000000E+00 0. -1.
         -5    1    5    5    0  501  0.66209236808E+02 -0.31024290649E+02  0.90654501395E+02  0.11656113534E+03  0.47000000000E+01 0.  1.
         11    1    6    6    0    0 -0.28434260101E+02 -0.22429146861E+02  0.46418947122E+02  0.58875227628E+02  0.00000000000E+00 0. -1.
        -12    1    6    6    0    0 -0.15663550760E+02  0.57385210142E+02  0.13177615807E+03  0.14457996058E+03  0.00000000000E+00 0.  1.
</event>
<event>
12    1  0.2689284E-002  0.1816416E+03  0.7818608E-02  0.1166224E+00
          1   -1    0    0  502    0  0.00000000000E+00  0.00000000000E+00  0.11337463028E+04  0.11337463028E+04  0.00000000000E+00 0.  1.
         -1   -1    0    0    0  501 -0.00000000000E+00 -0.00000000000E+00 -0.59815682873E+02  0.59815682873E+02  0.00000000000E+00 0. -1.
          6    2    1    2  502    0  0.31552397844E+02  0.49859105468E+02  0.11009246189E+03  0.21285539615E+03  0.17235308323E+03 0.  0.
         24    2    3    3    0    0  0.10562776738E+02 -0.25559998889E+02  0.10439972851E+03  0.13422268852E+03  0.79696555792E+02 0.  0.
         -6    2    1    2    0  501 -0.31552397844E+02 -0.49859105468E+02  0.96383815801E+03  0.98070658949E+03  0.17123065038E+03 0.  0.
        -24    2    5    5    0    0 -0.66551037703E+02  0.15725551261E+02  0.50155842549E+03  0.51246424509E+03  0.79890016500E+02 0.  0.
          5    1    3    3  502    0  0.20989621106E+02  0.75419104357E+02  0.56927333788E+01  0.78632707632E+02  0.47000000000E+01 0. -1.
        -11    1    4    4    0    0  0.41183892806E+02 -0.34581799468E+01  0.30949199573E+02  0.51632596191E+02  0.00000000000E+00 0.  1.
         12    1    4    4    0    0 -0.30621116068E+02 -0.22101818942E+02  0.73450528939E+02  0.82590092331E+02  0.00000000000E+00 0. -1.
         -5    1    5    5    0  501  0.34998639859E+02 -0.65584656729E+02  0.46227973252E+03  0.46824234440E+03  0.47000000000E+01 0.  1.
         11    1    6    6    0    0 -0.39941562975E+02  0.48388809797E+02  0.28127132832E+03  0.28818460316E+03  0.00000000000E+00 0. -1.
        -12    1    6    6    0    0 -0.26609474728E+02 -0.32663258536E+02  0.22028709717E+03  0.22427964193E+03  0.00000000000E+00 0.  1.
</event>
<event>
12    1  0.2689284E-002  0.1754353E+03  0.7818608E-02  0.1172295E+00
          1   -1    0    0  502    0  0.00000000000E+00  0.00000000000E+00  0.47037076853E+03  0.47037076853E+03  0.00000000000E+00 0. -1.
         -1   -1    0    0    0  501 -0.00000000000E+00 -0.00000000000E+00 -0.66460557259E+02  0.66460557259E+02  0.00000000000E+00 0.  1.
          6    2    1    2  502    0 -0.21620087768E+02  0.30877485969E+02  0.23529652189E+03  0.29347746877E+03  0.17130009962E+03 0.  0.
         24    2    3    3    0    0 -0.59809199133E+02  0.58311700216E+02  0.20962613081E+03  0.23969918955E+03  0.80840534817E+02 0.  0.
         -6    2    1    2    0  501  0.21620087768E+02 -0.30877485969E+02  0.16861368938E+03  0.24335385702E+03  0.17137583302E+03 0.  0.
        -24    2    5    5    0    0  0.47183802354E+02 -0.40669310999E+02  0.18498170772E+03  0.21111435694E+03  0.80440881721E+02 0.  0.
          5    1    3    3  502    0  0.38189111365E+02 -0.27434214248E+02  0.25670391079E+02  0.53778279225E+02  0.47000000000E+01 0. -1.
        -11    1    4    4    0    0 -0.80168397877E+02  0.45380197444E+02  0.16687702464E+03  0.19061551797E+03  0.00000000000E+00 0.  1.
         12    1    4    4    0    0  0.20359198744E+02  0.12931502772E+02  0.42749106171E+02  0.49083671581E+02  0.00000000000E+00 0. -1.
         -5    1    5    5    0  501 -0.25563714586E+02  0.97918250301E+01 -0.16368018338E+02  0.32239500077E+02  0.47000000000E+01 0.  1.
         13    1    6    6    0    0  0.68982398997E+02 -0.21432080394E+02  0.14035973219E+03  0.15785677009E+03  0.00000000000E+00 0. -1.
        -14    1    6    6    0    0 -0.21798596644E+02 -0.19237230604E+02  0.44621975529E+02  0.53257586850E+02  0.00000000000E+00 0.  1.
</event>
<event>
12    1  0.2689284E-002  0.2257607E+03  0.7818608E-02  0.1129660E+00
          4   -1    0    0  502    0  0.00000000000E+00  0.00000000000E+00  0.19416738976E+03  0.19416738976E+03  0.00000000000E+00 0.  1.
         -4   -1    0    0    0  501 -0.00000000000E+00 -0.00000000000E+00 -0.33651140351E+03  0.33651140351E+03  0.00000000000E+00 0. -1.
          6    2    1    2  502    0 -0.23403865295E+02  0.14443075098E+03  0.53080205414E+02  0.23265752562E+03  0.17292782680E+03 0.  0.
         24    2    3    3    0    0  0.37390798005E+02  0.27822269576E+02  0.29347565495E+02  0.98945681652E+02  0.82199865311E+02 0.  0.
         -6    2    1    2    0  501  0.23403865295E+02 -0.14443075098E+03 -0.19542421916E+03  0.29802126765E+03  0.17093293362E+03 0.  0.
        -24    2    5    5    0    0  0.24623919374E+02 -0.19238503979E+02 -0.14001906733E+03  0.16103072750E+03  0.73137531693E+02 0.  0.
          5    1    3    3  502    0 -0.60794663300E+02  0.11660848140E+03  0.23732639918E+02  0.13371184397E+03  0.47000000000E+01 0. -1.
        -13    1    4    4    0    0  0.14870767310E+02  0.16320550931E+02  0.57207821160E+02  0.61320754276E+02  0.00000000000E+00 0.  1.
         14    1    4    4    0    0  0.22520030695E+02  0.11501718645E+02 -0.27860255665E+02  0.37624927375E+02  0.00000000000E+00 0. -1.
         -5    1    5    5    0  501 -0.12200540794E+01 -0.12519224700E+03 -0.55405151831E+02  0.13699054015E+03  0.47000000000E+01 0.  1.
         13    1    6    6    0    0  0.42852764247E+02 -0.32288637698E+02 -0.74710142573E+02  0.91981090074E+02  0.00000000000E+00 0. -1.
        -14    1    6    6    0    0 -0.18228844873E+02  0.13050133720E+02 -0.65308924760E+02  0.69049637427E+02  0.00000000000E+00 0.  1.
</event>
<event>
12    1  0.2689284E-002  0.1965841E+03  0.7818608E-02  0.1152653E+00
         -1   -1    0    0    0  501 -0.00000000000E+00  0.00000000000E+00  0.53683593234E+02  0.53683593234E+02  0.00000000000E+00 0.  1.
          1   -1    0    0  502    0  0.00000000000E+00 -0.00000000000E+00 -0.73342378087E+03  0.73342378087E+03  0.00000000000E+00 0. -1.
          6    2    1    2  502    0 -0.49680028935E+02 -0.77874283186E+02 -0.28126984979E+03  0.34132834880E+03  0.16988173545E+03 0.  0.
         24    2    3    3    0    0  0.28728061109E+02 -0.75501726090E+02 -0.16849979789E+03  0.20387787694E+03  0.81536462257E+02 0.  0.
         -6    2    1    2    0  501  0.49680028935E+02  0.77874283186E+02 -0.39847033785E+03  0.44577902530E+03  0.17722251549E+03 0.  0.
        -24    2    5    5    0    0  0.46976662382E+01  0.17442478169E+01 -0.75767406760E+02  0.11114718735E+03  0.81165798583E+02 0.  0.
          5    1    3    3  502    0 -0.78408090044E+02 -0.23725570958E+01 -0.11277005190E+03  0.13745047187E+03  0.47000000000E+01 0. -1.
        -11    1    4    4    0    0 -0.27349046420E+02 -0.13918165724E+02 -0.35219419377E+02  0.46712880220E+02  0.00000000000E+00 0.  1.
         12    1    4    4    0    0  0.56077107529E+02 -0.61583560366E+02 -0.13328037851E+03  0.15716499671E+03  0.00000000000E+00 0. -1.
         -5    1    5    5    0  501  0.44982362697E+02  0.76130035369E+02 -0.32270293109E+03  0.33463183795E+03  0.47000000000E+01 0.  1.
         13    1    6    6    0    0  0.15127792144E+02 -0.27060816058E+02 -0.74263683933E+02  0.80475043412E+02  0.00000000000E+00 0. -1.
        -14    1    6    6    0    0 -0.10430125906E+02  0.28805063875E+02 -0.15037228273E+01  0.30672143936E+02  0.00000000000E+00 0.  1.
</event>
<event>
12    1  0.2689284E-002  0.1742165E+03  0.7818608E-02  0.1173521E+00
          2   -1    0    0  502    0  0.00000000000E+00  0.00000000000E+00  0.59075209959E+03  0.59075209959E+03  0.00000000000E+00 0.  1.
         -2   -1    0    0    0  501 -0.00000000000E+00 -0.00000000000E+00 -0.61372542174E+02  0.61372542174E+02  0.00000000000E+00 0. -1.
          6    2    1    2  502    0 -0.19307516432E+02  0.45458289519E+01  0.13424198483E+03  0.22064116121E+03  0.17397748928E+03 0.  0.
         24    2    3    3    0    0  0.11129384415E+02 -0.30449809119E+02  0.66651928290E+01  0.84813964099E+02  0.78089241499E+02 0.  0.
         -6    2    1    2    0  501  0.19307516432E+02 -0.45458289519E+01  0.39513757258E+03  0.43148348055E+03  0.17219421585E+03 0.  0.
        -24    2    5    5    0    0  0.26245696763E+01 -0.69167235653E+02  0.22540889469E+03  0.24904400835E+03  0.80142082819E+02 0.  0.
          5    1    3    3  502    0 -0.30436900846E+02  0.34995638070E+02  0.12757679200E+03  0.13582719711E+03  0.47000000000E+01 0. -1.
        -13    1    4    4    0    0  0.93306331985E+01 -0.48391782576E+02  0.28157066321E+02  0.56759542991E+02  0.00000000000E+00 0.  1.
         14    1    4    4    0    0  0.17987512164E+01  0.17941973457E+02 -0.21491873492E+02  0.28054421108E+02  0.00000000000E+00 0. -1.
         -5    1    5    5    0  501  0.16682946755E+02  0.64621406701E+02  0.16972867790E+03  0.18243947220E+03  0.47000000000E+01 0.  1.
         11    1    6    6    0    0 -0.25933953787E+02  0.38584076537E+01  0.74511839807E+02  0.78990325610E+02  0.00000000000E+00 0. -1.
        -12    1    6    6    0    0  0.28558523463E+02 -0.73025643306E+02  0.15089705488E+03  0.17005368274E+03  0.00000000000E+00 0.  1.
</event>
<event>
12    1  0.2689284E-002  0.1943331E+03  0.7818608E-02  0.1154610E+00
          1   -1    0    0  502    0  0.00000000000E+00  0.00000000000E+00  0.86808027663E+02  0.86808027663E+02  0.00000000000E+00 0.  1.
         -1   -1    0    0    0  501 -0.00000000000E+00 -0.00000000000E+00 -0.58147982700E+03  0.58147982700E+03  0.00000000000E+00 0. -1.
          6    2    1    2  502    0  0.65327521377E+02 -0.11813317472E+02 -0.90045436695E+02  0.22355624100E+03  0.19355095635E+03 0.  0.
         24    2    3    3    0    0  0.63829006341E+01 -0.39905639575E+02  0.24453475501E+02  0.91663338354E+02  0.78555672257E+02 0.  0.
         -6    2    1    2    0  501 -0.65327521377E+02  0.11813317472E+02 -0.40462636265E+03  0.44473161366E+03  0.17221055520E+03 0.  0.
        -24    2    5    5    0    0 -0.10800802073E+03  0.30360222553E+02 -0.31014684296E+03  0.33930826543E+03  0.79696669542E+02 0.  0.
          5    1    3    3  502    0  0.58944620743E+02  0.28092322103E+02 -0.11449891220E+03  0.13189290265E+03  0.47000000000E+01 0. -1.
        -13    1    4    4    0    0  0.12687044338E+02  0.16610750653E+02 -0.12013644104E+02  0.24108209721E+02  0.00000000000E+00 0.  1.
         14    1    4    4    0    0 -0.63041437041E+01 -0.56516390229E+02  0.36467119605E+02  0.67555128633E+02  0.00000000000E+00 0. -1.
         -5    1    5    5    0  501  0.42680499348E+02 -0.18546905081E+02 -0.94479519683E+02  0.10542334823E+03  0.47000000000E+01 0.  1.
         13    1    6    6    0    0 -0.85437024339E+02  0.14293037844E+02 -0.29556923795E+03  0.30800154299E+03  0.00000000000E+00 0. -1.
        -14    1    6    6    0    0 -0.22570996386E+02  0.16067184709E+02 -0.14577605009E+02  0.31306722443E+02  0.00000000000E+00 0.  1.
</event>
<event>
12    1  0.2689284E-002  0.2371812E+03  0.7818608E-02  0.1121685E+00
          1   -1    0    0  502    0  0.00000000000E+00  0.00000000000E+00  0.57413354451E+03  0.57413354451E+03  0.00000000000E+00 0. -1.
         -1   -1    0    0    0  501 -0.00000000000E+00 -0.00000000000E+00 -0.15261350927E+03  0.15261350927E+03  0.00000000000E+00 0.  1.
          6    2    1    2  502    0  0.14960013596E+03  0.62557898452E+02 -0.57629704684E+01  0.23878905875E+03  0.17519506675E+03 0.  0.
         24    2    3    3    0    0  0.31174813415E+02  0.55832487845E+02  0.39534811404E+02  0.11173093344E+03  0.82653883655E+02 0.  0.
         -6    2    1    2    0  501 -0.14960013596E+03 -0.62557898452E+02  0.42728300571E+03  0.48795799503E+03  0.17099282620E+03 0.  0.
        -24    2    5    5    0    0 -0.35800590245E+02 -0.69445488896E+02  0.28025532911E+03  0.30184780404E+03  0.80403290473E+02 0.  0.
          5    1    3    3  502    0  0.11842532254E+03  0.67254106076E+01 -0.45297781873E+02  0.12705812532E+03  0.47000000000E+01 0. -1.
        -13    1    4    4    0    0 -0.11331872659E+02  0.59382328528E+02  0.32051122167E+02  0.68424752185E+02  0.00000000000E+00 0.  1.
         14    1    4    4    0    0  0.42506686074E+02 -0.35498406838E+01  0.74836892378E+01  0.43306181251E+02  0.00000000000E+00 0. -1.
         -5    1    5    5    0  501 -0.11379954571E+03  0.68875904442E+01  0.14702767660E+03  0.18611019099E+03  0.47000000000E+01 0.  1.
         11    1    6    6    0    0 -0.50782112295E+02 -0.39033333855E+02  0.24376498477E+03  0.25203926655E+03  0.00000000000E+00 0. -1.
        -12    1    6    6    0    0  0.14981522050E+02 -0.30412155041E+02  0.36490344339E+02  0.49808537493E+02  0.00000000000E+00 0.  1.
</event>
<event>
12    1  0.2689284E-002  0.2075851E+03  0.7818608E-02  0.1143493E+00
         -1   -1    0    0    0  501 -0.00000000000E+00  0.00000000000E+00  0.50918555344E+02  0.50918555344E+02  0.00000000000E+00 0. -1.
          1   -1    0    0  502    0  0.00000000000E+00 -0.00000000000E+00 -0.86443187476E+03  0.86443187476E+03  0.00000000000E+00 0.  1.
          6    2    1    2  502    0  0.40250128084E+02 -0.10892354289E+03 -0.34153050214E+03  0.39996021419E+03  0.17274454559E+03 0.  0.
         24    2    3    3    0    0  0.67879707016E+02 -0.15425655523E+02 -0.22028865679E+03  0.24431021053E+03  0.79465597495E+02 0.  0.
         -6    2    1    2    0  501 -0.40250128084E+02  0.10892354289E+03 -0.47198281727E+03  0.51539021591E+03  0.17139102617E+03 0.  0.
        -24    2    5    5    0    0 -0.39882087939E+02  0.88336088227E+02 -0.16164252018E+03  0.20433207224E+03  0.78926839519E+02 0.  0.
          5    1    3    3  502    0 -0.27629578933E+02 -0.93497887371E+02 -0.12124184536E+03  0.15565000366E+03  0.47000000000E+01 0. -1.
        -13    1    4    4    0    0 -0.19862249068E+01 -0.20141730184E+01 -0.12679980199E+03  0.12683135167E+03  0.00000000000E+00 0.  1.
         14    1    4    4    0    0  0.69865931923E+02 -0.13411482505E+02 -0.93488854800E+02  0.11747885886E+03  0.00000000000E+00 0. -1.
         -5    1    5    5    0  501 -0.36804014498E+00  0.20587454667E+02 -0.31034029709E+03  0.31105814367E+03  0.47000000000E+01 0.  1.
         13    1    6    6    0    0 -0.19811335870E+02  0.11777036388E+01 -0.82664154018E+02  0.85013165888E+02  0.00000000000E+00 0. -1.
        -14    1    6    6    0    0 -0.20070752068E+02  0.87158384588E+02 -0.78978366160E+02  0.11931890636E+03  0.00000000000E+00 0.  1.
</event>
<event>
12    1  0.2689284E-002  0.2488557E+03  0.7818608E-02  0.1114030E+00
          2   -1    0    0  502    0  0.00000000000E+00  0.00000000000E+00  0.84889566003E+03  0.84889566003E+03  0.00000000000E+00 0.  1.
         -2   -1    0    0    0  501 -0.00000000000E+00 -0.00000000000E+00 -0.79440646003E+02  0.79440646003E+02  0.00000000000E+00 0. -1.
          6    2    1    2  502    0  0.17908030274E+03 -0.16792283910E+02  0.51760196791E+03  0.57438615779E+03  0.17220895866E+03 0.  0.
         24    2    3    3    0    0  0.16236928148E+03 -0.53801538340E+02  0.49018323221E+03  0.52516400614E+03  0.79115378476E+02 0.  0.
         -6    2    1    2    0  501 -0.17908030274E+03  0.16792283910E+02  0.25185304612E+03  0.35395014825E+03  0.17175277284E+03 0.  0.
        -24    2    5    5    0    0 -0.60493193835E+02 -0.39760316014E+02  0.16022580527E+03  0.19370427397E+03  0.81294082506E+02 0.  0.
          5    1    3    3  502    0  0.16711021266E+02  0.37009254430E+02  0.27418735702E+02  0.49222151646E+02  0.47000000000E+01 0. -1.
        -11    1    4    4    0    0  0.13808569278E+03 -0.73929240705E+02  0.39663297192E+03  0.42643980301E+03  0.00000000000E+00 0.  1.
         12    1    4    4    0    0  0.24283588699E+02  0.20127702366E+02  0.93550260291E+02  0.98724203127E+02  0.00000000000E+00 0. -1.
         -5    1    5    5    0  501 -0.11858710891E+03  0.56552599925E+02  0.91627240849E+02  0.16024587428E+03  0.47000000000E+01 0.  1.
         11    1    6    6    0    0 -0.74745683156E+02 -0.46533400331E+02  0.10908862394E+03  0.14018773972E+03  0.00000000000E+00 0. -1.
        -12    1    6    6    0    0  0.14252489321E+02  0.67730843169E+01  0.51137181333E+02  0.53516534246E+02  0.00000000000E+00 0.  1.
</event>
<event>
12    1  0.2689284E-002  0.1776323E+03  0.7818608E-02  0.1170114E+00
         -1   -1    0    0    0  501 -0.00000000000E+00  0.00000000000E+00  0.59156766133E+02  0.59156766133E+02  0.00000000000E+00 0. -1.
          1   -1    0    0  502    0  0.00000000000E+00 -0.00000000000E+00 -0.11254423036E+04  0.11254423036E+04  0.00000000000E+00 0.  1.
          6    2    1    2  502    0  0.40867547908E+02  0.26893278510E+02 -0.96099858554E+03  0.97705823175E+03  0.16950251304E+03 0.  0.
         24    2    3    3    0    0 -0.86784397610E+01  0.63614997903E+02 -0.41589841032E+03  0.42846040037E+03  0.80527285481E+02 0.  0.
         -6    2    1    2    0  501 -0.40867547908E+02 -0.26893278510E+02 -0.10528695191E+03  0.20754083796E+03  0.17203038185E+03 0.  0.
        -24    2    5    5    0    0 -0.40479757158E+02  0.36985266075E+02 -0.10529410352E+03  0.14348844619E+03  0.80595070005E+02 0.  0.
          5    1    3    3  502    0  0.49545987669E+02 -0.36721719392E+02 -0.54510017522E+03  0.54859783138E+03  0.47000000000E+01 0. -1.
        -13    1    4    4    0    0 -0.15225041139E+02  0.36207066746E+02 -0.38356564765E+03  0.38557147148E+03  0.00000000000E+00 0.  1.
         14    1    4    4    0    0  0.65466013781E+01  0.27407931157E+02 -0.32332762664E+02  0.42888928891E+02  0.00000000000E+00 0. -1.
         -5    1    5    5    0  501 -0.38779074993E+00 -0.63878544585E+02  0.71516089610E-02  0.64052391768E+02  0.47000000000E+01 0.  1.
         11    1    6    6    0    0 -0.65132824019E+02  0.30856427162E+02 -0.78342302521E+02  0.10645149236E+03  0.00000000000E+00 0. -1.
        -12    1    6    6    0    0  0.24653066861E+02  0.61288389125E+01 -0.26951800998E+02  0.37036953831E+02  0.00000000000E+00 0.  1.
</event>
<event>
12    1  0.2689284E-002  0.2425306E+03  0.7818608E-02  0.1118118E+00
          2   -1    0    0  502    0  0.00000000000E+00  0.00000000000E+00  0.90386241010E+03  0.90386241010E+03  0.00000000000E+00 0. -1.
         -2   -1    0    0    0  501 -0.00000000000E+00 -0.00000000000E+00 -0.70700572369E+02  0.70700572369E+02  0.00000000000E+00 0.  1.
          6    2    1    2  502    0  0.17239320441E+03 -0.13233318432E+02  0.55594603498E+03  0.60704468841E+03  0.17185087218E+03 0.  0.
         24    2    3    3    0    0  0.77779975298E+02  0.42577456531E+02  0.39163570212E+03  0.40934167576E+03  0.79495408526E+02 0.  0.
         -6    2    1    2    0  501 -0.17239320441E+03  0.13233318432E+02  0.27721580275E+03  0.36751829406E+03  0.16830495397E+03 0.  0.
        -24    2    5    5    0    0 -0.14025797760E+03  0.57966556035E+02  0.25592875603E+03  0.30828178752E+03  0.80657984460E+02 0.  0.
          5    1    3    3  502    0  0.94613229115E+02 -0.55810774963E+02  0.16431033286E+03  0.19770301265E+03  0.47000000000E+01 0. -1.
        -11    1    4    4    0    0 -0.19296828747E+00 -0.20032543731E+01 -0.35482846464E+01  0.40792877779E+01  0.00000000000E+00 0.  1.
         12    1    4    4    0    0  0.77972943586E+02  0.44580710904E+02  0.39518398677E+03  0.40526238798E+03  0.00000000000E+00 0. -1.
         -5    1    5    5    0  501 -0.32135226813E+02 -0.44733237604E+02  0.21287046723E+02  0.59236506540E+02  0.47000000000E+01 0.  1.
         11    1    6    6    0    0 -0.11896720082E+03  0.15715021372E+02  0.21258896572E+03  0.24411928460E+03  0.00000000000E+00 0. -1.
        -12    1    6    6    0    0 -0.21290776776E+02  0.42251534663E+02  0.43339790306E+02  0.64162502919E+02  0.00000000000E+00 0.  1.
</event>
<event>
12    1  0.2689284E-002  0.2111707E+03  0.7818608E-02  0.1140642E+00
          2   -1    0    0  502    0  0.00000000000E+00  0.00000000000E+00  0.38428337979E+03  0.38428337979E+03  0.00000000000E+00 0. -1.
         -2   -1    0    0    0  501 -0.00000000000E+00 -0.00000000000E+00 -0.12662613466E+03  0.12662613466E+03  0.00000000000E+00 0.  1.
          6    2    1    2  502    0 -0.52228362173E+02  0.11122232600E+03  0.20326081499E+03  0.29386189879E+03  0.17303655405E+03 0.  0.
         24    2    3    3    0    0 -0.12165269396E+02  0.44663886086E+02  0.19844702367E+03  0.21588536442E+03  0.71291043382E+02 0.  0.
         -6    2    1    2    0  501  0.52228362173E+02 -0.11122232600E+03  0.54396430140E+02  0.21704761566E+03  0.17044790476E+03 0.  0.
        -24    2    5    5    0    0  0.43470732875E+01 -0.62344386987E+02  0.94949904729E+02  0.13737111317E+03  0.77133771408E+02 0.  0.
          5    1    3    3  502    0 -0.40063092777E+02  0.66558439911E+02  0.48137913168E+01  0.77976534375E+02  0.47000000000E+01 0. -1.
        -13    1    4    4    0    0  0.22941237093E+01 -0.63716425788E+01 -0.31195559339E+01  0.74560352716E+01  0.00000000000E+00 0.  1.
         14    1    4    4    0    0 -0.14459393105E+02  0.51035528665E+02  0.20156657961E+03  0.20842932915E+03  0.00000000000E+00 0. -1.
         -5    1    5    5    0  501  0.47881288885E+02 -0.48877939010E+02 -0.40553474589E+02  0.79676502486E+02  0.47000000000E+01 0.  1.
         11    1    6    6    0    0 -0.11045757381E+02  0.75105397379E+01 -0.51707402595E+01  0.14323181145E+02  0.00000000000E+00 0. -1.
        -12    1    6    6    0    0  0.15392830668E+02 -0.69854926725E+02  0.10012064499E+03  0.12304793203E+03  0.00000000000E+00 0.  1.
</event>
<event>
12    1  0.2689284E-002  0.1970814E+03  0.7818608E-02  0.1152225E+00
         -2   -1    0    0    0  501 -0.00000000000E+00  0.00000000000E+00  0.56077928179E+02  0.56077928179E+02  0.00000000000E+00 0. -1.
          2   -1    0    0  502    0  0.00000000000E+00 -0.00000000000E+00 -0.76312949784E+03  0.76312949784E+03  0.00000000000E+00 0.  1.
          6    2    1    2  502    0  0.31498165210E+02 -0.87506189215E+02 -0.47994155389E+03  0.51928568476E+03  0.17511213461E+03 0.  0.
         24    2    3    3    0    0  0.37859334755E+02 -0.63763874013E+02 -0.48237230017E+03  0.49414288189E+03  0.77427326519E+02 0.  0.
         -6    2    1    2    0  501 -0.31498165210E+02  0.87506189215E+02 -0.22711001577E+03  0.29992174125E+03  0.17240830621E+03 0.  0.
        -24    2    5    5    0    0 -0.76927888918E+02  0.27266971378E+02 -0.99648524613E+02  0.15172880995E+03  0.80189871482E+02 0.  0.
          5    1    3    3  502    0 -0.63611695451E+01 -0.23742315202E+02  0.24307462776E+01  0.25142802878E+02  0.47000000000E+01 0. -1.
        -11    1    4    4    0    0  0.50587736131E+02 -0.18295411379E+02 -0.33777421155E+03  0.34203107916E+03  0.00000000000E+00 0.  1.
         12    1    4    4    0    0 -0.12728401377E+02 -0.45468462634E+02 -0.14459808862E+03  0.15211180272E+03  0.00000000000E+00 0. -1.
         -5    1    5    5    0  501  0.45429723709E+02  0.60239217837E+02 -0.12746149115E+03  0.14819293131E+03  0.47000000000E+01 0.  1.
         13    1    6    6    0    0 -0.13316426485E+02 -0.18941561223E+02  0.19788559362E+01  0.23238455773E+02  0.00000000000E+00 0. -1.
        -14    1    6    6    0    0 -0.63611462433E+02  0.46208532600E+02 -0.10162738055E+03  0.12849035417E+03  0.00000000000E+00 0.  1.
</event>
<event>
12    1  0.2689284E-002  0.1764293E+03  0.7818608E-02  0.1171304E+00
         -2   -1    0    0    0  501 -0.00000000000E+00  0.00000000000E+00  0.19053446996E+03  0.19053446996E+03  0.00000000000E+00 0.  1.
          2   -1    0    0  502    0  0.00000000000E+00 -0.00000000000E+00 -0.16892118661E+03  0.16892118661E+03  0.00000000000E+00 0. -1.
          6    2    1    2  502    0  0.17492510701E+02  0.35828161874E+02 -0.21827546293E+02  0.17659854626E+03  0.17064864386E+03 0.  0.
         24    2    3    3    0    0 -0.94109946342E+01 -0.30625724692E+02  0.27676204875E+02  0.89348165068E+02  0.78680496006E+02 0.  0.
         -6    2    1    2    0  501 -0.17492510701E+02 -0.35828161874E+02  0.43440829643E+02  0.18285711031E+03  0.17308949129E+03 0.  0.
        -24    2    5    5    0    0 -0.52453297346E+02  0.31651646236E+02  0.28665244050E+02  0.10529301401E+03  0.80695399314E+02 0.  0.
          5    1    3    3  502    0  0.26903505335E+02  0.66453886567E+02 -0.49503751168E+02  0.87250381196E+02  0.47000000000E+01 0. -1.
        -13    1    4    4    0    0  0.23241195006E+02  0.15523465184E+02  0.47770759201E+01  0.28354039765E+02  0.00000000000E+00 0.  1.
         14    1    4    4    0    0 -0.32652189640E+02 -0.46149189876E+02  0.22899128955E+02  0.60994125303E+02  0.00000000000E+00 0. -1.
         -5    1    5    5    0  501  0.34960786645E+02 -0.67479808110E+02  0.14775585593E+02  0.77564096301E+02  0.47000000000E+01 0.  1.
         13    1    6    6    0    0  0.11952598833E+01  0.41758953437E+02  0.28728281829E+02  0.50700621448E+02  0.00000000000E+00 0. -1.
        -14    1    6    6    0    0 -0.53648557229E+02 -0.10107307201E+02 -0.63037778844E-01  0.54592392560E+02  0.00000000000E+00 0.  1.
</event>
<event>
12    1  0.2689284E-002  0.2203759E+03  0.7818608E-02  0.1133603E+00
         -2   -1    0    0    0  501 -0.00000000000E+00  0.00000000000E+00  0.28192515567E+02  0.28192515567E+02  0.00000000000E+00 0.  1.
          2   -1    0    0  502    0  0.00000000000E+00 -0.00000000000E+00 -0.17297734498E+04  0.17297734498E+04  0.00000000000E+00 0. -1.
          6    2    1    2  502    0 -0.11411806292E+03 -0.83378759051E+02 -0.90491881049E+03  0.93122711471E+03  0.16831796052E+03 0.  0.
         24    2    3    3    0    0 -0.11915083828E+02 -0.17796016008E+02 -0.54659840502E+03  0.55285937282E+03  0.80156112297E+02 0.  0.
         -6    2    1    2    0  501  0.11411806292E+03  0.83378759051E+02 -0.79666212377E+03  0.82673885069E+03  0.16985769941E+03 0.  0.
        -24    2    5    5    0    0  0.49937810853E+02  0.10515244974E+03 -0.65004696933E+03  0.66514896278E+03  0.79443424658E+02 0.  0.
          5    1    3    3  502    0 -0.10220297909E+03 -0.65582743043E+02 -0.35832040547E+03  0.37836774188E+03  0.47000000000E+01 0. -1.
        -13    1    4    4    0    0  0.17388445710E+01 -0.50727261240E+01  0.55195811034E+00  0.53908059256E+01  0.00000000000E+00 0.  1.
         14    1    4    4    0    0 -0.13653928399E+02 -0.12723289884E+02 -0.54715036313E+03  0.54746856690E+03  0.00000000000E+00 0. -1.
         -5    1    5    5    0  501  0.64180252066E+02 -0.21773690693E+02 -0.14661515445E+03  0.16158988791E+03  0.47000000000E+01 0.  1.
         13    1    6    6    0    0  0.66795931310E+02  0.86926386721E+02 -0.59121743706E+03  0.60129522784E+03  0.00000000000E+00 0. -1.
        -14    1    6    6    0    0 -0.16858120457E+02  0.18226063023E+02 -0.58829532270E+02  0.63853734940E+02  0.00000000000E+00 0.  1.
</event>
<event>
12    1  0.2689284E-002  0.3209876E+03  0.7818608E-02  0.1075196E+00
         -1   -1    0    0    0  501 -0.00000000000E+00  0.00000000000E+00  0.13362643610E+03  0.13362643610E+03  0.00000000000E+00 0.  1.
          1   -1    0    0  502    0  0.00000000000E+00 -0.00000000000E+00 -0.77586078040E+03  0.77586078040E+03  0.00000000000E+00 0. -1.
          6    2    1    2  502    0  0.20216709813E+03 -0.18178639523E+03 -0.35743352806E+03  0.48076255519E+03  0.17162773212E+03 0.  0.
         24    2    3    3    0    0  0.78650613201E+02 -0.16122888000E+03 -0.22655668055E+03  0.29957267496E+03  0.78963202702E+02 0.  0.
         -6    2    1    2    0  501 -0.20216709813E+03  0.18178639523E+03 -0.28480081624E+03  0.42872466131E+03  0.16963343192E+03 0.  0.
        -24    2    5    5    0    0 -0.11344629371E+03  0.98847254126E+02 -0.24960545982E+03  0.30218974369E+03  0.79843061147E+02 0.  0.
          5    1    3    3  502    0  0.12351648493E+03 -0.20557515235E+02 -0.13087684752E+03  0.18118988023E+03  0.47000000000E+01 0. -1.
        -11    1    4    4    0    0  0.30381615220E+02 -0.56611330228E+01 -0.21274540251E+02  0.37519288817E+02  0.00000000000E+00 0.  1.
         12    1    4    4    0    0  0.48268997981E+02 -0.15556774698E+03 -0.20528214030E+03  0.26205338615E+03  0.00000000000E+00 0. -1.
         -5    1    5    5    0  501 -0.88720804414E+02  0.82939141108E+02 -0.35195356424E+02  0.12653491762E+03  0.47000000000E+01 0.  1.
         11    1    6    6    0    0 -0.10024112539E+03  0.54732453879E+02 -0.12485659401E+03  0.16921316082E+03  0.00000000000E+00 0. -1.
        -12    1    6    6    0    0 -0.13205168326E+02  0.44114800247E+02 -0.12474886580E+03  0.13297658286E+03  0.00000000000E+00 0.  1.
</event>
<event>
12    1  0.2689284E-002  0.2595875E+03  0.7818608E-02  0.1107391E+00
          2   -1    0    0  502    0  0.00000000000E+00  0.00000000000E+00  0.10057532774E+04  0.10057532774E+04  0.00000000000E+00 0.  1.
         -2   -1    0    0    0  501 -0.00000000000E+00 -0.00000000000E+00 -0.67265371514E+02  0.67265371514E+02  0.00000000000E+00 0. -1.
          6    2    1    2  502    0  0.58992539729E+02 -0.18511893914E+03  0.50413858547E+03  0.56736230013E+03  0.17319100692E+03 0.  0.
         24    2    3    3    0    0  0.62945229426E+02 -0.12494818701E+03  0.19786058594E+03  0.25516933711E+03  0.79927640925E+02 0.  0.
         -6    2    1    2    0  501 -0.58992539729E+02  0.18511893914E+03  0.43434932042E+03  0.50565634879E+03  0.17111361591E+03 0.  0.
        -24    2    5    5    0    0 -0.67747396359E+02  0.15838649203E+03  0.43726798684E+03  0.47698790173E+03  0.81474999314E+02 0.  0.
          5    1    3    3  502    0 -0.39526896974E+01 -0.60170752121E+02  0.30627799953E+03  0.31219296302E+03  0.47000000000E+01 0. -1.
        -11    1    4    4    0    0  0.33327353355E+02 -0.31921009553E+02  0.12530333946E+03  0.13353123310E+03  0.00000000000E+00 0.  1.
         12    1    4    4    0    0  0.29617876071E+02 -0.93027177462E+02  0.72557246479E+02  0.12163810401E+03  0.00000000000E+00 0. -1.
         -5    1    5    5    0  501  0.87548566305E+01  0.26732447105E+02 -0.29186664212E+01  0.28668447055E+02  0.47000000000E+01 0.  1.
         11    1    6    6    0    0  0.82198888201E+01  0.80106315057E+02  0.20960385141E+03  0.22454033671E+03  0.00000000000E+00 0. -1.
        -12    1    6    6    0    0 -0.75967285179E+02  0.78280176974E+02  0.22766413543E+03  0.25244756502E+03  0.00000000000E+00 0.  1.
</event>
<event>
12    1  0.2689284E-002  0.2242334E+03  0.7818608E-02  0.1130766E+00
         -2   -1    0    0    0  501 -0.00000000000E+00  0.00000000000E+00  0.67284078304E+02  0.67284078304E+02  0.00000000000E+00 0. -1.
          2   -1    0    0  502    0  0.00000000000E+00 -0.00000000000E+00 -0.84553734454E+03  0.84553734454E+03  0.00000000000E+00 0.  1.
          6    2    1    2  502    0 -0.96258367924E+02 -0.11071150226E+03 -0.54177785461E+03  0.58563491196E+03  0.16709965960E+03 0.  0.
         24    2    3    3    0    0 -0.11865798624E+03 -0.49330848038E+02 -0.43399767825E+03  0.45950805507E+03  0.79249086335E+02 0.  0.
         -6    2    1    2    0  501  0.96258367924E+02  0.11071150226E+03 -0.23647541162E+03  0.32718651088E+03  0.17206883062E+03 0.  0.
        -24    2    5    5    0    0  0.78722729119E+02  0.99827324807E+02 -0.25741031921E+03  0.29741531166E+03  0.77672596929E+02 0.  0.
          5    1    3    3  502    0  0.22399618313E+02 -0.61380654219E+02 -0.10778017636E+03  0.12612685689E+03  0.47000000000E+01 0.  1.
        -13    1    4    4    0    0 -0.94846101510E+02  0.51547054492E+00 -0.29757920894E+03  0.31232904808E+03  0.00000000000E+00 0.  1.
         14    1    4    4    0    0 -0.23811884727E+02 -0.49846318583E+02 -0.13641846931E+03  0.14717900699E+03  0.00000000000E+00 0. -1.
         -5    1    5    5    0  501  0.17535638805E+02  0.10884177450E+02  0.20934907590E+02  0.29771199218E+02  0.47000000000E+01 0.  1.
         13    1    6    6    0    0 -0.40301502382E+01 -0.10307652893E+02 -0.15799295437E+02  0.19290089565E+02  0.00000000000E+00 0. -1.
        -14    1    6    6    0    0  0.82752879357E+02  0.11013497770E+03 -0.24161102378E+03  0.27812522209E+03  0.00000000000E+00 0.  1.
</event>
<event>
12    1  0.2689284E-002  0.1735277E+03  0.7818608E-02  0.1174218E+00
          1   -1    0    0  502    0  0.00000000000E+00  0.00000000000E+00  0.17863271785E+03  0.17863271785E+03  0.00000000000E+00 0. -1.
         -1   -1    0    0    0  501 -0.00000000000E+00 -0.00000000000E+00 -0.16965570006E+03  0.16965570006E+03  0.00000000000E+00 0.  1.
          6    2    1    2  502    0 -0.64628313516E-01  0.10940802221E+02 -0.94071202472E+01  0.17458677453E+03  0.17398948991E+03 0.  0.
         24    2    3    3    0    0  0.10960126127E+02  0.33305291976E+02 -0.55336711426E+02  0.12211456323E+03  0.10305555824E+03 0.  0.
         -6    2    1    2    0  501  0.64628313516E-01 -0.10940802221E+02  0.18384138041E+02  0.17370164339E+03  0.17237917233E+03 0.  0.
        -24    2    5    5    0    0 -0.33520750467E+01 -0.70885786819E+02  0.33068764933E+02  0.11171129489E+03  0.79685877114E+02 0.  0.
          5    1    3    3  502    0 -0.11024754441E+02 -0.22364489755E+02  0.45929591179E+02  0.52472211296E+02  0.47000000000E+01 0. -1.
        -11    1    4    4    0    0  0.22923929028E+02 -0.32597443119E+02 -0.95461626571E+01  0.40978397254E+02  0.00000000000E+00 0.  1.
         12    1    4    4    0    0 -0.11963802901E+02  0.65902735095E+02 -0.45790548769E+02  0.81136165977E+02  0.00000000000E+00 0. -1.
         -5    1    5    5    0  501  0.34167033602E+01  0.59944984598E+02 -0.14684626892E+02  0.61990348501E+02  0.47000000000E+01 0.  1.
         11    1    6    6    0    0 -0.22259441812E+02 -0.22138360981E+02  0.47982379766E+02  0.57340200076E+02  0.00000000000E+00 0. -1.
        -12    1    6    6    0    0  0.18907366765E+02 -0.48747425838E+02 -0.14913614833E+02  0.54371094813E+02  0.00000000000E+00 0.  1.
</event>
<event>
12    1  0.2689284E-002  0.1838630E+03  0.7818608E-02  0.1164116E+00
         -2   -1    0    0    0  501 -0.00000000000E+00  0.00000000000E+00  0.18075684012E+02  0.18075684012E+02  0.00000000000E+00 0. -1.
          2   -1    0    0  502    0  0.00000000000E+00 -0.00000000000E+00 -0.21592763165E+04  0.21592763165E+04  0.00000000000E+00 0.  1.
          6    2    1    2  502    0  0.24973953945E+02 -0.60859854115E+02 -0.14672954281E+04  0.14787303795E+04  0.17134772211E+03 0.  0.
         24    2    3    3    0    0  0.27818613464E+02  0.28984588918E+02 -0.86844279616E+03  0.87315075571E+03  0.81150294798E+02 0.  0.
         -6    2    1    2    0  501 -0.24973953945E+02  0.60859854115E+02 -0.67390520446E+03  0.69862162103E+03  0.17203582347E+03 0.  0.
        -24    2    5    5    0    0 -0.47254636573E+02  0.10248274689E+03 -0.42543158547E+03  0.44565892940E+03  0.69886574919E+02 0.  0.
          5    1    3    3  502    0 -0.28446595193E+01 -0.89844443033E+02 -0.59885263190E+03  0.60557962380E+03  0.47000000000E+01 0. -1.
        -13    1    4    4    0    0  0.48914565621E+02 -0.49811614622E+01 -0.40153239341E+03  0.40453146930E+03  0.00000000000E+00 0.  1.
         14    1    4    4    0    0 -0.21095952157E+02  0.33965750380E+02 -0.46691040275E+03  0.46861928641E+03  0.00000000000E+00 0. -1.
         -5    1    5    5    0  501  0.22280682628E+02 -0.41622892776E+02 -0.24847361899E+03  0.25296269162E+03  0.47000000000E+01 0.  1.
         11    1    6    6    0    0 -0.45522375436E+02  0.19260003522E+02 -0.15156807351E+03  0.15942432471E+03  0.00000000000E+00 0. -1.
        -12    1    6    6    0    0 -0.17322611369E+01  0.83222743369E+02 -0.27386351196E+03  0.28623460469E+03  0.00000000000E+00 0.  1.
</event>
<event>
12    1  0.2689284E-002  0.2719320E+03  0.7818608E-02  0.1100179E+00
          1   -1    0    0  502    0  0.00000000000E+00  0.00000000000E+00  0.16217619617E+03  0.16217619617E+03  0.00000000000E+00 0.  1.
         -1   -1    0    0    0  501 -0.00000000000E+00 -0.00000000000E+00 -0.46969561553E+03  0.46969561553E+03  0.00000000000E+00 0. -1.
          6    2    1    2  502    0 -0.12867969924E+03 -0.16680605426E+03 -0.20752116681E+03  0.34170957472E+03  0.17122404636E+03 0.  0.
         24    2    3    3    0    0 -0.10228643326E+03 -0.35874690133E+02 -0.79595267253E+02  0.15670483863E+03  0.80445584466E+02 0.  0.
         -6    2    1    2    0  501  0.12867969924E+03  0.16680605426E+03 -0.99998252562E+02  0.29016223697E+03  0.17266079033E+03 0.  0.
        -24    2    5    5    0    0  0.23658436717E+02  0.81797156237E+02  0.14006101909E+02  0.11331467221E+03  0.73440776490E+02 0.  0.
          5    1    3    3  502    0 -0.26393265976E+02 -0.13093136412E+03 -0.12792589955E+03  0.18500473609E+03  0.47000000000E+01 0. -1.
        -11    1    4    4    0    0 -0.11073168276E+03 -0.16654761008E+02 -0.76184130437E+02  0.13543599360E+03  0.00000000000E+00 0.  1.
         12    1    4    4    0    0  0.84452494998E+01 -0.19219929126E+02 -0.34111368163E+01  0.21268845034E+02  0.00000000000E+00 0. -1.
         -5    1    5    5    0  501  0.10502126252E+03  0.85008898018E+02 -0.11400435447E+03  0.17684756476E+03  0.47000000000E+01 0.  1.
         13    1    6    6    0    0 -0.23345425339E+02  0.17788264756E+02  0.16863501695E+02  0.33849799655E+02  0.00000000000E+00 0. -1.
        -14    1    6    6    0    0  0.47003862057E+02  0.64008891482E+02 -0.28573997856E+01  0.79464872557E+02  0.00000000000E+00 0.  1.
</event>
<event>
12    1  0.2689284E-002  0.1883177E+03  0.7818608E-02  0.1159987E+00
          2   -1    0    0  502    0  0.00000000000E+00  0.00000000000E+00  0.12512503528E+03  0.12512503528E+03  0.00000000000E+00 0.  1.
         -2   -1    0    0    0  501 -0.00000000000E+00 -0.00000000000E+00 -0.29958160573E+03  0.29958160573E+03  0.00000000000E+00 0. -1.
          6    2    1    2  502    0  0.51648502674E+02  0.52676575925E+02 -0.13603944603E+03  0.23141665926E+03  0.17205972750E+03 0.  0.
         24    2    3    3    0    0  0.71853830163E+02  0.71538185590E+02 -0.46657215641E+02  0.13774014840E+03  0.80714111547E+02 0.  0.
         -6    2    1    2    0  501 -0.51648502674E+02 -0.52676575925E+02 -0.38417124426E+02  0.19328998176E+03  0.17447851478E+03 0.  0.
        -24    2    5    5    0    0 -0.32879779196E+02  0.35907559265E+02 -0.41231654246E+02  0.10257380037E+03  0.80317510651E+02 0.  0.
          5    1    3    3  502    0 -0.20205327489E+02 -0.18861609665E+02 -0.89382230384E+02  0.93676510858E+02  0.47000000000E+01 0. -1.
        -11    1    4    4    0    0  0.79487483525E+02  0.43128787376E+02 -0.56602493768E+02  0.10668736869E+03  0.00000000000E+00 0.  1.
         12    1    4    4    0    0 -0.76336533615E+01  0.28409398213E+02  0.99452781267E+01  0.31052779707E+02  0.00000000000E+00 0. -1.
         -5    1    5    5    0  501 -0.18768723477E+02 -0.88584135190E+02  0.28145298199E+01  0.90716181392E+02  0.47000000000E+01 0.  1.
         13    1    6    6    0    0 -0.49159821090E+02  0.16511674382E+02 -0.53436529333E+02  0.74463320284E+02  0.00000000000E+00 0. -1.
        -14    1    6    6    0    0  0.16280041894E+02  0.19395884884E+02  0.12204875087E+02  0.28110480081E+02  0.00000000000E+00 0.  1.
</event>
<event>
12    1  0.2689284E-002  0.2075103E+03  0.7818608E-02  0.1143553E+00
          1   -1    0    0  502    0  0.00000000000E+00  0.00000000000E+00  0.69783399084E+02  0.69783399084E+02  0.00000000000E+00 0. -1.
         -1   -1    0    0    0  501 -0.00000000000E+00 -0.00000000000E+00 -0.62651013409E+03  0.62651013409E+03  0.00000000000E+00 0.  1.
          6    2    1    2  502    0 -0.11635124689E+03 -0.89872683560E+01 -0.32131089931E+03  0.38257157356E+03  0.17176126233E+03 0.  0.
         24    2    3    3    0    0 -0.11447201547E+03  0.23639937798E+02 -0.14299559393E+03  0.20122520822E+03  0.79882135377E+02 0.  0.
         -6    2    1    2    0  501  0.11635124689E+03  0.89872683560E+01 -0.23541583569E+03  0.31372195961E+03  0.17141315177E+03 0.  0.
        -24    2    5    5    0    0  0.15142723069E+03  0.18270125036E+01 -0.19573784310E+03  0.26007471365E+03  0.79950042464E+02 0.  0.
          5    1    3    3  502    0 -0.18792314216E+01 -0.32627206154E+02 -0.17831530537E+03  0.18134636534E+03  0.47000000000E+01 0. -1.
        -11    1    4    4    0    0 -0.49737504504E+02 -0.18230041947E+02 -0.99459236494E+02  0.11268670511E+03  0.00000000000E+00 0.  1.
         12    1    4    4    0    0 -0.64734510969E+02  0.41869979745E+02 -0.43536357441E+02  0.88538503113E+02  0.00000000000E+00 0. -1.
         -5    1    5    5    0  501 -0.35075983793E+02  0.71602558523E+01 -0.39677992588E+02  0.53647245957E+02  0.47000000000E+01 0.  1.
         13    1    6    6    0    0  0.14214764003E+02  0.27808479951E+02 -0.29465704834E+02  0.42937149815E+02  0.00000000000E+00 0. -1.
        -14    1    6    6    0    0  0.13721246668E+03 -0.25981467448E+02 -0.16627213827E+03  0.21713756384E+03  0.00000000000E+00 0.  1.
</event>
<event>
12    1  0.2689284E-002  0.1849962E+03  0.7818608E-02  0.1163053E+00
         -1   -1    0    0    0  501 -0.00000000000E+00  0.00000000000E+00  0.50739224567E+02  0.50739224567E+02  0.00000000000E+00 0.  1.
          1   -1    0    0  502    0  0.00000000000E+00 -0.00000000000E+00 -0.19145866584E+04  0.19145866584E+04  0.00000000000E+00 0. -1.
          6    2    1    2  502    0 -0.39090684564E+02 -0.60148826126E+02 -0.13651672037E+03  0.22783525798E+03  0.16770845815E+03 0.  0.
         24    2    3    3    0    0 -0.47804110785E+02 -0.10163600907E+03 -0.84551213815E+02  0.16060718336E+03  0.77657248495E+02 0.  0.
         -6    2    1    2    0  501  0.39090684564E+02  0.60148826126E+02 -0.17273307135E+04  0.17374906250E+04  0.17336757294E+03 0.  0.
        -24    2    5    5    0    0  0.19646362182E+01 -0.27474832726E+02 -0.10610367512E+04  0.10644185759E+04  0.80182237377E+02 0.  0.
          5    1    3    3  502    0  0.87134262216E+01  0.41487182940E+02 -0.51965506555E+02  0.67228074614E+02  0.47000000000E+01 0. -1.
        -13    1    4    4    0    0 -0.59765725896E+02 -0.79978646102E+02 -0.36034366373E+02  0.10614613221E+03  0.00000000000E+00 0.  1.
         14    1    4    4    0    0  0.11961615111E+02 -0.21657362964E+02 -0.48516847442E+02  0.54461051150E+02  0.00000000000E+00 0. -1.
         -5    1    5    5    0  501  0.37126048345E+02  0.87623658852E+02 -0.66629396230E+03  0.67307204908E+03  0.47000000000E+01 0.  1.
         11    1    6    6    0    0  0.21738659622E+02  0.20726635626E+02 -0.52413554678E+03  0.52499546107E+03  0.00000000000E+00 0. -1.
        -12    1    6    6    0    0 -0.19774023403E+02 -0.48201468353E+02 -0.53690120441E+03  0.53942311486E+03  0.00000000000E+00 0.  1.
</event>
<event>
12    1  0.2689284E-002  0.1746952E+03  0.7818608E-02  0.1173038E+00
          1   -1    0    0  502    0  0.00000000000E+00  0.00000000000E+00  0.10035933569E+03  0.10035933569E+03  0.00000000000E+00 0. -1.
         -1   -1    0    0    0  501 -0.00000000000E+00 -0.00000000000E+00 -0.59852504617E+03  0.59852504617E+03  0.00000000000E+00 0.  1.
          6    2    1    2  502    0 -0.99824250435E+01  0.82299808340E+01 -0.49231562005E+03  0.52156314295E+03  0.17171505741E+03 0.  0.
         24    2    3    3    0    0 -0.40681670225E+02  0.16866142951E+02 -0.47727318758E+03  0.48599079800E+03  0.80361029629E+02 0.  0.
         -6    2    1    2    0  501  0.99824250435E+01 -0.82299808340E+01 -0.58500904301E+01  0.17732123891E+03  0.17675185096E+03 0.  0.
        -24    2    5    5    0    0  0.30104748435E+02  0.81406335524E+01  0.58699144056E+02  0.10759607425E+03  0.84609455079E+02 0.  0.
          5    1    3    3  502    0  0.30699245181E+02 -0.86361621169E+01 -0.15042432470E+02  0.35572344953E+02  0.47000000000E+01 0. -1.
        -11    1    4    4    0    0 -0.46911619040E+02  0.88222188435E+00 -0.12853649389E+03  0.13683241055E+03  0.00000000000E+00 0.  1.
         12    1    4    4    0    0  0.62299488149E+01  0.15983921067E+02 -0.34873669369E+03  0.34915838745E+03  0.00000000000E+00 0. -1.
         -5    1    5    5    0  501 -0.20122323391E+02 -0.16370614386E+02 -0.64549234486E+02  0.69725164660E+02  0.47000000000E+01 0.  1.
         13    1    6    6    0    0 -0.97620184590E+01 -0.25076382928E+02  0.47373862690E+02  0.54483069401E+02  0.00000000000E+00 0. -1.
        -14    1    6    6    0    0  0.39866766894E+02  0.33217016480E+02  0.11325281366E+02  0.53113004852E+02  0.00000000000E+00 0.  1.
</event>
<event>
12    1  0.2689284E-002  0.3637274E+03  0.7818608E-02  0.1057118E+00
          1   -1    0    0  502    0  0.00000000000E+00  0.00000000000E+00  0.48500912474E+03  0.48500912474E+03  0.00000000000E+00 0.  1.
         -1   -1    0    0    0  501 -0.00000000000E+00 -0.00000000000E+00 -0.30040056963E+03  0.30040056963E+03  0.00000000000E+00 0. -1.
          6    2    1    2  502    0 -0.31538799917E+03 -0.58688776028E+02 -0.26734468165E+02  0.36493919360E+03  0.17190672117E+03 0.  0.
         24    2    3    3    0    0 -0.12443545029E+03  0.55809449755E+01 -0.63582168278E+02  0.16006529100E+03  0.77864478584E+02 0.  0.
         -6    2    1    2    0  501  0.31538799917E+03  0.58688776028E+02  0.21134302327E+03  0.42047050076E+03  0.17092573263E+03 0.  0.
        -24    2    5    5    0    0  0.31012135449E+03  0.88666317064E+02  0.20518987473E+03  0.38906442254E+03  0.72327518271E+02 0.  0.
          5    1    3    3  502    0 -0.19095254888E+03 -0.64269721003E+02  0.36847700114E+02  0.20487390259E+03  0.47000000000E+01 0. -1.
        -13    1    4    4    0    0  0.29555056406E+01  0.18507447490E+02 -0.10204549127E+02  0.21339949603E+02  0.00000000000E+00 0.  1.
         14    1    4    4    0    0 -0.12739095593E+03 -0.12926502514E+02 -0.53377619152E+02  0.13872534140E+03  0.00000000000E+00 0. -1.
         -5    1    5    5    0  501  0.52666446797E+01 -0.29977541036E+02  0.61531485417E+01  0.31406078229E+02  0.47000000000E+01 0.  1.
         11    1    6    6    0    0  0.18819002887E+03  0.88402852568E+02  0.11695369050E+03  0.23855547998E+03  0.00000000000E+00 0. -1.
        -12    1    6    6    0    0  0.12193132562E+03  0.26346449646E+00  0.88236184234E+02  0.15050894256E+03  0.00000000000E+00 0.  1.
</event>
<event>
12    1  0.2689284E-002  0.2568701E+03  0.7818608E-02  0.1109038E+00
          2   -1    0    0  502    0  0.00000000000E+00  0.00000000000E+00  0.12359692931E+04  0.12359692931E+04  0.00000000000E+00 0. -1.
         -2   -1    0    0    0  501 -0.00000000000E+00 -0.00000000000E+00 -0.59134099277E+02  0.59134099277E+02  0.00000000000E+00 0.  1.
          6    2    1    2  502    0  0.14540764097E+03 -0.12347336981E+03  0.78996347376E+03  0.83062306509E+03  0.17176533783E+03 0.  0.
         24    2    3    3    0    0  0.10151285586E+02 -0.18311114807E+02  0.19364047142E+03  0.21015824363E+03  0.78939911766E+02 0.  0.
         -6    2    1    2    0  501 -0.14540764097E+03  0.12347336981E+03  0.38687172004E+03  0.46448032727E+03  0.17228810622E+03 0.  0.
        -24    2    5    5    0    0 -0.76440720346E+02  0.71415858680E+02  0.34531004378E+03  0.36848093384E+03  0.74804837194E+02 0.  0.
          5    1    3    3  502    0  0.13525635538E+03 -0.10516225500E+03  0.59632300234E+03  0.62046482146E+03  0.47000000000E+01 0. -1.
        -13    1    4    4    0    0  0.12869315827E+02  0.24812830156E+02  0.30405778557E+02  0.41301418860E+02  0.00000000000E+00 0.  1.
         14    1    4    4    0    0 -0.27180302407E+01 -0.43123944963E+02  0.16323469286E+03  0.16885682477E+03  0.00000000000E+00 0. -1.
         -5    1    5    5    0  501 -0.68966920622E+02  0.52057511129E+02  0.41561676260E+02  0.95999393428E+02  0.47000000000E+01 0.  1.
         13    1    6    6    0    0  0.31096093364E+01  0.36472131980E+02  0.60492143934E+02  0.70704918917E+02  0.00000000000E+00 0. -1.
        -14    1    6    6    0    0 -0.79550329683E+02  0.34943726699E+02  0.28481789985E+03  0.29777601492E+03  0.00000000000E+00 0.  1.
</event>
<event>
12    1  0.2689284E-002  0.2598273E+03  0.7818608E-02  0.1107247E+00
         -2   -1    0    0    0  501 -0.00000000000E+00  0.00000000000E+00  0.27896853585E+03  0.27896853585E+03  0.00000000000E+00 0.  1.
          2   -1    0    0  502    0  0.00000000000E+00 -0.00000000000E+00 -0.24210854571E+03  0.24210854571E+03  0.00000000000E+00 0. -1.
          6    2    1    2  502    0 -0.14507691805E+03  0.12903585050E+03  0.23970516594E+02  0.26151125819E+03  0.17353959096E+03 0.  0.
         24    2    3    3    0    0 -0.70766068458E+02  0.30473405349E+02  0.70803679353E+02  0.12940488781E+03  0.76131459342E+02 0.  0.
         -6    2    1    2    0  501  0.14507691805E+03 -0.12903585050E+03  0.12889473539E+02  0.25956582337E+03  0.17178683089E+03 0.  0.
        -24    2    5    5    0    0  0.13102805423E+03 -0.74051704631E+02 -0.48816825476E+02  0.17559925734E+03  0.76157801806E+02 0.  0.
          5    1    3    3  502    0 -0.74310849590E+02  0.98562445151E+02 -0.46833162759E+02  0.13210637038E+03  0.47000000000E+01 0. -1.
        -11    1    4    4    0    0 -0.31211759320E+02  0.50650977924E+02  0.22021907271E+02  0.63440207159E+02  0.00000000000E+00 0.  1.
         12    1    4    4    0    0 -0.39554309138E+02 -0.20177572575E+02  0.48781772082E+02  0.65964680654E+02  0.00000000000E+00 0. -1.
         -5    1    5    5    0  501  0.14048863816E+02 -0.54984145870E+02  0.61706299015E+02  0.83966566023E+02  0.47000000000E+01 0.  1.
         11    1    6    6    0    0  0.21783279674E+02 -0.14204351319E+02 -0.43795342967E+02  0.50934339451E+02  0.00000000000E+00 0. -1.
        -12    1    6    6    0    0  0.10924477456E+03 -0.59847353312E+02 -0.50214825087E+01  0.12466491789E+03  0.00000000000E+00 0.  1.
</event>
<event>
12    1  0.3040676E-002  0.1852377E+03  0.7818608E-02  0.1162828E+00
         -2   -1    0    0    0  501 -0.00000000000E+00  0.00000000000E+00  0.11446081684E+03  0.11446081684E+03  0.00000000000E+00 0. -1.
          2   -1    0    0  502    0  0.00000000000E+00 -0.00000000000E+00 -0.50682930867E+03  0.50682930867E+03  0.00000000000E+00 0.  1.
          6    2    1    2  502    0  0.22148067803E+02 -0.65006532350E+02  0.27521641213E+01  0.18463962779E+03  0.17137045132E+03 0.  0.
         24    2    3    3    0    0  0.33910621356E+02 -0.10500267526E+03  0.30394077291E+02  0.13439806653E+03  0.70452454175E+02 0.  0.
         -6    2    1    2    0  501 -0.22148067803E+02  0.65006532350E+02 -0.39512065596E+03  0.43665049772E+03  0.17270477190E+03 0.  0.
        -24    2    5    5    0    0  0.41620456252E+02  0.78903446978E+02 -0.24019341404E+03  0.26847175595E+03  0.80163528295E+02 0.  0.
          5    1    3    3  502    0 -0.11762553552E+02  0.39996142914E+02 -0.27641913169E+02  0.50241561259E+02  0.47000000000E+01 0. -1.
        -13    1    4    4    0    0  0.24777224614E+02 -0.29280823056E+02 -0.19727121337E+02  0.43132780743E+02  0.00000000000E+00 0.  1.
         14    1    4    4    0    0  0.91333967418E+01 -0.75721852207E+02  0.50121198628E+02  0.91265285786E+02  0.00000000000E+00 0. -1.
         -5    1    5    5    0  501 -0.63768524055E+02 -0.13896914629E+02 -0.15492724192E+03  0.16817874177E+03  0.47000000000E+01 0.  1.
         11    1    6    6    0    0  0.15168495040E+02  0.93331391499E+01 -0.85830248040E+00  0.17830519098E+02  0.00000000000E+00 0. -1.
        -12    1    6    6    0    0  0.26451961212E+02  0.69570307829E+02 -0.23933511156E+03  0.25064123685E+03  0.00000000000E+00 0.  1.
</event>
<event>
12    1  0.2689284E-002  0.2368553E+03  0.7818608E-02  0.1121906E+00
         -2   -1    0    0    0  501 -0.00000000000E+00  0.00000000000E+00  0.24152471736E+02  0.24152471736E+02  0.00000000000E+00 0.  1.
          2   -1    0    0  502    0  0.00000000000E+00 -0.00000000000E+00 -0.23227897515E+04  0.23227897515E+04  0.00000000000E+00 0. -1.
          6    2    1    2  502    0  0.56801726020E+02  0.15161488004E+03 -0.11532076967E+04  0.11772729822E+04  0.17282990140E+03 0.  0.
         24    2    3    3    0    0  0.76802222123E+01  0.15735509863E+03 -0.10177611581E+04  0.10330033490E+04  0.80240457983E+02 0.  0.
         -6    2    1    2    0  501 -0.56801726020E+02 -0.15161488004E+03 -0.11454295831E+04  0.11696692411E+04  0.17292685125E+03 0.  0.
        -24    2    5    5    0    0 -0.86457519164E+02 -0.11409028995E+03 -0.56497757081E+03  0.58723109892E+03  0.71758004040E+02 0.  0.
          5    1    3    3  502    0  0.49121503808E+02 -0.57402185851E+01 -0.13544653859E+03  0.14426963320E+03  0.47000000000E+01 0. -1.
        -13    1    4    4    0    0 -0.25633407938E+02  0.33402700675E+02 -0.14985032407E+03  0.15565324166E+03  0.00000000000E+00 0.  1.
         14    1    4    4    0    0  0.33313630151E+02  0.12395239795E+03 -0.86791083405E+03  0.87735010730E+03  0.00000000000E+00 0. -1.
         -5    1    5    5    0  501  0.29655793144E+02 -0.37524590094E+02 -0.58045201228E+03  0.58243814220E+03  0.47000000000E+01 0.  1.
         13    1    6    6    0    0 -0.19185885066E+02  0.69258575987E+01 -0.10082473491E+03  0.10286735565E+03  0.00000000000E+00 0. -1.
        -14    1    6    6    0    0 -0.67271634099E+02 -0.12101614755E+03 -0.46415283590E+03  0.48436374327E+03  0.00000000000E+00 0.  1.
</event>
<event>
12    1  0.2689284E-002  0.2098541E+03  0.7818608E-02  0.1141682E+00
         -1   -1    0    0    0  501 -0.00000000000E+00  0.00000000000E+00  0.15993514455E+02  0.15993514455E+02  0.00000000000E+00 0. -1.
          1   -1    0    0  502    0  0.00000000000E+00 -0.00000000000E+00 -0.28264959523E+04  0.28264959523E+04  0.00000000000E+00 0.  1.
          6    2    1    2  502    0  0.11931642659E+03  0.48604520682E+01 -0.16346429352E+04  0.16480789624E+04  0.17276199551E+03 0.  0.
         24    2    3    3    0    0  0.36183534434E+01 -0.19846759091E+02 -0.43974595376E+03  0.44733028901E+03  0.79504070909E+02 0.  0.
         -6    2    1    2    0  501 -0.11931642659E+03 -0.48604520682E+01 -0.11758595026E+04  0.11944105043E+04  0.17236835347E+03 0.  0.
        -24    2    5    5    0    0 -0.73971728736E+02 -0.39447330169E+02 -0.40475265272E+03  0.42118333348E+03  0.80887465088E+02 0.  0.
          5    1    3    3  502    0  0.11569807315E+03  0.24707211160E+02 -0.11948969815E+04  0.12007486734E+04  0.47000000000E+01 0. -1.
        -11    1    4    4    0    0 -0.21401704558E+01  0.21797839728E+02 -0.31358579208E+03  0.31434976562E+03  0.00000000000E+00 0.  1.
         12    1    4    4    0    0  0.57585238992E+01 -0.41644598819E+02 -0.12616016167E+03  0.13298052339E+03  0.00000000000E+00 0. -1.
         -5    1    5    5    0  501 -0.45344697853E+02  0.34586878101E+02 -0.77110684991E+03  0.77322717085E+03  0.47000000000E+01 0.  1.
         11    1    6    6    0    0 -0.66897230405E+02 -0.31919131073E+02 -0.40408958284E+03  0.41083142689E+03  0.00000000000E+00 0. -1.
        -12    1    6    6    0    0 -0.70744983314E+01 -0.75281990963E+01 -0.66306987832E+00  0.10351906585E+02  0.00000000000E+00 0.  1.
</event>
<event>
12    1  0.2689284E-002  0.2902833E+03  0.7818608E-02  0.1090201E+00
          2   -1    0    0  502    0  0.00000000000E+00  0.00000000000E+00  0.66432565268E+03  0.66432565268E+03  0.00000000000E+00 0. -1.
         -2   -1    0    0    0  501 -0.00000000000E+00 -0.00000000000E+00 -0.12684291387E+03  0.12684291387E+03  0.00000000000E+00 0.  1.
          6    2    1    2  502    0  0.22633955670E+03 -0.62344825902E+02  0.26782541721E+03  0.39439348321E+03  0.16940865753E+03 0.  0.
         24    2    3    3    0    0  0.11434290998E+03 -0.16920451347E+02  0.57068996256E+02  0.15139763621E+03  0.79396291985E+02 0.  0.
         -6    2    1    2    0  501 -0.22633955670E+03  0.62344825902E+02  0.26965732160E+03  0.39677508335E+03  0.17204337659E+03 0.  0.
        -24    2    5    5    0    0 -0.14674255749E+03  0.38380732236E+02  0.26239587707E+03  0.31320009519E+03  0.78969896411E+02 0.  0.
          5    1    3    3  502    0  0.11199664672E+03 -0.45424374555E+02  0.21075642096E+03  0.24299584699E+03  0.47000000000E+01 0. -1.
        -11    1    4    4    0    0  0.12290946102E+03 -0.27858393216E+02  0.54319035862E+02  0.13723477452E+03  0.00000000000E+00 0.  1.
         12    1    4    4    0    0 -0.85665510427E+01  0.10937941869E+02  0.27499603941E+01  0.14162861691E+02  0.00000000000E+00 0. -1.
         -5    1    5    5    0  501 -0.79596999209E+02  0.23964093666E+02  0.72614445312E+01  0.83574988154E+02  0.47000000000E+01 0.  1.
         13    1    6    6    0    0 -0.19985720397E+02  0.38588465364E+02  0.80724430050E+02  0.91678417776E+02  0.00000000000E+00 0. -1.
        -14    1    6    6    0    0 -0.12675683710E+03 -0.20773312703E+00  0.18167144702E+03  0.22152167742E+03  0.00000000000E+00 0.  1.
</event>
<event>
12    1  0.2689284E-002  0.1752344E+03  0.7818608E-02  0.1172497E+00
         -1   -1    0    0    0  501 -0.00000000000E+00  0.00000000000E+00  0.28488964898E+02  0.28488964898E+02  0.00000000000E+00 0.  1.
          1   -1    0    0  502    0  0.00000000000E+00 -0.00000000000E+00 -0.10858200865E+04  0.10858200865E+04  0.00000000000E+00 0. -1.
          6    2    1    2  502    0  0.10009653380E+02  0.30306084110E+02 -0.57588102352E+03  0.60190432410E+03  0.17213718430E+03 0.  0.
         24    2    3    3    0    0 -0.28998136519E+01 -0.17842412581E+02 -0.14016912786E+03  0.16332493779E+03  0.81858965869E+02 0.  0.
         -6    2    1    2    0  501 -0.10009653380E+02 -0.30306084110E+02 -0.48145009807E+03  0.51240472729E+03  0.17246957912E+03 0.  0.
        -24    2    5    5    0    0  0.22879551141E+02 -0.28072621736E+02 -0.46667501983E+03  0.47597560343E+03  0.86346134676E+02 0.  0.
          5    1    3    3  502    0  0.12909467032E+02  0.48148496692E+02 -0.43571189566E+03  0.43857938631E+03  0.47000000000E+01 0. -1.
        -11    1    4    4    0    0  0.22016276127E+02  0.15646301907E+02 -0.13983650264E+02  0.30414891954E+02  0.00000000000E+00 0.  1.
         12    1    4    4    0    0 -0.24916089779E+02 -0.33488714489E+02 -0.12618547759E+03  0.13291004583E+03  0.00000000000E+00 0. -1.
         -5    1    5    5    0  501 -0.32889204522E+02 -0.22334623737E+01 -0.14775078237E+02  0.36429123859E+02  0.47000000000E+01 0.  1.
         11    1    6    6    0    0  0.35046117097E+02  0.17986319502E+02 -0.30167816204E+03  0.30423913533E+03  0.00000000000E+00 0. -1.
        -12    1    6    6    0    0 -0.12166565956E+02 -0.46058941238E+02 -0.16499685779E+03  0.17173646810E+03  0.00000000000E+00 0.  1.
</event>
<event>
12    1  0.2689284E-002  0.2532452E+03  0.7818608E-02  0.1111271E+00
         -1   -1    0    0    0  501 -0.00000000000E+00  0.00000000000E+00  0.15625844313E+03  0.15625844313E+03  0.00000000000E+00 0. -1.
          1   -1    0    0  502    0  0.00000000000E+00 -0.00000000000E+00 -0.41125446729E+03  0.41125446729E+03  0.00000000000E+00 0.  1.
          6    2    1    2  502    0 -0.12239466873E+03  0.14071165972E+03 -0.14101904456E+03  0.29164126472E+03  0.17432162873E+03 0.  0.
         24    2    3    3    0    0 -0.13369339351E+03  0.16576238890E+03 -0.12646129548E+03  0.26018942419E+03  0.79718154530E+02 0.  0.
         -6    2    1    2    0  501  0.12239466873E+03 -0.14071165972E+03 -0.11397697959E+03  0.27587164570E+03  0.16832761779E+03 0.  0.
        -24    2    5    5    0    0  0.11077577859E+03 -0.16108224401E+03 -0.69896647868E+02  0.22572062420E+03  0.88574806520E+02 0.  0.
          5    1    3    3  502    0  0.11298724780E+02 -0.25050729184E+02 -0.14557749083E+02  0.31451840529E+02  0.47000000000E+01 0. -1.
        -11    1    4    4    0    0 -0.13069654336E+03  0.13053448940E+03 -0.78745314124E+02  0.20080254945E+03  0.00000000000E+00 0.  1.
         12    1    4    4    0    0 -0.29968501496E+01  0.35227899504E+02 -0.47715981358E+02  0.59386874739E+02  0.00000000000E+00 0. -1.
         -5    1    5    5    0  501  0.11618890143E+02  0.20370584294E+02 -0.44080331723E+02  0.50151021500E+02  0.47000000000E+01 0.  1.
         11    1    6    6    0    0  0.26170083896E+02 -0.11910715608E+02  0.17067315698E+02  0.33436981062E+02  0.00000000000E+00 0. -1.
        -12    1    6    6    0    0  0.84605694694E+02 -0.14917152840E+03 -0.86963963566E+02  0.19228364314E+03  0.00000000000E+00 0.  1.
</event>
<event>
12    1  0.2689284E-002  0.1744923E+03  0.7818608E-02  0.1173242E+00
         -2   -1    0    0    0  501 -0.00000000000E+00  0.00000000000E+00  0.17977789594E+02  0.17977789594E+02  0.00000000000E+00 0. -1.
          2   -1    0    0  502    0  0.00000000000E+00 -0.00000000000E+00 -0.16966691674E+04  0.16966691674E+04  0.00000000000E+00 0.  1.
          6    2    1    2  502    0  0.33215490684E+02 -0.23642360452E+02 -0.88307544983E+03  0.90049370970E+03  0.17147723197E+03 0.  0.
         24    2    3    3    0    0  0.56778405778E+02  0.42015319543E+02 -0.54942704474E+03  0.55959857901E+03  0.79318457475E+02 0.  0.
         -6    2    1    2    0  501 -0.33215490684E+02  0.23642360452E+02 -0.79561592801E+03  0.81415324733E+03  0.16786475271E+03 0.  0.
        -24    2    5    5    0    0 -0.37678564274E+02 -0.43075719049E+02 -0.35469691637E+03  0.36816794938E+03  0.80389953931E+02 0.  0.
          5    1    3    3  502    0 -0.23562915093E+02 -0.65657679995E+02 -0.33364840508E+03  0.34089513069E+03  0.47000000000E+01 0. -1.
        -13    1    4    4    0    0  0.63108713284E+02  0.13580332244E+01 -0.38258864100E+03  0.38776103746E+03  0.00000000000E+00 0.  1.
         14    1    4    4    0    0 -0.63303075062E+01  0.40657286319E+02 -0.16683840374E+03  0.17183754155E+03  0.00000000000E+00 0. -1.
         -5    1    5    5    0  501  0.44630735898E+01  0.66718079501E+02 -0.44091901164E+03  0.44598529795E+03  0.47000000000E+01 0.  1.
         11    1    6    6    0    0 -0.29723654913E+02  0.12600620512E+02 -0.59822923634E+02  0.67978331039E+02  0.00000000000E+00 0. -1.
        -12    1    6    6    0    0 -0.79549093613E+01 -0.55676339561E+02 -0.29487399273E+03  0.30018961834E+03  0.00000000000E+00 0.  1.
</event>
<event>
12    1  0.2689284E-002  0.2015027E+03  0.7818608E-02  0.1148477E+00
         -2   -1    0    0    0  501 -0.00000000000E+00  0.00000000000E+00  0.47115512042E+02  0.47115512042E+02  0.00000000000E+00 0. -1.
          2   -1    0    0  502    0  0.00000000000E+00 -0.00000000000E+00 -0.95370466143E+03  0.95370466143E+03  0.00000000000E+00 0.  1.
          6    2    1    2  502    0  0.48607515596E+02  0.92395023402E+02 -0.60984765749E+03  0.64246151123E+03  0.17304073838E+03 0.  0.
         24    2    3    3    0    0  0.99888575772E+02  0.62288988574E+02 -0.50250903433E+03  0.51966171283E+03  0.60624421831E+02 0.  0.
         -6    2    1    2    0  501 -0.48607515596E+02 -0.92395023402E+02 -0.29674149190E+03  0.35835866225E+03  0.17165630449E+03 0.  0.
        -24    2    5    5    0    0 -0.23696799096E+02 -0.60444318404E+01 -0.54020469773E+02  0.99490832958E+02  0.79888304804E+02 0.  0.
          5    1    3    3  502    0 -0.51281060177E+02  0.30106034828E+02 -0.10733862316E+03  0.12279979840E+03  0.47000000000E+01 0. -1.
        -11    1    4    4    0    0  0.36510601434E+02  0.56103015433E+02 -0.21471712571E+03  0.22490890696E+03  0.00000000000E+00 0.  1.
         12    1    4    4    0    0  0.63377974339E+02  0.61859731404E+01 -0.28779190863E+03  0.29475280587E+03  0.00000000000E+00 0. -1.
         -5    1    5    5    0  501 -0.24910716499E+02 -0.86350591561E+02 -0.24272102212E+03  0.25886782929E+03  0.47000000000E+01 0.  1.
         11    1    6    6    0    0 -0.41031474065E+02 -0.23338052802E+02 -0.57895373522E+02  0.74700206477E+02  0.00000000000E+00 0. -1.
        -12    1    6    6    0    0  0.17334674969E+02  0.17293620961E+02  0.38749037485E+01  0.24790626481E+02  0.00000000000E+00 0.  1.
</event>
<event>
12    1  0.2689284E-002  0.2475163E+03  0.7818608E-02  0.1114885E+00
         -2   -1    0    0    0  501 -0.00000000000E+00  0.00000000000E+00  0.16319431116E+03  0.16319431116E+03  0.00000000000E+00 0. -1.
          2   -1    0    0  502    0  0.00000000000E+00 -0.00000000000E+00 -0.37833417213E+03  0.37833417213E+03  0.00000000000E+00 0.  1.
          6    2    1    2  502    0 -0.52761515745E+02  0.16980250658E+03 -0.13135607437E+03  0.28015197490E+03  0.17208730918E+03 0.  0.
         24    2    3    3    0    0  0.34789370894E+02  0.10351698649E+03 -0.92912187531E+02  0.16370906888E+03  0.79005808803E+02 0.  0.
         -6    2    1    2    0  501  0.52761515745E+02 -0.16980250658E+03 -0.83783786598E+02  0.26137650839E+03  0.17228258024E+03 0.  0.
        -24    2    5    5    0    0  0.22954234440E+02 -0.13096244704E+03  0.10703764362E+02  0.15485415613E+03  0.78658627538E+02 0.  0.
          5    1    3    3  502    0 -0.87550886639E+02  0.66285520093E+02 -0.38443886844E+02  0.11644290601E+03  0.47000000000E+01 0. -1.
        -13    1    4    4    0    0  0.43004651718E+01  0.11509216041E+02  0.14515525773E+02  0.19017269600E+02  0.00000000000E+00 0.  1.
         14    1    4    4    0    0  0.30488905722E+02  0.92007770446E+02 -0.10742771330E+03  0.14469179928E+03  0.00000000000E+00 0. -1.
         -5    1    5    5    0  501  0.29807281305E+02 -0.38840059545E+02 -0.94487550960E+02  0.10652235226E+03  0.47000000000E+01 0.  1.
         11    1    6    6    0    0  0.27957412929E+02 -0.13435369278E+03 -0.57227427093E+01  0.13735094279E+03  0.00000000000E+00 0. -1.
        -12    1    6    6    0    0 -0.50031784886E+01  0.33912457414E+01  0.16426507072E+02  0.17503213340E+02  0.00000000000E+00 0.  1.
</event>
<event>
12    1  0.2689284E-002  0.3017425E+03  0.7818608E-02  0.1084373E+00
         -2   -1    0    0    0  501 -0.00000000000E+00  0.00000000000E+00  0.72675289311E+02  0.72675289311E+02  0.00000000000E+00 0.  1.
          2   -1    0    0  502    0  0.00000000000E+00 -0.00000000000E+00 -0.12548749531E+04  0.12548749531E+04  0.00000000000E+00 0. -1.
          6    2    1    2  502    0 -0.15591080502E+03 -0.19326450961E+03 -0.61748193296E+03  0.68714840880E+03  0.17096680494E+03 0.  0.
         24    2    3    3    0    0 -0.96933062084E+02 -0.20570294351E+03 -0.50091411546E+03  0.55583491035E+03  0.79547325558E+02 0.  0.
         -6    2    1    2    0  501  0.15591080502E+03  0.19326450961E+03 -0.56471773086E+03  0.64040183364E+03  0.17189835130E+03 0.  0.
        -24    2    5    5    0    0  0.12461558749E+03  0.13962204788E+03 -0.53300914455E+03  0.57051314509E+03  0.79769290132E+02 0.  0.
          5    1    3    3  502    0 -0.58977742934E+02  0.12438433896E+02 -0.11656781750E+03  0.13131349845E+03  0.47000000000E+01 0. -1.
        -13    1    4    4    0    0 -0.30404386575E+02 -0.11349603568E+03 -0.33234042243E+03  0.35249955067E+03  0.00000000000E+00 0.  1.
         14    1    4    4    0    0 -0.66528675509E+02 -0.92206907829E+02 -0.16857369303E+03  0.20333535968E+03  0.00000000000E+00 0. -1.
         -5    1    5    5    0  501  0.31295217529E+02  0.53642461736E+02 -0.31708586314E+02  0.69888688550E+02  0.47000000000E+01 0.  1.
         11    1    6    6    0    0  0.70168010257E+02  0.46442476075E+02 -0.14371365356E+03  0.16653548410E+03  0.00000000000E+00 0. -1.
        -12    1    6    6    0    0  0.54447577232E+02  0.93179571803E+02 -0.38929549099E+03  0.40397766098E+03  0.00000000000E+00 0.  1.
</event>
<event>
12    1  0.3778933E-002  0.1950259E+03  0.7818608E-02  0.1154005E+00
         -1   -1    0    0    0  501 -0.00000000000E+00  0.00000000000E+00  0.42021432647E+02  0.42021432647E+02  0.00000000000E+00 0. -1.
          1   -1    0    0  502    0  0.00000000000E+00 -0.00000000000E+00 -0.99106846366E+03  0.99106846366E+03  0.00000000000E+00 0.  1.
          6    2    1    2  502    0 -0.20568215678E+02  0.78510997447E+02 -0.31073410055E+03  0.36397295891E+03  0.17127056186E+03 0.  0.
         24    2    3    3    0    0 -0.39175474409E+02  0.10196202637E+03 -0.17087594463E+03  0.22086958854E+03  0.87486079308E+02 0.  0.
         -6    2    1    2    0  501  0.20568215678E+02 -0.78510997447E+02 -0.63831293047E+03  0.66911693740E+03  0.18354032389E+03 0.  0.
        -24    2    5    5    0    0 -0.53232287074E+02 -0.19514238937E+02 -0.23605918929E+03  0.25588904142E+03  0.80875081221E+02 0.  0.
          5    1    3    3  502    0  0.18607258731E+02 -0.23451028923E+02 -0.13985815592E+03  0.14310337037E+03  0.47000000000E+01 0. -1.
        -13    1    4    4    0    0 -0.13205627386E+02  0.26425499225E+02 -0.12565536878E+03  0.12908124305E+03  0.00000000000E+00 0.  1.
         14    1    4    4    0    0 -0.25969847023E+02  0.75536527145E+02 -0.45220575844E+02  0.91788345487E+02  0.00000000000E+00 0. -1.
         -5    1    5    5    0  501  0.73800502752E+02 -0.58996758510E+02 -0.40225374119E+03  0.41322789598E+03  0.47000000000E+01 0.  1.
         11    1    6    6    0    0  0.14007829507E+02 -0.13088187341E+01 -0.56182721468E+01  0.15149167498E+02  0.00000000000E+00 0. -1.
        -12    1    6    6    0    0 -0.67240116581E+02 -0.18205420203E+02 -0.23044091714E+03  0.24073987392E+03  0.00000000000E+00 0.  1.
</event>
<event>
12    1  0.2689284E-002  0.1992859E+03  0.7818608E-02  0.1150343E+00
         -1   -1    0    0    0  501 -0.00000000000E+00  0.00000000000E+00  0.68540954123E+02  0.68540954123E+02  0.00000000000E+00 0.  1.
          1   -1    0    0  502    0  0.00000000000E+00 -0.00000000000E+00 -0.57946515054E+03  0.57946515054E+03  0.00000000000E+00 0. -1.
          6    2    1    2  502    0  0.40101217192E+02 -0.93536408401E+02 -0.25694534723E+03  0.32481282621E+03  0.17066134093E+03 0.  0.
         24    2    3    3    0    0  0.34916831090E+02 -0.54103895940E+02 -0.56861827946E+02  0.12076061331E+03  0.84873091148E+02 0.  0.
         -6    2    1    2    0  501 -0.40101217192E+02  0.93536408401E+02 -0.25397884919E+03  0.32319327846E+03  0.17202171982E+03 0.  0.
        -24    2    5    5    0    0 -0.52682521014E+02 -0.19849971313E+02 -0.11715138611E+03  0.14498383717E+03  0.64237032874E+02 0.  0.
          5    1    3    3  502    0  0.51843861016E+01 -0.39432512462E+02 -0.20008351929E+03  0.20405221290E+03  0.47000000000E+01 0. -1.
        -11    1    4    4    0    0  0.20484684850E+02  0.21069740733E+02 -0.21668570129E+02  0.36511412180E+02  0.00000000000E+00 0.  1.
         12    1    4    4    0    0  0.14432146241E+02 -0.75173636672E+02 -0.35193257817E+02  0.84249201133E+02  0.00000000000E+00 0. -1.
         -5    1    5    5    0  501  0.12581303822E+02  0.11338637971E+03 -0.13682746308E+03  0.17820944129E+03  0.47000000000E+01 0.  1.
         11    1    6    6    0    0 -0.21167714571E+02 -0.29345031520E+02 -0.10297434727E+03  0.10914632018E+03  0.00000000000E+00 0. -1.
        -12    1    6    6    0    0 -0.31514806443E+02  0.94950602072E+01 -0.14177038844E+02  0.35837516988E+02  0.00000000000E+00 0.  1.
</event>
<event>
12    1  0.2689284E-002  0.2012095E+03  0.7818608E-02  0.1148723E+00
          2   -1    0    0  502    0  0.00000000000E+00  0.00000000000E+00  0.12132098599E+04  0.12132098599E+04  0.00000000000E+00 0. -1.
         -2   -1    0    0    0  501 -0.00000000000E+00 -0.00000000000E+00 -0.59625775181E+02  0.59625775181E+02  0.00000000000E+00 0.  1.
          6    2    1    2  502    0 -0.47515954184E+02 -0.93088974311E+02  0.99937239331E+03  0.10194594589E+04  0.17213101033E+03 0.  0.
         24    2    3    3    0    0 -0.44704865898E+02 -0.12482315065E+03  0.93232173150E+03  0.94507638676E+03  0.79788607119E+02 0.  0.
         -6    2    1    2    0  501  0.47515954184E+02  0.93088974311E+02  0.15421169142E+03  0.25337617622E+03  0.17174084508E+03 0.  0.
        -24    2    5    5    0    0 -0.17601506463E+02 -0.27436681772E+01  0.42013381424E+02  0.92023364620E+02  0.79911417660E+02 0.  0.
          5    1    3    3  502    0 -0.28110882866E+01  0.31734176339E+02  0.67050661812E+02  0.74383072097E+02  0.47000000000E+01 0. -1.
        -11    1    4    4    0    0 -0.26232785854E+01 -0.62416194155E+02  0.21723517034E+03  0.22603933755E+03  0.00000000000E+00 0.  1.
         12    1    4    4    0    0 -0.42081587312E+02 -0.62406956496E+02  0.71508656115E+03  0.71903704922E+03  0.00000000000E+00 0. -1.
         -5    1    5    5    0  501  0.65117460648E+02  0.95832642489E+02  0.11219830999E+03  0.16135281160E+03  0.47000000000E+01 0.  1.
         13    1    6    6    0    0  0.90111215300E+01 -0.32964327120E+02  0.38685513408E+02  0.51617982538E+02  0.00000000000E+00 0. -1.
        -14    1    6    6    0    0 -0.26612627993E+02  0.30220658942E+02  0.33278680165E+01  0.40405382082E+02  0.00000000000E+00 0.  1.
</event>
<event>
12    1  0.2689284E-002  0.2220483E+03  0.7818608E-02  0.1132365E+00
         -2   -1    0    0    0  501 -0.00000000000E+00  0.00000000000E+00  0.11184407285E+03  0.11184407285E+03  0.00000000000E+00 0.  1.
          2   -1    0    0  502    0  0.00000000000E+00 -0.00000000000E+00 -0.70808706154E+03  0.70808706154E+03  0.00000000000E+00 0. -1.
          6    2    1    2  502    0 -0.13789514993E+03  0.21562947483E+02 -0.54979189913E+03  0.59285404910E+03  0.17240869498E+03 0.  0.
         24    2    3    3    0    0 -0.16091396946E+02  0.44618646239E+02 -0.14488709350E+03  0.16937121461E+03  0.73787409673E+02 0.  0.
         -6    2    1    2    0  501  0.13789514993E+03 -0.21562947483E+02 -0.46451089556E+02  0.22707708528E+03  0.17299209768E+03 0.  0.
        -24    2    5    5    0    0  0.16101665465E+03 -0.14958865603E+02 -0.69564655922E+02  0.19339408025E+03  0.80074329149E+02 0.  0.
          5    1    3    3  502    0 -0.12180375299E+03 -0.23055698756E+02 -0.40490480563E+03  0.42348283450E+03  0.47000000000E+01 0. -1.
        -13    1    4    4    0    0  0.62160975447E+01 -0.18934998465E+02 -0.40540694184E+02  0.45174350249E+02  0.00000000000E+00 0.  1.
         14    1    4    4    0    0 -0.22307494491E+02  0.63553644704E+02 -0.10434639932E+03  0.12419686436E+03  0.00000000000E+00 0. -1.
         -5    1    5    5    0  501 -0.23121504714E+02 -0.66040818803E+01  0.23113566366E+02  0.33683005030E+02  0.47000000000E+01 0.  1.
         11    1    6    6    0    0  0.37361057003E+02  0.29851947090E+02 -0.28202007772E+02  0.55518830750E+02  0.00000000000E+00 0. -1.
        -12    1    6    6    0    0  0.12365559764E+03 -0.44810812693E+02 -0.41362648150E+02  0.13787524950E+03  0.00000000000E+00 0.  1.
</event>
<event>
12    1  0.2689284E-002  0.1954426E+03  0.7818608E-02  0.1153642E+00
          1   -1    0    0  502    0  0.00000000000E+00  0.00000000000E+00  0.21562369190E+03  0.21562369190E+03  0.00000000000E+00 0.  1.
         -1   -1    0    0    0  501 -0.00000000000E+00 -0.00000000000E+00 -0.22090221978E+03  0.22090221978E+03  0.00000000000E+00 0. -1.
          6    2    1    2  502    0  0.91785442765E+02 -0.16452457832E+02  0.94491186215E+02  0.21743537091E+03  0.17220425482E+03 0.  0.
         24    2    3    3    0    0  0.10098419080E+03 -0.51901290500E+02  0.11004537794E+03  0.17736968007E+03  0.80364590806E+02 0.  0.
         -6    2    1    2    0  501 -0.91785442765E+02  0.16452457832E+02 -0.99769714095E+02  0.21909054076E+03  0.17132255639E+03 0.  0.
        -24    2    5    5    0    0 -0.12842061295E+03  0.25366844039E+02 -0.96253350328E+02  0.18093222856E+03  0.79601716523E+02 0.  0.
          5    1    3    3  502    0 -0.91987480320E+01  0.35448832667E+02 -0.15554191722E+02  0.40065690846E+02  0.47000000000E+01 0. -1.
        -11    1    4    4    0    0  0.34547838059E+02 -0.34819558893E+02  0.95334280034E+02  0.10721277790E+03  0.00000000000E+00 0.  1.
         12    1    4    4    0    0  0.66436352737E+02 -0.17081731607E+02  0.14711097903E+02  0.70156902164E+02  0.00000000000E+00 0. -1.
         -5    1    5    5    0  501  0.36635170188E+02 -0.89143862064E+01 -0.35163637662E+01  0.38158312204E+02  0.47000000000E+01 0.  1.
         13    1    6    6    0    0 -0.64332719168E+02  0.50341962931E+02 -0.69062809737E+02  0.10697048040E+03  0.00000000000E+00 0. -1.
        -14    1    6    6    0    0 -0.64087893784E+02 -0.24975118892E+02 -0.27190540591E+02  0.73961748161E+02  0.00000000000E+00 0.  1.
</event>
<event>
12    1  0.2689284E-002  0.1778018E+03  0.7818608E-02  0.1169948E+00
          2   -1    0    0  502    0  0.00000000000E+00  0.00000000000E+00  0.21274330828E+03  0.21274330828E+03  0.00000000000E+00 0. -1.
         -2   -1    0    0    0  501 -0.00000000000E+00 -0.00000000000E+00 -0.14883885704E+03  0.14883885704E+03  0.00000000000E+00 0.  1.
          6    2    1    2  502    0  0.45250676120E+02  0.12982473727E+02  0.24631848939E+02  0.17750828156E+03  0.16937028584E+03 0.  0.
         24    2    3    3    0    0  0.46376207906E+02 -0.47963040748E+02 -0.16760802742E+02  0.10367695914E+03  0.77567914830E+02 0.  0.
         -6    2    1    2    0  501 -0.45250676120E+02 -0.12982473727E+02  0.39272602298E+02  0.18407388376E+03  0.17356465388E+03 0.  0.
        -24    2    5    5    0    0 -0.30160984803E+02  0.61939816730E+02  0.17889189946E+02  0.10457301134E+03  0.76611132891E+02 0.  0.
          5    1    3    3  502    0 -0.11255317864E+01  0.60945514475E+02  0.41392651680E+02  0.73831322415E+02  0.47000000000E+01 0. -1.
        -13    1    4    4    0    0 -0.16102920143E+02 -0.28986143696E+01 -0.20885461091E+02  0.26531273761E+02  0.00000000000E+00 0.  1.
         14    1    4    4    0    0  0.62479128049E+02 -0.45064426379E+02  0.41246583491E+01  0.77145685383E+02  0.00000000000E+00 0. -1.
         -5    1    5    5    0  501 -0.15089691316E+02 -0.74922290457E+02  0.21383412353E+02  0.79500872417E+02  0.47000000000E+01 0.  1.
         11    1    6    6    0    0  0.19936666924E+02 -0.18924998107E+01 -0.42303782020E+01  0.20468227655E+02  0.00000000000E+00 0. -1.
        -12    1    6    6    0    0 -0.50097651728E+02  0.63832316541E+02  0.22119568148E+02  0.84104783685E+02  0.00000000000E+00 0.  1.
</event>
<event>
12    1  0.2689284E-002  0.1798524E+03  0.7818608E-02  0.1167946E+00
          3   -1    0    0  502    0  0.00000000000E+00  0.00000000000E+00  0.12506214454E+04  0.12506214454E+04  0.00000000000E+00 0. -1.
         -3   -1    0    0    0  501 -0.00000000000E+00 -0.00000000000E+00 -0.26009195479E+02  0.26009195479E+02  0.00000000000E+00 0.  1.
          6    2    1    2  502    0  0.20523483308E+02  0.42366623540E+02  0.65446269775E+03  0.67832766524E+03  0.17201992479E+03 0.  0.
         24    2    3    3    0    0 -0.12071945632E+01  0.36666631264E+01  0.13889341538E+03  0.16083014426E+03  0.80994152441E+02 0.  0.
         -6    2    1    2    0  501 -0.20523483308E+02 -0.42366623540E+02  0.57014955218E+03  0.59830297565E+03  0.17515648621E+03 0.  0.
        -24    2    5    5    0    0  0.22530053045E+02 -0.52808753183E+02  0.52766775039E+03  0.53674455992E+03  0.79781577423E+02 0.  0.
          5    1    3    3  502    0  0.21730677872E+02  0.38699960414E+02  0.51556928236E+03  0.51749752097E+03  0.47000000000E+01 0. -1.
        -13    1    4    4    0    0  0.20497152014E+02  0.29256531183E+02  0.29257825273E+02  0.46174648859E+02  0.00000000000E+00 0.  1.
         14    1    4    4    0    0 -0.21704346578E+02 -0.25589868056E+02  0.10963559011E+03  0.11465549540E+03  0.00000000000E+00 0. -1.
         -5    1    5    5    0  501 -0.43053536353E+02  0.10442129643E+02  0.42481801790E+02  0.61558415731E+02  0.47000000000E+01 0.  1.
         13    1    6    6    0    0 -0.31546030973E+01 -0.68177776800E+02  0.35486731426E+03  0.36137096106E+03  0.00000000000E+00 0. -1.
        -14    1    6    6    0    0  0.25684656142E+02  0.15369023617E+02  0.17280043613E+03  0.17537359885E+03  0.00000000000E+00 0.  1.
</event>
<event>
12    1  0.2689284E-002  0.1849970E+03  0.7818608E-02  0.1163053E+00
         -2   -1    0    0    0  501 -0.00000000000E+00  0.00000000000E+00  0.39213505243E+02  0.39213505243E+02  0.00000000000E+00 0.  1.
          2   -1    0    0  502    0  0.00000000000E+00 -0.00000000000E+00 -0.89330705706E+03  0.89330705706E+03  0.00000000000E+00 0. -1.
          6    2    1    2  502    0  0.47713031074E+02  0.50948170353E+02 -0.35841779224E+03  0.40376401345E+03  0.17230732825E+03 0.  0.
         24    2    3    3    0    0 -0.24875681170E+02 -0.17165220268E+02 -0.15352620229E+03  0.17592369929E+03  0.80407766295E+02 0.  0.
         -6    2    1    2    0  501 -0.47713031074E+02 -0.50948170353E+02 -0.49567575958E+03  0.52875654885E+03  0.17034312408E+03 0.  0.
        -24    2    5    5    0    0  0.30480175861E+02  0.44114865287E+01 -0.26089462004E+03  0.27513647333E+03  0.81765358560E+02 0.  0.
          5    1    3    3  502    0  0.72588712244E+02  0.68113390621E+02 -0.20489158995E+03  0.22784031416E+03  0.47000000000E+01 0. -1.
        -13    1    4    4    0    0 -0.36946942898E+02 -0.16609589852E+01 -0.22199804501E+02  0.43135445913E+02  0.00000000000E+00 0.  1.
         14    1    4    4    0    0  0.12071261728E+02 -0.15504261283E+02 -0.13132639779E+03  0.13278825338E+03  0.00000000000E+00 0. -1.
         -5    1    5    5    0  501 -0.78193206935E+02 -0.55359656881E+02 -0.23478113954E+03  0.25362007551E+03  0.47000000000E+01 0.  1.
         13    1    6    6    0    0 -0.23251050652E+02  0.76007454355E+01 -0.14869677345E+03  0.15069543166E+03  0.00000000000E+00 0. -1.
        -14    1    6    6    0    0  0.53731226513E+02 -0.31892589068E+01 -0.11219784658E+03  0.12444104167E+03  0.00000000000E+00 0.  1.
</event>
<event>
12    1  0.2689284E-002  0.3409941E+03  0.7818608E-02  0.1066373E+00
         -2   -1    0    0    0  501 -0.00000000000E+00  0.00000000000E+00  0.37674424929E+02  0.37674424929E+02  0.00000000000E+00 0. -1.
          2   -1    0    0  502    0  0.00000000000E+00 -0.00000000000E+00 -0.31281287797E+04  0.31281287797E+04  0.00000000000E+00 0.  1.
          6    2    1    2  502    0  0.28293446447E+03 -0.80356228020E+02 -0.13627571608E+04  0.14047952772E+04  0.17272422165E+03 0.  0.
         24    2    3    3    0    0  0.16816457981E+03 -0.50670675484E+01 -0.55943824998E+03  0.58982046365E+03  0.81314345135E+02 0.  0.
         -6    2    1    2    0  501 -0.28293446447E+03  0.80356228020E+02 -0.17276971939E+04  0.17610079275E+04  0.17234352939E+03 0.  0.
        -24    2    5    5    0    0 -0.22237114339E+03  0.69960814596E+02 -0.95811308814E+03  0.98896015280E+03  0.75617809900E+02 0.  0.
          5    1    3    3  502    0  0.11476988466E+03 -0.75289160472E+02 -0.80331891086E+03  0.81497481351E+03  0.47000000000E+01 0. -1.
        -11    1    4    4    0    0  0.18251198492E+02 -0.46418823356E+01 -0.12245714737E+02  0.22463544855E+02  0.00000000000E+00 0.  1.
         12    1    4    4    0    0  0.14991338132E+03 -0.42518521282E+00 -0.54719253525E+03  0.56735691880E+03  0.00000000000E+00 0. -1.
         -5    1    5    5    0  501 -0.60563321076E+02  0.10395413424E+02 -0.76958410578E+03  0.77204777465E+03  0.47000000000E+01 0.  1.
         11    1    6    6    0    0 -0.99014015475E+02  0.45221227403E+01 -0.51190434966E+03  0.52141182194E+03  0.00000000000E+00 0. -1.
        -12    1    6    6    0    0 -0.12335712792E+03  0.65438691855E+02 -0.44620873848E+03  0.46754833087E+03  0.00000000000E+00 0.  1.
</event>
<event>
12    1  0.2689284E-002  0.2688126E+03  0.7818608E-02  0.1101961E+00
          1   -1    0    0  502    0  0.00000000000E+00  0.00000000000E+00  0.34350892626E+03  0.34350892626E+03  0.00000000000E+00 0. -1.
         -1   -1    0    0    0  501 -0.00000000000E+00 -0.00000000000E+00 -0.50412916487E+03  0.50412916487E+03  0.00000000000E+00 0.  1.
          6    2    1    2  502    0  0.50772033752E+02 -0.19847702543E+03 -0.40379112414E+03  0.48487326748E+03  0.17344706556E+03 0.  0.
         24    2    3    3    0    0  0.49210000048E+02 -0.35478786838E+02 -0.10685693091E+03  0.14610657662E+03  0.79046566190E+02 0.  0.
         -6    2    1    2    0  501 -0.50772033752E+02  0.19847702543E+03  0.24317088553E+03  0.36276482364E+03  0.17462906021E+03 0.  0.
        -24    2    5    5    0    0 -0.83541745068E+02  0.15442300712E+03  0.23899690271E+03  0.30750070652E+03  0.81310987627E+02 0.  0.
          5    1    3    3  502    0  0.15620337041E+01 -0.16299823859E+03 -0.29693419323E+03  0.33876669087E+03  0.47000000000E+01 0. -1.
        -11    1    4    4    0    0  0.47162572531E+02 -0.23344782886E+02 -0.11819086289E+03  0.12937684185E+03  0.00000000000E+00 0.  1.
         12    1    4    4    0    0  0.20474275169E+01 -0.12134003952E+02  0.11333931978E+02  0.16729734769E+02  0.00000000000E+00 0. -1.
         -5    1    5    5    0  501  0.32769711316E+02  0.44054018306E+02  0.41739828187E+01  0.55264117121E+02  0.47000000000E+01 0.  1.
         11    1    6    6    0    0 -0.84577320954E+02  0.12135390447E+03  0.14211896422E+03  0.20512896758E+03  0.00000000000E+00 0. -1.
        -12    1    6    6    0    0  0.10355758862E+01  0.33069102653E+02  0.96877938491E+02  0.10237173894E+03  0.00000000000E+00 0.  1.
</event>
<event>
12    1  0.2689284E-002  0.2370170E+03  0.7818608E-02  0.1121796E+00
         -1   -1    0    0    0  501 -0.00000000000E+00  0.00000000000E+00  0.78219315701E+02  0.78219315701E+02  0.00000000000E+00 0.  1.
          1   -1    0    0  502    0  0.00000000000E+00 -0.00000000000E+00 -0.73730647742E+03  0.73730647742E+03  0.00000000000E+00 0. -1.
          6    2    1    2  502    0 -0.15528133211E+03  0.44293201287E+02 -0.26368324700E+03  0.35444235024E+03  0.17328111585E+03 0.  0.
         24    2    3    3    0    0 -0.24851417769E+01  0.10094460730E+02 -0.86783443070E+02  0.11815468601E+03  0.79505281383E+02 0.  0.
         -6    2    1    2    0  501  0.15528133211E+03 -0.44293201287E+02 -0.39540391472E+03  0.46108344288E+03  0.17372249635E+03 0.  0.
        -24    2    5    5    0    0  0.69346054874E+02 -0.60466690963E+02 -0.32672467470E+03  0.34979381330E+03  0.84508003895E+02 0.  0.
          5    1    3    3  502    0 -0.15279619034E+03  0.34198740557E+02 -0.17689980393E+03  0.23628766423E+03  0.47000000000E+01 0. -1.
        -11    1    4    4    0    0  0.52149932410E+01  0.42687428610E+02 -0.30720329070E+02  0.52850272790E+02  0.00000000000E+00 0.  1.
         12    1    4    4    0    0 -0.77001350178E+01 -0.32592967880E+02 -0.56063114000E+02  0.65304413219E+02  0.00000000000E+00 0. -1.
         -5    1    5    5    0  501  0.85935277240E+02  0.16173489676E+02 -0.68679240021E+02  0.11128962958E+03  0.47000000000E+01 0.  1.
         11    1    6    6    0    0 -0.11027274952E+02 -0.18891625113E+02 -0.14653608185E+03  0.14815977043E+03  0.00000000000E+00 0. -1.
        -12    1    6    6    0    0  0.80373329826E+02 -0.41575065850E+02 -0.18018859286E+03  0.20163404287E+03  0.00000000000E+00 0.  1.
</event>
<event>
12    1  0.2689284E-002  0.1877831E+03  0.7818608E-02  0.1160476E+00
          1   -1    0    0  502    0  0.00000000000E+00  0.00000000000E+00  0.53656302505E+02  0.53656302505E+02  0.00000000000E+00 0.  1.
         -1   -1    0    0    0  501 -0.00000000000E+00 -0.00000000000E+00 -0.72028074434E+03  0.72028074434E+03  0.00000000000E+00 0. -1.
          6    2    1    2  502    0  0.78948206416E+02 -0.71216222498E+01 -0.21920969647E+03  0.28881351383E+03  0.17051925975E+03 0.  0.
         24    2    3    3    0    0  0.48995811283E+02  0.51985691135E+02 -0.77860670301E+02  0.13263266459E+03  0.80162573130E+02 0.  0.
         -6    2    1    2    0  501 -0.78948206416E+02  0.71216222498E+01 -0.44741474536E+03  0.48512353302E+03  0.16994514149E+03 0.  0.
        -24    2    5    5    0    0 -0.60755133407E+02 -0.57855898319E+02 -0.23232822583E+03  0.25965210030E+03  0.80026979626E+02 0.  0.
          5    1    3    3  502    0  0.29952395133E+02 -0.59107313385E+02 -0.14134902617E+03  0.15618084924E+03  0.47000000000E+01 0. -1.
        -13    1    4    4    0    0  0.56173184653E+02  0.31159861472E+01 -0.29580385356E+02  0.63562058192E+02  0.00000000000E+00 0.  1.
         14    1    4    4    0    0 -0.71773733704E+01  0.48869704988E+02 -0.48280284945E+02  0.69070606400E+02  0.00000000000E+00 0. -1.
         -5    1    5    5    0  501 -0.18193073009E+02  0.64977520569E+02 -0.21508651954E+03  0.22547143272E+03  0.47000000000E+01 0.  1.
         13    1    6    6    0    0 -0.73172877336E+02 -0.35075893931E+02 -0.21100203605E+03  0.22606735176E+03  0.00000000000E+00 0. -1.
        -14    1    6    6    0    0  0.12417743929E+02 -0.22780004389E+02 -0.21326189775E+02  0.33584748541E+02  0.00000000000E+00 0.  1.
</event>
<event>
12    1  0.2689284E-002  0.1804880E+03  0.7818608E-02  0.1167332E+00
         -1   -1    0    0    0  501 -0.00000000000E+00  0.00000000000E+00  0.25406987823E+02  0.25406987823E+02  0.00000000000E+00 0. -1.
          1   -1    0    0  502    0  0.00000000000E+00 -0.00000000000E+00 -0.13774268803E+04  0.13774268803E+04  0.00000000000E+00 0.  1.
          6    2    1    2  502    0 -0.55451741114E+02  0.80287818659E+00 -0.49111621208E+03  0.52318845817E+03  0.17162601432E+03 0.  0.
         24    2    3    3    0    0  0.26323121999E+02  0.10588786238E+02 -0.34809018876E+03  0.35807811452E+03  0.79045097525E+02 0.  0.
         -6    2    1    2    0  501  0.55451741114E+02 -0.80287818659E+00 -0.86090368041E+03  0.87964540996E+03  0.17188763807E+03 0.  0.
        -24    2    5    5    0    0  0.45610805617E+02  0.44968736286E+02 -0.77360003209E+03  0.78046929534E+03  0.81072674050E+02 0.  0.
          5    1    3    3  502    0 -0.81774863113E+02 -0.97859080517E+01 -0.14302602332E+03  0.16511034365E+03  0.47000000000E+01 0. -1.
        -13    1    4    4    0    0  0.89547585792E+01 -0.31766665724E+02 -0.87911926447E+02  0.93903224461E+02  0.00000000000E+00 0.  1.
         14    1    4    4    0    0  0.17368363420E+02  0.42355451962E+02 -0.26017826231E+03  0.26417489006E+03  0.00000000000E+00 0. -1.
         -5    1    5    5    0  501  0.98409354971E+01 -0.45771614473E+02 -0.87303648315E+02  0.99176114625E+02  0.47000000000E+01 0.  1.
         13    1    6    6    0    0  0.60999141405E+02  0.11782746972E+02 -0.36642699831E+03  0.37165639167E+03  0.00000000000E+00 0. -1.
        -14    1    6    6    0    0 -0.15388335788E+02  0.33185989314E+02 -0.40717303379E+03  0.40881290367E+03  0.00000000000E+00 0.  1.
</event>
<event>
12    1  0.2689284E-002  0.2043508E+03  0.7818608E-02  0.1146119E+00
          2   -1    0    0  502    0  0.00000000000E+00  0.00000000000E+00  0.18796792660E+04  0.18796792660E+04  0.00000000000E+00 0.  1.
         -2   -1    0    0    0  501 -0.00000000000E+00 -0.00000000000E+00 -0.27935220182E+02  0.27935220182E+02  0.00000000000E+00 0. -1.
          6    2    1    2  502    0  0.68416598960E+02 -0.87557151445E+02  0.49841584781E+03  0.53911295112E+03  0.17285060294E+03 0.  0.
         24    2    3    3    0    0  0.71328087242E+02 -0.29641405940E+02  0.15547334928E+03  0.19127051892E+03  0.80287857710E+02 0.  0.
         -6    2    1    2    0  501 -0.68416598960E+02  0.87557151445E+02  0.13533281980E+04  0.13685015351E+04  0.17015332544E+03 0.  0.
        -24    2    5    5    0    0 -0.46009690903E+02  0.11724326780E+03  0.12451686967E+04  0.12540292557E+04  0.79255379958E+02 0.  0.
          5    1    3    3  502    0 -0.29114882826E+01 -0.57915745504E+02  0.34294249853E+03  0.34784243220E+03  0.47000000000E+01 0. -1.
        -11    1    4    4    0    0 -0.55830321386E+01  0.19283988386E+02  0.24021688847E+02  0.31306293153E+02  0.00000000000E+00 0.  1.
         12    1    4    4    0    0  0.76911119381E+02 -0.48925394327E+02  0.13145166043E+03  0.15996422577E+03  0.00000000000E+00 0. -1.
         -5    1    5    5    0  501 -0.22406908057E+02 -0.29686116358E+02  0.10815950130E+03  0.11447227941E+03  0.47000000000E+01 0.  1.
         11    1    6    6    0    0 -0.33837068965E+02  0.64513768432E+01  0.20118964986E+03  0.20411722786E+03  0.00000000000E+00 0. -1.
        -12    1    6    6    0    0 -0.12172621937E+02  0.11079189096E+03  0.10439790469E+04  0.10499120278E+04  0.00000000000E+00 0.  1.
</event>
<event>
12    1  0.2689284E-002  0.1827333E+03  0.7818608E-02  0.1165184E+00
         -2   -1    0    0    0  501 -0.00000000000E+00  0.00000000000E+00  0.26611335910E+02  0.26611335910E+02  0.00000000000E+00 0. -1.
          2   -1    0    0  502    0  0.00000000000E+00 -0.00000000000E+00 -0.12769987600E+04  0.12769987600E+04  0.00000000000E+00 0.  1.
          6    2    1    2  502    0 -0.54688653682E+02  0.23851732616E+02 -0.71658690571E+03  0.73993639899E+03  0.17449735566E+03 0.  0.
         24    2    3    3    0    0 -0.88139748687E+02 -0.18711105632E+02 -0.58995716098E+03  0.60214034242E+03  0.80030115626E+02 0.  0.
         -6    2    1    2    0  501  0.54688653682E+02 -0.23851732616E+02 -0.53380051839E+03  0.56367369693E+03  0.17095405576E+03 0.  0.
        -24    2    5    5    0    0  0.91834494932E+02  0.19727348441E+02 -0.37759998007E+03  0.39724158464E+03  0.79977427337E+02 0.  0.
          5    1    3    3  502    0  0.33451095005E+02  0.42562838248E+02 -0.12662974473E+03  0.13779605657E+03  0.47000000000E+01 0. -1.
        -11    1    4    4    0    0 -0.75061410616E+02 -0.41844757379E+02 -0.52451328855E+03  0.53150671581E+03  0.00000000000E+00 0.  1.
         12    1    4    4    0    0 -0.13078338071E+02  0.23133651747E+02 -0.65443872425E+02  0.70633626608E+02  0.00000000000E+00 0. -1.
         -5    1    5    5    0  501 -0.37145841250E+02 -0.43579081056E+02 -0.15620053832E+03  0.16643211229E+03  0.47000000000E+01 0.  1.
         13    1    6    6    0    0  0.50951515591E+02  0.27330146098E+01 -0.32272039812E+03  0.32672921766E+03  0.00000000000E+00 0. -1.
        -14    1    6    6    0    0  0.40882979341E+02  0.16994333831E+02 -0.54879581946E+02  0.70512366977E+02  0.00000000000E+00 0.  1.
</event>
<event>
12    1  0.2689284E-002  0.1845509E+03  0.7818608E-02  0.1163470E+00
         -2   -1    0    0    0  501 -0.00000000000E+00  0.00000000000E+00  0.26041825679E+02  0.26041825679E+02  0.00000000000E+00 0. -1.
          2   -1    0    0  502    0  0.00000000000E+00 -0.00000000000E+00 -0.16993905330E+04  0.16993905330E+04  0.00000000000E+00 0.  1.
          6    2    1    2  502    0  0.62474081575E+02 -0.14652166163E+02 -0.42608570604E+03  0.46473522164E+03  0.17410370616E+03 0.  0.
         24    2    3    3    0    0  0.35981248854E+02 -0.69143512308E+02 -0.34960093302E+03  0.36704598224E+03  0.80165236526E+02 0.  0.
         -6    2    1    2    0  501 -0.62474081575E+02  0.14652166163E+02 -0.12472630013E+04  0.12606971370E+04  0.17197261448E+03 0.  0.
        -24    2    5    5    0    0 -0.33567970486E+02  0.72602215494E+02 -0.93101968804E+03  0.93785709206E+03  0.79877251219E+02 0.  0.
          5    1    3    3  502    0  0.26492832721E+02  0.54491346144E+02 -0.76484773014E+02  0.97689239393E+02  0.47000000000E+01 0. -1.
        -13    1    4    4    0    0  0.23534685210E+02 -0.70756257494E+02 -0.34606397788E+03  0.35400650582E+03  0.00000000000E+00 0.  1.
         14    1    4    4    0    0  0.12446563644E+02  0.16127451861E+01 -0.35369551470E+01  0.13039476420E+02  0.00000000000E+00 0. -1.
         -5    1    5    5    0  501 -0.28906111090E+02 -0.57950049331E+02 -0.31624331323E+03  0.32284004498E+03  0.47000000000E+01 0.  1.
         13    1    6    6    0    0  0.23018764704E+02  0.12019229778E+02 -0.13065302656E+03  0.13320862870E+03  0.00000000000E+00 0. -1.
        -14    1    6    6    0    0 -0.56586735190E+02  0.60582985716E+02 -0.80036666149E+03  0.80464846335E+03  0.00000000000E+00 0.  1.
</event>
<event>
12    1  0.2689284E-002  0.2257495E+03  0.7818608E-02  0.1129668E+00
          2   -1    0    0  502    0  0.00000000000E+00  0.00000000000E+00  0.12853226209E+04  0.12853226209E+04  0.00000000000E+00 0. -1.
         -2   -1    0    0    0  501 -0.00000000000E+00 -0.00000000000E+00 -0.40967517789E+02  0.40967517789E+02  0.00000000000E+00 0.  1.
          6    2    1    2  502    0 -0.80869818202E+02 -0.12600401411E+03  0.50825867134E+03  0.55688794291E+03  0.17140701534E+03 0.  0.
         24    2    3    3    0    0  0.15561603926E+01 -0.32004738823E+02  0.11772741880E+03  0.14680666450E+03  0.81643901555E+02 0.  0.
         -6    2    1    2    0  501  0.80869818202E+02  0.12600401411E+03  0.73609643174E+03  0.76940219574E+03  0.16650778636E+03 0.  0.
        -24    2    5    5    0    0  0.98517866161E+02  0.89904324146E+02  0.69323764120E+03  0.71046488041E+03  0.79958499587E+02 0.  0.
          5    1    3    3  502    0 -0.82425978595E+02 -0.93999275290E+02  0.39053125253E+03  0.41008127841E+03  0.47000000000E+01 0. -1.
        -13    1    4    4    0    0 -0.92667713866E+01  0.26440016722E+02  0.43019782515E+02  0.51338574424E+02  0.00000000000E+00 0.  1.
         14    1    4    4    0    0  0.10822931779E+02 -0.58444755545E+02  0.74707636289E+02  0.95468090077E+02  0.00000000000E+00 0. -1.
         -5    1    5    5    0  501 -0.17648047959E+02  0.36099689967E+02  0.42858790540E+02  0.58937315336E+02  0.47000000000E+01 0.  1.
         13    1    6    6    0    0  0.87722196737E+02  0.28107484608E+02  0.37979305393E+03  0.39080427109E+03  0.00000000000E+00 0. -1.
        -14    1    6    6    0    0  0.10795669424E+02  0.61796839538E+02  0.31344458728E+03  0.31966060932E+03  0.00000000000E+00 0.  1.
</event>
<event>
12    1  0.2689284E-002  0.1888828E+03  0.7818608E-02  0.1159473E+00
          2   -1    0    0  502    0  0.00000000000E+00  0.00000000000E+00  0.22640897024E+03  0.22640897024E+03  0.00000000000E+00 0. -1.
         -2   -1    0    0    0  501 -0.00000000000E+00 -0.00000000000E+00 -0.22146404779E+03  0.22146404779E+03  0.00000000000E+00 0.  1.
          6    2    1    2  502    0  0.76869140134E+02 -0.17252043242E+02  0.12275294289E+03  0.22578842613E+03  0.17235321489E+03 0.  0.
         24    2    3    3    0    0  0.23562441925E+02  0.53661827607E+02  0.72461827113E+02  0.12370185757E+03  0.81342810175E+02 0.  0.
         -6    2    1    2    0  501 -0.76869140134E+02  0.17252043242E+02 -0.11780802044E+03  0.22208459191E+03  0.17098636957E+03 0.  0.
        -24    2    5    5    0    0 -0.10994889025E+02 -0.49663885210E+01  0.32469155410E+01  0.82408311903E+02  0.81455723007E+02 0.  0.
          5    1    3    3  502    0  0.53306698209E+02 -0.70913870849E+02  0.50291115774E+02  0.10208656855E+03  0.47000000000E+01 0. -1.
        -11    1    4    4    0    0 -0.13322470290E+01  0.63816229667E+02  0.23830929472E+02  0.68133686606E+02  0.00000000000E+00 0.  1.
         12    1    4    4    0    0  0.24894688954E+02 -0.10154402060E+02  0.48630897641E+02  0.55568170968E+02  0.00000000000E+00 0. -1.
         -5    1    5    5    0  501 -0.65874251109E+02  0.22218431763E+02 -0.12105493599E+03  0.13967628000E+03  0.47000000000E+01 0.  1.
         13    1    6    6    0    0  0.14222445353E+01  0.37789277442E+02  0.19880015741E+01  0.37868250810E+02  0.00000000000E+00 0. -1.
        -14    1    6    6    0    0 -0.12417133560E+02 -0.42755665963E+02  0.12589139669E+01  0.44540061093E+02  0.00000000000E+00 0.  1.
</event>
<event>
12    1  0.2689284E-002  0.1899062E+03  0.7818608E-02  0.1158546E+00
         -2   -1    0    0    0  501 -0.00000000000E+00  0.00000000000E+00  0.88608819462E+02  0.88608819462E+02  0.00000000000E+00 0.  1.
          2   -1    0    0  502    0  0.00000000000E+00 -0.00000000000E+00 -0.47499398208E+03  0.47499398208E+03  0.00000000000E+00 0. -1.
          6    2    1    2  502    0  0.40268077234E+02 -0.72371049894E+02 -0.86781782524E+02  0.20900675219E+03  0.17115390085E+03 0.  0.
         24    2    3    3    0    0 -0.43142434745E+02 -0.55532593091E+02 -0.66745540283E+02  0.12146026089E+03  0.73160708416E+02 0.  0.
         -6    2    1    2    0  501 -0.40268077234E+02  0.72371049894E+02 -0.29960338009E+03  0.35459604935E+03  0.17063729354E+03 0.  0.
        -24    2    5    5    0    0 -0.14655338435E+02 -0.13746826308E+02 -0.21888297201E+03  0.23372349138E+03  0.79455401367E+02 0.  0.
          5    1    3    3  502    0  0.83410511979E+02 -0.16838456803E+02 -0.20036242241E+02  0.87546491302E+02  0.47000000000E+01 0. -1.
        -11    1    4    4    0    0  0.76981542743E+01 -0.10827771571E+02  0.11797153273E+02  0.17767246320E+02  0.00000000000E+00 0.  1.
         12    1    4    4    0    0 -0.50840589020E+02 -0.44704821520E+02 -0.78542693557E+02  0.10369301457E+03  0.00000000000E+00 0. -1.
         -5    1    5    5    0  501 -0.25612738798E+02  0.86117876202E+02 -0.80720408076E+02  0.12087255797E+03  0.47000000000E+01 0.  1.
         11    1    6    6    0    0  0.28011903993E+02  0.13529549694E+02 -0.75347121403E+02  0.81516281711E+02  0.00000000000E+00 0. -1.
        -12    1    6    6    0    0 -0.42667242429E+02 -0.27276376001E+02 -0.14353585061E+03  0.15220720967E+03  0.00000000000E+00 0.  1.
</event>
<event>
12    1  0.2689284E-002  0.1943254E+03  0.7818608E-02  0.1154617E+00
          2   -1    0    0  502    0  0.00000000000E+00  0.00000000000E+00  0.43871277464E+03  0.43871277464E+03  0.00000000000E+00 0. -1.
         -2   -1    0    0    0  501 -0.00000000000E+00 -0.00000000000E+00 -0.97285612156E+02  0.97285612156E+02  0.00000000000E+00 0.  1.
          6    2    1    2  502    0 -0.92822496191E+02  0.25433477637E+02  0.26243139312E+03  0.32712585088E+03  0.16993589566E+03 0.  0.
         24    2    3    3    0    0 -0.35435762837E+01  0.25216123792E+02  0.20343317697E+03  0.22001071520E+03  0.79820094452E+02 0.  0.
         -6    2    1    2    0  501  0.92822496191E+02 -0.25433477637E+02  0.78995769357E+02  0.20887253591E+03  0.16770368839E+03 0.  0.
        -24    2    5    5    0    0  0.24088299197E+01 -0.56211167730E+02  0.34205856741E+02  0.10327839058E+03  0.79566874307E+02 0.  0.
          5    1    3    3  502    0 -0.89278919907E+02  0.21735384519E+00  0.58998216154E+02  0.10711513568E+03  0.47000000000E+01 0. -1.
        -13    1    4    4    0    0  0.27408767927E+02 -0.16322418375E+02  0.82249367980E+02  0.88219161377E+02  0.00000000000E+00 0.  1.
         14    1    4    4    0    0 -0.30952344211E+02  0.41538542167E+02  0.12118380899E+03  0.13179155382E+03  0.00000000000E+00 0. -1.
         -5    1    5    5    0  501  0.90413666271E+02  0.30777690093E+02  0.44789912617E+02  0.10559414533E+03  0.47000000000E+01 0.  1.
         13    1    6    6    0    0 -0.65460460904E+01  0.58719426458E+01  0.39370389964E+02  0.40340525973E+02  0.00000000000E+00 0. -1.
        -14    1    6    6    0    0  0.89548760100E+01 -0.62083110376E+02 -0.51645332233E+01  0.62937864611E+02  0.00000000000E+00 0.  1.
</event>
<event>
12    1  0.2689284E-002  0.2129947E+03  0.7818608E-02  0.1139216E+00
         -1   -1    0    0    0  501 -0.00000000000E+00  0.00000000000E+00  0.94707063255E+02  0.94707063255E+02  0.00000000000E+00 0.  1.
          1   -1    0    0  502    0  0.00000000000E+00 -0.00000000000E+00 -0.48624840377E+03  0.48624840377E+03  0.00000000000E+00 0. -1.
          6    2    1    2  502    0  0.32369360594E+02 -0.12094098038E+03 -0.23099676331E+03  0.31406875546E+03  0.17206156531E+03 0.  0.
         24    2    3    3    0    0  0.40383500589E+02 -0.47220859240E+02 -0.21597978142E+03  0.23826319863E+03  0.79129319298E+02 0.  0.
         -6    2    1    2    0  501 -0.32369360594E+02  0.12094098038E+03 -0.16054457720E+03  0.26688671156E+03  0.17256726021E+03 0.  0.
        -24    2    5    5    0    0  0.34307770712E+02  0.12528443236E+03 -0.13934606103E+03  0.19662881163E+03  0.48706803605E+02 0.  0.
          5    1    3    3  502    0 -0.80141399955E+01 -0.73720121144E+02 -0.15016981888E+02  0.75805556830E+02  0.47000000000E+01 0. -1.
        -11    1    4    4    0    0  0.36432809556E+02 -0.31286760182E+02 -0.42862530361E+02  0.64369305448E+02  0.00000000000E+00 0.  1.
         12    1    4    4    0    0  0.39506910333E+01 -0.15934099058E+02 -0.17311725106E+03  0.17389389319E+03  0.00000000000E+00 0. -1.
         -5    1    5    5    0  501 -0.66677131306E+02 -0.43434519722E+01 -0.21198516172E+02  0.70257899927E+02  0.47000000000E+01 0.  1.
         11    1    6    6    0    0  0.10323338133E+02  0.10608960591E+03 -0.95649420208E+02  0.14321448034E+03  0.00000000000E+00 0. -1.
        -12    1    6    6    0    0  0.23984432579E+02  0.19194826444E+02 -0.43696640821E+02  0.53414331292E+02  0.00000000000E+00 0.  1.
</event>
<event>
12    1  0.2689284E-002  0.1740253E+03  0.7818608E-02  0.1173714E+00
         -1   -1    0    0    0  501 -0.00000000000E+00  0.00000000000E+00  0.32394870125E+03  0.32394870125E+03  0.00000000000E+00 0. -1.
          1   -1    0    0  502    0  0.00000000000E+00 -0.00000000000E+00 -0.96996083747E+02  0.96996083747E+02  0.00000000000E+00 0.  1.
          6    2    1    2  502    0 -0.17000548612E+02  0.21947244424E+02  0.15342106065E+03  0.23188894219E+03  0.17165010768E+03 0.  0.
         24    2    3    3    0    0 -0.63262821595E+01 -0.48079119704E+02  0.47365825902E+02  0.10426670880E+03  0.79223743308E+02 0.  0.
         -6    2    1    2    0  501  0.17000548612E+02 -0.21947244424E+02  0.73531556856E+02  0.18905584281E+03  0.17194336758E+03 0.  0.
        -24    2    5    5    0    0 -0.14860665531E+02 -0.28145474790E+02 -0.20232239130E+02  0.89721586563E+02  0.81410149638E+02 0.  0.
          5    1    3    3  502    0 -0.10674266453E+02  0.70026364128E+02  0.10605523475E+03  0.12762223339E+03  0.47000000000E+01 0. -1.
        -11    1    4    4    0    0  0.14992110772E+02  0.38244525468E+01 -0.14176326946E+02  0.20984710348E+02  0.00000000000E+00 0.  1.
         12    1    4    4    0    0 -0.21318392932E+02 -0.51903572251E+02  0.61542152848E+02  0.83281998455E+02  0.00000000000E+00 0. -1.
         -5    1    5    5    0  501  0.31861214143E+02  0.61982303659E+01  0.93763795986E+02  0.99334256246E+02  0.47000000000E+01 0.  1.
         13    1    6    6    0    0 -0.33483563054E+02 -0.62823407308E+01  0.20591818399E+02  0.39807534272E+02  0.00000000000E+00 0. -1.
        -14    1    6    6    0    0  0.18622897523E+02 -0.21863134059E+02 -0.40824057529E+02  0.49914052291E+02  0.00000000000E+00 0.  1.
</event>
<event>
12    1  0.2689284E-002  0.1906536E+03  0.7818608E-02  0.1157873E+00
          2   -1    0    0  502    0  0.00000000000E+00  0.00000000000E+00  0.10032182368E+04  0.10032182368E+04  0.00000000000E+00 0.  1.
         -2   -1    0    0    0  501 -0.00000000000E+00 -0.00000000000E+00 -0.38527416389E+02  0.38527416389E+02  0.00000000000E+00 0. -1.
          6    2    1    2  502    0  0.75803821316E+02  0.31070545874E+02  0.61172760780E+03  0.64103517539E+03  0.17321614186E+03 0.  0.
         24    2    3    3    0    0  0.50304983980E+02 -0.12895925410E+02  0.15666461130E+03  0.18311852131E+03  0.79320212485E+02 0.  0.
         -6    2    1    2    0  501 -0.75803821316E+02 -0.31070545874E+02  0.35296321266E+03  0.40071047784E+03  0.17109722211E+03 0.  0.
        -24    2    5    5    0    0  0.99993679744E+01  0.35614272117E+01  0.24692873059E+03  0.25990223149E+03  0.80390924985E+02 0.  0.
          5    1    3    3  502    0  0.25498837336E+02  0.43966471284E+02  0.45506299650E+03  0.45791665408E+03  0.47000000000E+01 0. -1.
        -11    1    4    4    0    0 -0.19922633299E+02 -0.61454288049E+01  0.59460193632E+02  0.63009461508E+02  0.00000000000E+00 0.  1.
         12    1    4    4    0    0  0.70227617279E+02 -0.67504966049E+01  0.97204417669E+02  0.12010905981E+03  0.00000000000E+00 0. -1.
         -5    1    5    5    0  501 -0.85803189291E+02 -0.34631973086E+02  0.10603448207E+03  0.14080824635E+03  0.47000000000E+01 0.  1.
         13    1    6    6    0    0 -0.18553394199E+02  0.33183366309E+02  0.90671397565E+02  0.98319207545E+02  0.00000000000E+00 0. -1.
        -14    1    6    6    0    0  0.28552762174E+02 -0.29621939098E+02  0.15625733303E+03  0.16158302395E+03  0.00000000000E+00 0.  1.
</event>
<event>
12    1  0.2689284E-002  0.1780188E+03  0.7818608E-02  0.1169734E+00
         -1   -1    0    0    0  501 -0.00000000000E+00  0.00000000000E+00  0.72430372114E+03  0.72430372114E+03  0.00000000000E+00 0. -1.
          1   -1    0    0  502    0  0.00000000000E+00 -0.00000000000E+00 -0.60911556664E+02  0.60911556664E+02  0.00000000000E+00 0.  1.
          6    2    1    2  502    0 -0.30707286645E+02  0.20874166075E+02  0.12612125216E+03  0.21986013421E+03  0.17621929550E+03 0.  0.
         24    2    3    3    0    0 -0.30021056907E+02  0.52640255296E+02  0.97280157364E+01  0.99116476740E+02  0.77827895614E+02 0.  0.
         -6    2    1    2    0  501  0.30707286645E+02 -0.20874166075E+02  0.53727091232E+03  0.56535514359E+03  0.17201086273E+03 0.  0.
        -24    2    5    5    0    0  0.17082773819E+02 -0.75502907884E+02  0.26418112941E+03  0.28648232973E+03  0.79296568969E+02 0.  0.
          5    1    3    3  502    0 -0.68622973803E+00 -0.31766089221E+02  0.11639323642E+03  0.12074365747E+03  0.47000000000E+01 0. -1.
        -13    1    4    4    0    0 -0.38960432758E+02  0.34075971331E+01 -0.16703422477E+02  0.42526831076E+02  0.00000000000E+00 0.  1.
         14    1    4    4    0    0  0.89393758505E+01  0.49232658163E+02  0.26431438213E+02  0.56589645664E+02  0.00000000000E+00 0. -1.
         -5    1    5    5    0  501  0.13624512826E+02  0.54628741808E+02  0.27308978291E+03  0.27887281386E+03  0.47000000000E+01 0.  1.
         13    1    6    6    0    0  0.35305008969E+02 -0.25556822827E+02  0.19170210279E+03  0.19659422948E+03  0.00000000000E+00 0. -1.
        -14    1    6    6    0    0 -0.18222235149E+02 -0.49946085057E+02  0.72479026621E+02  0.89888100248E+02  0.00000000000E+00 0.  1.
</event>
<event>
12    1  0.2689284E-002  0.1924541E+03  0.7818608E-02  0.1156266E+00
          1   -1    0    0  502    0  0.00000000000E+00  0.00000000000E+00  0.82996356987E+02  0.82996356987E+02  0.00000000000E+00 0. -1.
         -1   -1    0    0    0  501 -0.00000000000E+00 -0.00000000000E+00 -0.47821049491E+03  0.47821049491E+03  0.00000000000E+00 0.  1.
          6    2    1    2  502    0  0.47310232243E+02  0.70816480529E+02 -0.12489040552E+03  0.22925518484E+03  0.17235746110E+03 0.  0.
         24    2    3    3    0    0  0.17129930835E+02 -0.12798586745E+02 -0.11284916488E+03  0.13942528145E+03  0.79039463173E+02 0.  0.
         -6    2    1    2    0  501 -0.47310232243E+02 -0.70816480529E+02 -0.27032373240E+03  0.33195166705E+03  0.17281133346E+03 0.  0.
        -24    2    5    5    0    0 -0.75954028946E+02 -0.66666355006E+02 -0.27509102791E+03  0.30224463526E+03  0.73914332203E+02 0.  0.
          5    1    3    3  502    0  0.30180301408E+02  0.83615067274E+02 -0.12041240644E+02  0.89829903398E+02  0.47000000000E+01 0. -1.
        -13    1    4    4    0    0  0.29205663384E+02 -0.40836256137E+02 -0.58502854364E+02  0.77091857921E+02  0.00000000000E+00 0.  1.
         14    1    4    4    0    0 -0.12075732548E+02  0.28037669391E+02 -0.54346310517E+02  0.62333423524E+02  0.00000000000E+00 0. -1.
         -5    1    5    5    0  501  0.28643796702E+02 -0.41501255229E+01  0.47672955123E+01  0.29707031792E+02  0.47000000000E+01 0.  1.
         13    1    6    6    0    0 -0.26249632279E+02  0.13963002550E+02 -0.52413534069E+02  0.60259332792E+02  0.00000000000E+00 0. -1.
        -14    1    6    6    0    0 -0.49704396667E+02 -0.80629357555E+02 -0.22267749384E+03  0.24198530247E+03  0.00000000000E+00 0.  1.
</event>
<event>
12    1  0.2689284E-002  0.3805676E+03  0.7818608E-02  0.1050724E+00
          2   -1    0    0  502    0  0.00000000000E+00  0.00000000000E+00  0.88867055482E+03  0.88867055482E+03  0.00000000000E+00 0. -1.
         -2   -1    0    0    0  501 -0.00000000000E+00 -0.00000000000E+00 -0.68415666106E+03  0.68415666106E+03  0.00000000000E+00 0.  1.
          6    2    1    2  502    0  0.20543687953E+03 -0.26987477147E+03 -0.58411746881E+03  0.69724137737E+03  0.17296131705E+03 0.  0.
         24    2    3    3    0    0  0.21959419171E+03 -0.23551019732E+03 -0.45594431366E+03  0.56370561008E+03  0.78690123886E+02 0.  0.
         -6    2    1    2    0  501 -0.20543687953E+03  0.26987477147E+03  0.78863136258E+03  0.87558583852E+03  0.17226267971E+03 0.  0.
        -24    2    5    5    0    0 -0.22466077778E+03  0.26443533449E+03  0.71305031219E+03  0.79726769939E+03  0.82441043032E+02 0.  0.
          5    1    3    3  502    0 -0.14157312180E+02 -0.34364574152E+02 -0.12817315515E+03  0.13353576729E+03  0.47000000000E+01 0. -1.
        -11    1    4    4    0    0  0.18290950967E+03 -0.21661891240E+03 -0.35271294104E+03  0.45253293882E+03  0.00000000000E+00 0.  1.
         12    1    4    4    0    0  0.36684682042E+02 -0.18891284926E+02 -0.10323137262E+03  0.11117267126E+03  0.00000000000E+00 0. -1.
         -5    1    5    5    0  501  0.19223898251E+02  0.54394369856E+01  0.75581050385E+02  0.78318139125E+02  0.47000000000E+01 0.  1.
         13    1    6    6    0    0 -0.13563455624E+03  0.96766673185E+02  0.34634902146E+03  0.38434121110E+03  0.00000000000E+00 0. -1.
        -14    1    6    6    0    0 -0.89026221537E+02  0.16766866130E+03  0.36670129073E+03  0.41292648829E+03  0.00000000000E+00 0.  1.
</event>
<event>
12    1  0.2689284E-002  0.3569887E+03  0.7818608E-02  0.1059783E+00
         -1   -1    0    0    0  501 -0.00000000000E+00  0.00000000000E+00  0.57087065518E+02  0.57087065518E+02  0.00000000000E+00 0.  1.
          1   -1    0    0  502    0  0.00000000000E+00 -0.00000000000E+00 -0.26161951167E+04  0.26161951167E+04  0.00000000000E+00 0. -1.
          6    2    1    2  502    0 -0.30886293244E+03  0.53049642464E+02 -0.17915351945E+04  0.18267581487E+04  0.17098656404E+03 0.  0.
         24    2    3    3    0    0 -0.11012784485E+03 -0.26184687471E+02 -0.85866374143E+03  0.86965577589E+03  0.78638207095E+02 0.  0.
         -6    2    1    2    0  501  0.30886293244E+03 -0.53049642464E+02 -0.76757285671E+03  0.84652403355E+03  0.17095108489E+03 0.  0.
        -24    2    5    5    0    0  0.68054579624E+02 -0.40988469723E+02 -0.19492292028E+03  0.22516731285E+03  0.79961825055E+02 0.  0.
          5    1    3    3  502    0 -0.19873508759E+03  0.79234329935E+02 -0.93287145303E+03  0.95710237277E+03  0.47000000000E+01 0. -1.
        -11    1    4    4    0    0 -0.18055798387E+02  0.23723443820E+02 -0.12227032270E+03  0.12585247497E+03  0.00000000000E+00 0.  1.
         12    1    4    4    0    0 -0.92072046465E+02 -0.49908131291E+02 -0.73639341873E+03  0.74380330092E+03  0.00000000000E+00 0. -1.
         -5    1    5    5    0  501  0.24080835281E+03 -0.12061172741E+02 -0.57264993643E+03  0.62135672071E+03  0.47000000000E+01 0.  1.
         11    1    6    6    0    0  0.41301527691E+02 -0.57002650513E+02 -0.17377832074E+03  0.18749406154E+03  0.00000000000E+00 0. -1.
        -12    1    6    6    0    0  0.26753051933E+02  0.16014180790E+02 -0.21144599543E+02  0.37673251306E+02  0.00000000000E+00 0.  1.
</event>
<event>
12    1  0.2689284E-002  0.1930151E+03  0.7818608E-02  0.1155770E+00
         -2   -1    0    0    0  501 -0.00000000000E+00  0.00000000000E+00  0.12593624056E+03  0.12593624056E+03  0.00000000000E+00 0.  1.
          2   -1    0    0  502    0  0.00000000000E+00 -0.00000000000E+00 -0.43260010936E+03  0.43260010936E+03  0.00000000000E+00 0. -1.
          6    2    1    2  502    0 -0.43462019194E+02  0.73340225917E+02 -0.30961765298E+03  0.36414272140E+03  0.17166564788E+03 0.  0.
         24    2    3    3    0    0  0.54701192336E+01  0.11685069647E+02 -0.56643525539E+02  0.99164021083E+02  0.80365110806E+02 0.  0.
         -6    2    1    2    0  501  0.43462019194E+02 -0.73340225917E+02  0.29537841872E+01  0.19439362852E+03  0.17467805277E+03 0.  0.
        -24    2    5    5    0    0 -0.28614123871E+02 -0.14549030300E+02 -0.36476230870E+02  0.93259108358E+02  0.79600901413E+02 0.  0.
          5    1    3    3  502    0 -0.48932138428E+02  0.61655156270E+02 -0.25297412744E+03  0.26497870032E+03  0.47000000000E+01 0. -1.
        -11    1    4    4    0    0  0.34381719529E+02  0.22998206025E+02 -0.90552688194E+01  0.42344043400E+02  0.00000000000E+00 0.  1.
         12    1    4    4    0    0 -0.28911600295E+02 -0.11313136378E+02 -0.47588256719E+02  0.56819977683E+02  0.00000000000E+00 0. -1.
         -5    1    5    5    0  501  0.72076143065E+02 -0.58791195617E+02  0.39430015058E+02  0.10113452016E+03  0.47000000000E+01 0.  1.
         13    1    6    6    0    0 -0.74427931092E+00  0.30968675264E+02 -0.21884707806E+02  0.37928264330E+02  0.00000000000E+00 0. -1.
        -14    1    6    6    0    0 -0.27869844560E+02 -0.45517705564E+02 -0.14591523065E+02  0.55330844029E+02  0.00000000000E+00 0.  1.
</event>
<event>
12    1  0.2689284E-002  0.1776565E+03  0.7818608E-02  0.1170091E+00
          2   -1    0    0  502    0  0.00000000000E+00  0.00000000000E+00  0.11692306712E+03  0.11692306712E+03  0.00000000000E+00 0.  1.
         -2   -1    0    0    0  501 -0.00000000000E+00 -0.00000000000E+00 -0.28878780853E+03  0.28878780853E+03  0.00000000000E+00 0. -1.
          6    2    1    2  502    0 -0.42836448095E+02 -0.11450053914E+01 -0.33983875269E+02  0.18061467346E+03  0.17213507536E+03 0.  0.
         24    2    3    3    0    0 -0.75207332145E+02 -0.46722421559E+02 -0.20685768732E+02  0.12295962480E+03  0.82777054900E+02 0.  0.
         -6    2    1    2    0  501  0.42836448095E+02  0.11450053914E+01 -0.13788086614E+03  0.22509620218E+03  0.17268727419E+03 0.  0.
        -24    2    5    5    0    0 -0.18649328284E+02 -0.15312522289E+02 -0.13744937862E+03  0.16127122983E+03  0.80831968321E+02 0.  0.
          5    1    3    3  502    0  0.32370884050E+02  0.45577416167E+02 -0.13298106537E+02  0.57655048661E+02  0.47000000000E+01 0. -1.
        -11    1    4    4    0    0 -0.14491940273E+02 -0.56436742696E+02 -0.19555259439E+02  0.61461617541E+02  0.00000000000E+00 0.  1.
         12    1    4    4    0    0 -0.60715391872E+02  0.97143211379E+01 -0.11305092924E+01  0.61498007257E+02  0.00000000000E+00 0. -1.
         -5    1    5    5    0  501  0.61485776379E+02  0.16457527680E+02 -0.43148751814E+00  0.63824972352E+02  0.47000000000E+01 0.  1.
         11    1    6    6    0    0 -0.12092468977E+02  0.27447821673E+02 -0.98828894582E+02  0.10328001319E+03  0.00000000000E+00 0. -1.
        -12    1    6    6    0    0 -0.65568593074E+01 -0.42760343961E+02 -0.38620484042E+02  0.57991216639E+02  0.00000000000E+00 0.  1.
</event>
<event>
12    1  0.2689284E-002  0.2373539E+03  0.7818608E-02  0.1121568E+00
          1   -1    0    0  502    0  0.00000000000E+00  0.00000000000E+00  0.19464772282E+04  0.19464772282E+04  0.00000000000E+00 0.  1.
         -1   -1    0    0    0  501 -0.00000000000E+00 -0.00000000000E+00 -0.31399204611E+02  0.31399204611E+02  0.00000000000E+00 0. -1.
          6    2    1    2  502    0  0.84412411275E+02 -0.14109675358E+03  0.12354214887E+04  0.12580812024E+04  0.17166335670E+03 0.  0.
         24    2    3    3    0    0  0.14853152107E+02 -0.39854365420E+01  0.36741357356E+03  0.37654967458E+03  0.80996441620E+02 0.  0.
         -6    2    1    2    0  501 -0.84412411275E+02  0.14109675358E+03  0.67965653484E+03  0.71979523036E+03  0.17069979280E+03 0.  0.
        -24    2    5    5    0    0  0.79474279779E+01  0.92785770558E+02  0.46908574249E+03  0.48479216746E+03  0.79433311578E+02 0.  0.
          5    1    3    3  502    0  0.69559259167E+02 -0.13711131703E+03  0.86800791516E+03  0.88153152784E+03  0.47000000000E+01 0. -1.
        -13    1    4    4    0    0  0.32787352787E+02 -0.20941713406E+02  0.32619440445E+03  0.32850624858E+03  0.00000000000E+00 0.  1.
         14    1    4    4    0    0 -0.17934200680E+02  0.16956276864E+02  0.41219169113E+02  0.48043425996E+02  0.00000000000E+00 0. -1.
         -5    1    5    5    0  501 -0.92359839252E+02  0.48310983018E+02  0.21057079235E+03  0.23500306291E+03  0.47000000000E+01 0.  1.
         11    1    6    6    0    0 -0.19025555567E+02  0.10730135387E+02  0.28975974071E+02  0.36286562849E+02  0.00000000000E+00 0. -1.
        -12    1    6    6    0    0  0.26972983544E+02  0.82055635172E+02  0.44010976842E+03  0.44850560461E+03  0.00000000000E+00 0.  1.
</event>
<event>
12    1  0.2689284E-002  0.1894494E+03  0.7818608E-02  0.1158959E+00
         -1   -1    0    0    0  501 -0.00000000000E+00  0.00000000000E+00  0.57920189466E+03  0.57920189466E+03  0.00000000000E+00 0. -1.
          1   -1    0    0  502    0  0.00000000000E+00 -0.00000000000E+00 -0.86926260425E+02  0.86926260425E+02  0.00000000000E+00 0.  1.
          6    2    1    2  502    0 -0.45610531954E+02 -0.61652678767E+02  0.67058114139E+02  0.20034778591E+03  0.17251397400E+03 0.  0.
         24    2    3    3    0    0  0.31990679300E+02 -0.73713832009E+02  0.36894904754E+02  0.11609027227E+03  0.75223564970E+02 0.  0.
         -6    2    1    2    0  501  0.45610531954E+02  0.61652678767E+02  0.42521752010E+03  0.46578036917E+03  0.17395413040E+03 0.  0.
        -24    2    5    5    0    0  0.79059550888E+02  0.74260269447E+02  0.40023738604E+03  0.42191825217E+03  0.77846298071E+02 0.  0.
          5    1    3    3  502    0 -0.77601211254E+02  0.12061153243E+02  0.30163209384E+02  0.84257513647E+02  0.47000000000E+01 0. -1.
        -11    1    4    4    0    0 -0.16074008850E+01 -0.33760310365E+02 -0.19680126261E+02  0.39110735907E+02  0.00000000000E+00 0.  1.
         12    1    4    4    0    0  0.33598080185E+02 -0.39953521645E+02  0.56575031016E+02  0.76979536361E+02  0.00000000000E+00 0. -1.
         -5    1    5    5    0  501 -0.33449018935E+02 -0.12607590680E+02  0.24980134057E+02  0.43862117002E+02  0.47000000000E+01 0.  1.
         11    1    6    6    0    0 -0.10733255701E+02  0.78076171167E+01  0.11875587380E+02  0.17809863521E+02  0.00000000000E+00 0. -1.
        -12    1    6    6    0    0  0.89792806590E+02  0.66452652330E+02  0.38836179866E+03  0.40410838865E+03  0.00000000000E+00 0.  1.
</event>
<event>
12    1  0.2689284E-002  0.2467649E+03  0.7818608E-02  0.1115367E+00
         -1   -1    0    0    0  501 -0.00000000000E+00  0.00000000000E+00  0.58803946955E+02  0.58803946955E+02  0.00000000000E+00 0. -1.
          1   -1    0    0  502    0  0.00000000000E+00 -0.00000000000E+00 -0.10357362179E+04  0.10357362179E+04  0.00000000000E+00 0.  1.
          6    2    1    2  502    0  0.17040453569E+03  0.27329657992E+02 -0.49884334981E+03  0.55774816396E+03  0.18014913476E+03 0.  0.
         24    2    3    3    0    0  0.11818177259E+03  0.65831360023E+02 -0.44610826847E+03  0.47400643691E+03  0.85841806242E+02 0.  0.
         -6    2    1    2    0  501 -0.17040453569E+03 -0.27329657992E+02 -0.47808892111E+03  0.53679200087E+03  0.17260364924E+03 0.  0.
        -24    2    5    5    0    0 -0.10045986780E+03  0.39608337078E+01 -0.12282600080E+03  0.17332923251E+03  0.69634209487E+02 0.  0.
          5    1    3    3  502    0  0.52222763092E+02 -0.38501702031E+02 -0.52735081345E+02  0.83741727046E+02  0.47000000000E+01 0. -1.
        -11    1    4    4    0    0  0.24095809785E+02  0.38557476261E+02 -0.25742635446E+03  0.26141081652E+03  0.00000000000E+00 0.  1.
         12    1    4    4    0    0  0.94085962809E+02  0.27273883762E+02 -0.18868191401E+03  0.21259562039E+03  0.00000000000E+00 0. -1.
         -5    1    5    5    0  501 -0.69944667889E+02 -0.31290491700E+02 -0.35526292031E+03  0.36346276836E+03  0.47000000000E+01 0.  1.
         11    1    6    6    0    0 -0.10925768466E+03  0.11651153212E+02 -0.11608250691E+03  0.15983785358E+03  0.00000000000E+00 0. -1.
        -12    1    6    6    0    0  0.87978168624E+01 -0.76903195041E+01 -0.67434938890E+01  0.13491378931E+02  0.00000000000E+00 0.  1.
</event>
<event>
12    1  0.2689284E-002  0.2004137E+03  0.7818608E-02  0.1149390E+00
          2   -1    0    0  502    0  0.00000000000E+00  0.00000000000E+00  0.10204206030E+04  0.10204206030E+04  0.00000000000E+00 0. -1.
         -2   -1    0    0    0  501 -0.00000000000E+00 -0.00000000000E+00 -0.39980304707E+02  0.39980304707E+02  0.00000000000E+00 0.  1.
          6    2    1    2  502    0 -0.97246295623E+02  0.29816385278E+02  0.55673904189E+03  0.59179444915E+03  0.17296372577E+03 0.  0.
         24    2    3    3    0    0 -0.10615131125E+03  0.40272999628E+02  0.26298426612E+03  0.29768120842E+03  0.81014580387E+02 0.  0.
         -6    2    1    2    0  501  0.97246295623E+02 -0.29816385278E+02  0.42370125641E+03  0.46860645857E+03  0.17240475482E+03 0.  0.
        -24    2    5    5    0    0  0.12969504798E+02 -0.16550044042E+02  0.33695848875E+03  0.34684862094E+03  0.79503652101E+02 0.  0.
          5    1    3    3  502    0  0.89050156290E+01 -0.10456614350E+02  0.29375477577E+03  0.29411324073E+03  0.47000000000E+01 0. -1.
        -11    1    4    4    0    0 -0.11398370171E+03  0.21751172697E+02  0.19632488341E+03  0.22805450580E+03  0.00000000000E+00 0.  1.
         12    1    4    4    0    0  0.78323904608E+01  0.18521826931E+02  0.66659382718E+02  0.69626702618E+02  0.00000000000E+00 0. -1.
         -5    1    5    5    0  501  0.84276790825E+02 -0.13266341236E+02  0.86742767656E+02  0.12175783762E+03  0.47000000000E+01 0.  1.
         11    1    6    6    0    0  0.38584871577E+02 -0.33766283791E+02  0.20194152975E+03  0.20834907169E+03  0.00000000000E+00 0. -1.
        -12    1    6    6    0    0 -0.25615366779E+02  0.17216239749E+02  0.13501695900E+03  0.13849954925E+03  0.00000000000E+00 0.  1.
</event>
<event>
12    1  0.2689284E-002  0.2166817E+03  0.7818608E-02  0.1136381E+00
         -2   -1    0    0    0  501 -0.00000000000E+00  0.00000000000E+00  0.29876051947E+02  0.29876051947E+02  0.00000000000E+00 0. -1.
          2   -1    0    0  502    0  0.00000000000E+00 -0.00000000000E+00 -0.23287918657E+04  0.23287918657E+04  0.00000000000E+00 0.  1.
          6    2    1    2  502    0 -0.11654038292E+03 -0.65506862334E+02 -0.18193868060E+04  0.18321598393E+04  0.16961284507E+03 0.  0.
         24    2    3    3    0    0 -0.35368269992E+02 -0.95056677820E+02 -0.11269300309E+04  0.11343199014E+04  0.80147724948E+02 0.  0.
         -6    2    1    2    0  501  0.11654038292E+03  0.65506862334E+02 -0.47952900782E+03  0.52650807837E+03  0.17143476129E+03 0.  0.
        -24    2    5    5    0    0  0.57899206733E+02 -0.31254349286E+02 -0.19669373730E+03  0.22184531420E+03  0.78725882969E+02 0.  0.
          5    1    3    3  502    0 -0.81172112932E+02  0.29549815486E+02 -0.69245677511E+03  0.69783993789E+03  0.47000000000E+01 0. -1.
        -13    1    4    4    0    0 -0.33793866996E+02 -0.69027037915E+02 -0.42418836545E+03  0.43109456827E+03  0.00000000000E+00 0.  1.
         14    1    4    4    0    0 -0.15744029961E+01 -0.26029639905E+02 -0.70274166541E+03  0.70322533316E+03  0.00000000000E+00 0. -1.
         -5    1    5    5    0  501  0.58641176192E+02  0.96761211620E+02 -0.28283527052E+03  0.30466276417E+03  0.47000000000E+01 0.  1.
         13    1    6    6    0    0 -0.91192400727E+00 -0.21823639425E+02 -0.13244827852E+03  0.13423728739E+03  0.00000000000E+00 0. -1.
        -14    1    6    6    0    0  0.58811130740E+02 -0.94307098610E+01 -0.64245458783E+02  0.87608026810E+02  0.00000000000E+00 0.  1.
</event>
<event>
12    1  0.2689284E-002  0.2434429E+03  0.7818608E-02  0.1117520E+00
         -2   -1    0    0    0  501 -0.00000000000E+00  0.00000000000E+00  0.11017447745E+03  0.11017447745E+03  0.00000000000E+00 0.  1.
          2   -1    0    0  502    0  0.00000000000E+00 -0.00000000000E+00 -0.90514747213E+03  0.90514747213E+03  0.00000000000E+00 0. -1.
          6    2    1    2  502    0 -0.98963370191E+02 -0.14157196555E+03 -0.73899919280E+02  0.25418775578E+03  0.17121287056E+03 0.  0.
         24    2    3    3    0    0 -0.93382387513E+02 -0.71749259599E+02 -0.10539701885E+03  0.17724287345E+03  0.80238881197E+02 0.  0.
         -6    2    1    2    0  501  0.98963370191E+02  0.14157196555E+03 -0.72107307540E+03  0.76113419381E+03  0.17187934970E+03 0.  0.
        -24    2    5    5    0    0  0.50948093039E+02  0.12228368263E+03 -0.30340611098E+03  0.34024788153E+03  0.78513345897E+02 0.  0.
          5    1    3    3  502    0 -0.55809826773E+01 -0.69822705955E+02  0.31497099571E+02  0.76944882324E+02  0.47000000000E+01 0. -1.
        -11    1    4    4    0    0 -0.78285297822E+02 -0.88290505693E+02 -0.76272891417E+02  0.14050393310E+03  0.00000000000E+00 0.  1.
         12    1    4    4    0    0 -0.15097089691E+02  0.16541246094E+02 -0.29124127435E+02  0.36738940354E+02  0.00000000000E+00 0. -1.
         -5    1    5    5    0  501  0.48015277152E+02  0.19288282923E+02 -0.41766696442E+03  0.42088631228E+03  0.47000000000E+01 0.  1.
         11    1    6    6    0    0  0.23910894430E+02  0.11858033362E+03 -0.27705683695E+03  0.30231360752E+03  0.00000000000E+00 0. -1.
        -12    1    6    6    0    0  0.27037198609E+02  0.37033490105E+01 -0.26349274036E+02  0.37934274011E+02  0.00000000000E+00 0.  1.
</event>
<event>
12    1  0.2689284E-002  0.2519517E+03  0.7818608E-02  0.1112078E+00
          2   -1    0    0  502    0  0.00000000000E+00  0.00000000000E+00  0.13626526551E+04  0.13626526551E+04  0.00000000000E+00 0.  1.
         -2   -1    0    0    0  501 -0.00000000000E+00 -0.00000000000E+00 -0.60494596934E+02  0.60494596934E+02  0.00000000000E+00 0. -1.
          6    2    1    2  502    0 -0.18667651731E+02  0.18343123069E+03  0.30948683033E+03  0.39895274084E+03  0.17142255878E+03 0.  0.
         24    2    3    3    0    0 -0.73722929912E+02  0.12729207283E+03  0.14771852094E+03  0.21902563164E+03  0.67179786297E+02 0.  0.
         -6    2    1    2    0  501  0.18667651731E+02 -0.18343123069E+03  0.99267122786E+03  0.10241945112E+04  0.17199631560E+03 0.  0.
        -24    2    5    5    0    0  0.74784647179E+02 -0.86053119322E+02  0.49834619020E+03  0.51723204061E+03  0.78626813157E+02 0.  0.
          5    1    3    3  502    0  0.55055278181E+02  0.56139157861E+02  0.16176830939E+03  0.17992710920E+03  0.47000000000E+01 0. -1.
        -13    1    4    4    0    0 -0.22112040885E+02  0.88201194078E+02  0.11463064521E+03  0.14631670380E+03  0.00000000000E+00 0.  1.
         14    1    4    4    0    0 -0.51610889027E+02  0.39090878751E+02  0.33087875728E+02  0.72708927842E+02  0.00000000000E+00 0. -1.
         -5    1    5    5    0  501 -0.56116995448E+02 -0.97378111368E+02  0.49432503765E+03  0.50696247061E+03  0.47000000000E+01 0.  1.
         11    1    6    6    0    0 -0.83161787542E+01 -0.12623892004E+02  0.14883578045E+02  0.21214202173E+02  0.00000000000E+00 0. -1.
        -12    1    6    6    0    0  0.83100825933E+02 -0.73429227318E+02  0.48346261216E+03  0.49601783844E+03  0.00000000000E+00 0.  1.
</event>
<event>
12    1  0.2689284E-002  0.1890907E+03  0.7818608E-02  0.1159284E+00
          2   -1    0    0  502    0  0.00000000000E+00  0.00000000000E+00  0.90172837089E+03  0.90172837089E+03  0.00000000000E+00 0. -1.
         -2   -1    0    0    0  501 -0.00000000000E+00 -0.00000000000E+00 -0.52325257840E+02  0.52325257840E+02  0.00000000000E+00 0.  1.
          6    2    1    2  502    0  0.35056588653E+01  0.87327446326E+02  0.20235298804E+03  0.28181653906E+03  0.17560027731E+03 0.  0.
         24    2    3    3    0    0  0.18408284755E+02  0.96078802143E+02  0.22197782461E+03  0.25524778490E+03  0.79418360030E+02 0.  0.
         -6    2    1    2    0  501 -0.35056588653E+01 -0.87327446326E+02  0.64705012501E+03  0.67223708967E+03  0.15997020949E+03 0.  0.
        -24    2    5    5    0    0  0.31725294185E+02 -0.78201916253E+02  0.60474724832E+03  0.61623602960E+03  0.83099794449E+02 0.  0.
          5    1    3    3  502    0 -0.14902625889E+02 -0.87513558163E+01 -0.19624836571E+02  0.26568754157E+02  0.47000000000E+01 0. -1.
        -11    1    4    4    0    0 -0.24435140495E+02  0.50743079783E+02  0.63180847559E+02  0.84638972909E+02  0.00000000000E+00 0.  1.
         12    1    4    4    0    0  0.42843425250E+02  0.45335722360E+02  0.15879697705E+03  0.17060881199E+03  0.00000000000E+00 0. -1.
         -5    1    5    5    0  501 -0.35230953050E+02 -0.91255300735E+01  0.42302876690E+02  0.56001060063E+02  0.47000000000E+01 0.  1.
         11    1    6    6    0    0 -0.22857272262E+02 -0.47071563798E+02  0.20461972692E+03  0.21120468664E+03  0.00000000000E+00 0. -1.
        -12    1    6    6    0    0  0.54582566446E+02 -0.31130352455E+02  0.40012752140E+03  0.40503134296E+03  0.00000000000E+00 0.  1.
</event>
<event>
12    1  0.2689284E-002  0.1952509E+03  0.7818608E-02  0.1153809E+00
         -1   -1    0    0    0  501 -0.00000000000E+00  0.00000000000E+00  0.11305094887E+03  0.11305094887E+03  0.00000000000E+00 0. -1.
          1   -1    0    0  502    0  0.00000000000E+00 -0.00000000000E+00 -0.33806057382E+03  0.33806057382E+03  0.00000000000E+00 0.  1.
          6    2    1    2  502    0  0.24519875908E+02 -0.91070739703E+02 -0.10154956673E+03  0.22052188896E+03  0.17152983724E+03 0.  0.
         24    2    3    3    0    0  0.32055807640E+01  0.96891965504E+01 -0.17864089508E+02  0.87735545425E+02  0.85289178442E+02 0.  0.
         -6    2    1    2    0  501 -0.24519875908E+02  0.91070739703E+02 -0.12346005823E+03  0.23058963374E+03  0.17039392379E+03 0.  0.
        -24    2    5    5    0    0 -0.63139802506E+02  0.10321444680E+03 -0.12177278631E+03  0.18979863915E+03  0.80963295691E+02 0.  0.
          5    1    3    3  502    0  0.21314295144E+02 -0.10075993625E+03 -0.83685477219E+02  0.13278634353E+03  0.47000000000E+01 0. -1.
        -11    1    4    4    0    0 -0.32476047810E+02  0.13965778702E+02 -0.33353665290E+02  0.48602506564E+02  0.00000000000E+00 0.  1.
         12    1    4    4    0    0  0.35681628574E+02 -0.42765821511E+01  0.15489575782E+02  0.39133038861E+02  0.00000000000E+00 0. -1.
         -5    1    5    5    0  501  0.38619926598E+02 -0.12143707097E+02 -0.16872719123E+01  0.40790994582E+02  0.47000000000E+01 0.  1.
         13    1    6    6    0    0 -0.35372372637E+02  0.31817357903E+01 -0.92483799882E+01  0.36699601102E+02  0.00000000000E+00 0. -1.
        -14    1    6    6    0    0 -0.27767429869E+02  0.10003271101E+03 -0.11252440633E+03  0.15309903805E+03  0.00000000000E+00 0.  1.
</event>
<event>
12    1  0.2689284E-002  0.2099056E+03  0.7818608E-02  0.1141641E+00
          1   -1    0    0  502    0  0.00000000000E+00  0.00000000000E+00  0.10509560383E+04  0.10509560383E+04  0.00000000000E+00 0.  1.
         -1   -1    0    0    0  501 -0.00000000000E+00 -0.00000000000E+00 -0.42313970064E+02  0.42313970064E+02  0.00000000000E+00 0. -1.
          6    2    1    2  502    0  0.35558073765E+01 -0.11988323945E+03  0.45115915912E+03  0.49747593134E+03  0.17191009436E+03 0.  0.
         24    2    3    3    0    0 -0.58382126886E+02 -0.95726990447E+02  0.35065524590E+03  0.37688174144E+03  0.80675994647E+02 0.  0.
         -6    2    1    2    0  501 -0.35558073765E+01  0.11988323945E+03  0.55748290915E+03  0.59579407706E+03  0.17262315428E+03 0.  0.
        -24    2    5    5    0    0 -0.36226972446E+02  0.28269089654E+02  0.40166479755E+03  0.41204987614E+03  0.79617560062E+02 0.  0.
          5    1    3    3  502    0  0.61937934262E+02 -0.24156249000E+02  0.10050391322E+03  0.12059418991E+03  0.47000000000E+01 0. -1.
        -13    1    4    4    0    0 -0.11265043039E+02 -0.32652695173E+02  0.23152077640E+03  0.23408325357E+03  0.00000000000E+00 0.  1.
         14    1    4    4    0    0 -0.47117083847E+02 -0.63074295274E+02  0.11913446950E+03  0.14279848787E+03  0.00000000000E+00 0. -1.
         -5    1    5    5    0  501  0.32671165069E+02  0.91614149793E+02  0.15581811160E+03  0.18374420092E+03  0.47000000000E+01 0.  1.
         13    1    6    6    0    0 -0.33847138800E+02  0.52494849332E+02  0.21775336969E+03  0.22653447424E+03  0.00000000000E+00 0. -1.
        -14    1    6    6    0    0 -0.23798336456E+01 -0.24225759678E+02  0.18391142787E+03  0.18551540189E+03  0.00000000000E+00 0.  1.
</event>
<event>
12    1  0.2689284E-002  0.2799782E+03  0.7818608E-02  0.1095701E+00
          1   -1    0    0  502    0  0.00000000000E+00  0.00000000000E+00  0.21473947714E+03  0.21473947714E+03  0.00000000000E+00 0.  1.
         -1   -1    0    0    0  501 -0.00000000000E+00 -0.00000000000E+00 -0.39507080298E+03  0.39507080298E+03  0.00000000000E+00 0. -1.
          6    2    1    2  502    0 -0.20448345033E+03  0.81499746877E+02 -0.17432809113E+03  0.33008426426E+03  0.17352131845E+03 0.  0.
         24    2    3    3    0    0 -0.12025015362E+03  0.61311010461E+02 -0.26490965271E+02  0.15867615729E+03  0.79102542331E+02 0.  0.
         -6    2    1    2    0  501  0.20448345033E+03 -0.81499746877E+02 -0.60032347120E+01  0.27972601587E+03  0.17249613018E+03 0.  0.
        -24    2    5    5    0    0  0.10371533912E+03 -0.48859113222E+02 -0.70363363303E+02  0.15569400647E+03  0.78393470664E+02 0.  0.
          5    1    3    3  502    0 -0.84233296714E+02  0.20188736416E+02 -0.14783712586E+03  0.17140810697E+03  0.47000000000E+01 0. -1.
        -11    1    4    4    0    0 -0.33865156899E+02  0.59595362078E+02 -0.22643398303E+02  0.72188499913E+02  0.00000000000E+00 0.  1.
         12    1    4    4    0    0 -0.86384996716E+02  0.17156483831E+01 -0.38475669678E+01  0.86487657377E+02  0.00000000000E+00 0. -1.
         -5    1    5    5    0  501  0.10076811121E+03 -0.32640633655E+02  0.64360128591E+02  0.12403200940E+03  0.47000000000E+01 0.  1.
         11    1    6    6    0    0  0.57019871317E+02  0.50220124508E+01 -0.61218213315E+02  0.83810237892E+02  0.00000000000E+00 0. -1.
        -12    1    6    6    0    0  0.46695467799E+02 -0.53881125672E+02 -0.91451499878E+01  0.71883768578E+02  0.00000000000E+00 0.  1.
</event>
<event>
12    1  0.2689284E-002  0.1915303E+03  0.7818608E-02  0.1157088E+00
          1   -1    0    0  502    0  0.00000000000E+00  0.00000000000E+00  0.21740719841E+03  0.21740719841E+03  0.00000000000E+00 0. -1.
         -1   -1    0    0    0  501 -0.00000000000E+00 -0.00000000000E+00 -0.17200984492E+03  0.17200984492E+03  0.00000000000E+00 0.  1.
          6    2    1    2  502    0 -0.78750345411E+02  0.35809077883E+02  0.49608007589E+02  0.19817779015E+03  0.17125879577E+03 0.  0.
         24    2    3    3    0    0 -0.31851153193E+02  0.64704083056E+02  0.78009369616E+02  0.13602328171E+03  0.84945612567E+02 0.  0.
         -6    2    1    2    0  501  0.78750345411E+02 -0.35809077883E+02 -0.42106540978E+01  0.19123925318E+03  0.17050165802E+03 0.  0.
        -24    2    5    5    0    0  0.80153496706E+02 -0.77757783673E+02 -0.30542152497E+02  0.14146877439E+03  0.81300277317E+02 0.  0.
          5    1    3    3  502    0 -0.46899192218E+02 -0.28895005173E+02 -0.28401362027E+02  0.62154508442E+02  0.47000000000E+01 0. -1.
        -11    1    4    4    0    0 -0.46548862627E+02  0.45614785060E+02  0.12682345550E+02  0.66395384754E+02  0.00000000000E+00 0.  1.
         12    1    4    4    0    0  0.14697709434E+02  0.19089297996E+02  0.65327024066E+02  0.69627896952E+02  0.00000000000E+00 0. -1.
         -5    1    5    5    0  501 -0.14031512954E+01  0.41948705791E+02  0.26331498399E+02  0.49770478790E+02  0.47000000000E+01 0.  1.
         11    1    6    6    0    0 -0.64092516904E+01 -0.18143046846E+02 -0.30855364524E+02  0.36363473101E+02  0.00000000000E+00 0. -1.
        -12    1    6    6    0    0  0.86562748396E+02 -0.59614736827E+02  0.31321202709E+00  0.10510530129E+03  0.00000000000E+00 0.  1.
</event>
<event>
12    1  0.2689284E-002  0.1750098E+03  0.7818608E-02  0.1172722E+00
         -1   -1    0    0    0  501 -0.00000000000E+00  0.00000000000E+00  0.40693356707E+02  0.40693356707E+02  0.00000000000E+00 0.  1.
          1   -1    0    0  502    0  0.00000000000E+00 -0.00000000000E+00 -0.12332635507E+04  0.12332635507E+04  0.00000000000E+00 0. -1.
          6    2    1    2  502    0 -0.26640694058E+02  0.30949759337E+01 -0.99360237619E+03  0.10088707520E+04  0.17278659349E+03 0.  0.
         24    2    3    3    0    0 -0.59078691832E+02  0.23336854258E+02 -0.36779767912E+03  0.38188146488E+03  0.80767690665E+02 0.  0.
         -6    2    1    2    0  501  0.26640694058E+02 -0.30949759337E+01 -0.19896781778E+03  0.26508615534E+03  0.17309873422E+03 0.  0.
        -24    2    5    5    0    0 -0.47988498872E+02  0.11302922988E+02 -0.75182627935E+02  0.11975316131E+03  0.79105878470E+02 0.  0.
          5    1    3    3  502    0  0.32437997775E+02 -0.20241878325E+02 -0.62580469707E+03  0.62698928716E+03  0.47000000000E+01 0. -1.
        -11    1    4    4    0    0 -0.48951060605E+02  0.51315640721E+02 -0.22106128269E+03  0.23215854932E+03  0.00000000000E+00 0.  1.
         12    1    4    4    0    0 -0.10127631227E+02 -0.27978786463E+02 -0.14673639643E+03  0.14972291556E+03  0.00000000000E+00 0. -1.
         -5    1    5    5    0  501  0.74629192930E+02 -0.14397898922E+02 -0.12378518984E+03  0.14533299403E+03  0.47000000000E+01 0.  1.
         11    1    6    6    0    0  0.55950217751E+01 -0.26104865862E+02 -0.30783854390E+02  0.40748177645E+02  0.00000000000E+00 0. -1.
        -12    1    6    6    0    0 -0.53583520647E+02  0.37407788850E+02 -0.44398773546E+02  0.79004983665E+02  0.00000000000E+00 0.  1.
</event>
<event>
12    1  0.2689284E-002  0.2135659E+03  0.7818608E-02  0.1138773E+00
         -2   -1    0    0    0  501 -0.00000000000E+00  0.00000000000E+00  0.28323960392E+02  0.28323960392E+02  0.00000000000E+00 0.  1.
          2   -1    0    0  502    0  0.00000000000E+00 -0.00000000000E+00 -0.22147760819E+04  0.22147760819E+04  0.00000000000E+00 0. -1.
          6    2    1    2  502    0  0.56312604556E+02  0.11574340719E+03 -0.51248579792E+03  0.55573891266E+03  0.17215225889E+03 0.  0.
         24    2    3    3    0    0 -0.20010876672E+02  0.10026820593E+03 -0.38301110248E+03  0.40457495400E+03  0.80803715714E+02 0.  0.
         -6    2    1    2    0  501 -0.56312604556E+02 -0.11574340719E+03 -0.16739663236E+04  0.16873611297E+04  0.16869108905E+03 0.  0.
        -24    2    5    5    0    0 -0.66796026599E+02 -0.14563417840E+03 -0.14072756053E+04  0.14187547456E+04  0.82276215772E+02 0.  0.
          5    1    3    3  502    0  0.76323481228E+02  0.15475201260E+02 -0.12947469544E+03  0.15116395867E+03  0.47000000000E+01 0. -1.
        -13    1    4    4    0    0 -0.24365301040E+02 -0.89877688496E+00 -0.39217591878E+02  0.46178947664E+02  0.00000000000E+00 0.  1.
         14    1    4    4    0    0  0.43544243676E+01  0.10116698282E+03 -0.34379351060E+03  0.35839600633E+03  0.00000000000E+00 0. -1.
         -5    1    5    5    0  501  0.10483422043E+02  0.29890771209E+02 -0.26669071831E+03  0.26860638409E+03  0.47000000000E+01 0.  1.
         11    1    6    6    0    0 -0.10025124923E+02 -0.10331081143E+03 -0.99966073782E+03  0.10050349335E+04  0.00000000000E+00 0. -1.
        -12    1    6    6    0    0 -0.56770901676E+02 -0.42323366968E+02 -0.40761486749E+03  0.41371981203E+03  0.00000000000E+00 0.  1.
</event>
<event>
12    1  0.2689284E-002  0.2280224E+03  0.7818608E-02  0.1128039E+00
          2   -1    0    0  502    0  0.00000000000E+00  0.00000000000E+00  0.13877044388E+03  0.13877044388E+03  0.00000000000E+00 0.  1.
         -2   -1    0    0    0  501 -0.00000000000E+00 -0.00000000000E+00 -0.50132070828E+03  0.50132070828E+03  0.00000000000E+00 0. -1.
          6    2    1    2  502    0 -0.18742290427E+02 -0.14910915577E+03 -0.34195572167E+03  0.41084294338E+03  0.17109469530E+03 0.  0.
         24    2    3    3    0    0 -0.35279604923E+02 -0.27550676256E+02 -0.21152618685E+03  0.23172315032E+03  0.83358265249E+02 0.  0.
         -6    2    1    2    0  501  0.18742290427E+02  0.14910915577E+03 -0.20594542732E+02  0.22924820878E+03  0.17188889509E+03 0.  0.
        -24    2    5    5    0    0  0.32868489527E+02  0.13527275076E+03 -0.70619683933E+02  0.17525190931E+03  0.79668295175E+02 0.  0.
          5    1    3    3  502    0  0.16537314497E+02 -0.12155847951E+03 -0.13042953481E+03  0.17911979306E+03  0.47000000000E+01 0. -1.
        -13    1    4    4    0    0  0.49342901629E+01 -0.11050127265E+02  0.32999049876E+01  0.12543600158E+02  0.00000000000E+00 0.  1.
         14    1    4    4    0    0 -0.40213895086E+02 -0.16500548991E+02 -0.21482609184E+03  0.21917955016E+03  0.00000000000E+00 0. -1.
         -5    1    5    5    0  501 -0.14126199101E+02  0.13836405015E+02  0.50025141200E+02  0.53996299474E+02  0.47000000000E+01 0.  1.
         11    1    6    6    0    0  0.14333872447E+01 -0.10010585249E+02 -0.11414492843E+02  0.15249821733E+02  0.00000000000E+00 0. -1.
        -12    1    6    6    0    0  0.31435102283E+02  0.14528333600E+03 -0.59205191090E+02  0.16000208757E+03  0.00000000000E+00 0.  1.
</event>
<event>
12    1  0.2689284E-002  0.2076615E+03  0.7818608E-02  0.1143431E+00
          3   -1    0    0  502    0  0.00000000000E+00  0.00000000000E+00  0.13956367372E+03  0.13956367372E+03  0.00000000000E+00 0. -1.
         -3   -1    0    0    0  501 -0.00000000000E+00 -0.00000000000E+00 -0.40699801758E+03  0.40699801758E+03  0.00000000000E+00 0.  1.
          6    2    1    2  502    0 -0.88962082885E+02 -0.68789835571E+02 -0.26689731569E+03  0.33703815130E+03  0.17237820235E+03 0.  0.
         24    2    3    3    0    0  0.43345796630E+01 -0.27556300321E+02 -0.55458434170E+02  0.10223405788E+03  0.81228236482E+02 0.  0.
         -6    2    1    2    0  501  0.88962082885E+02  0.68789835571E+02 -0.53702817366E+00  0.20952353999E+03  0.17678668429E+03 0.  0.
        -24    2    5    5    0    0  0.13148845048E+03  0.54594227748E+02 -0.10967803727E+02  0.16325369776E+03  0.79131124095E+02 0.  0.
          5    1    3    3  502    0 -0.93296662548E+02 -0.41233535250E+02 -0.21143888152E+03  0.23480409342E+03  0.47000000000E+01 0. -1.
        -13    1    4    4    0    0 -0.30895748548E+02 -0.36592331565E+02 -0.21577431255E+02  0.52527436138E+02  0.00000000000E+00 0.  1.
         14    1    4    4    0    0  0.35230328211E+02  0.90360312440E+01 -0.33881002915E+02  0.49706621742E+02  0.00000000000E+00 0. -1.
         -5    1    5    5    0  501 -0.42526367591E+02  0.14195607824E+02  0.10430775553E+02  0.46269842237E+02  0.47000000000E+01 0.  1.
         11    1    6    6    0    0  0.98718248883E+02  0.43708606669E+01  0.10917183439E+02  0.99416205821E+02  0.00000000000E+00 0. -1.
        -12    1    6    6    0    0  0.32770201593E+02  0.50223367081E+02 -0.21884987166E+02  0.63837491936E+02  0.00000000000E+00 0.  1.
</event>
<event>
12    1  0.2689284E-002  0.1789904E+03  0.7818608E-02  0.1168784E+00
         -2   -1    0    0    0  501 -0.00000000000E+00  0.00000000000E+00  0.71092009564E+02  0.71092009564E+02  0.00000000000E+00 0. -1.
          2   -1    0    0  502    0  0.00000000000E+00 -0.00000000000E+00 -0.57022388375E+03  0.57022388375E+03  0.00000000000E+00 0.  1.
          6    2    1    2  502    0 -0.37048993080E+02 -0.31214364738E+02 -0.10198345195E+03  0.20541590917E+03  0.17160450698E+03 0.  0.
         24    2    3    3    0    0  0.18645444544E+02  0.35448945486E+02 -0.66264730108E+02  0.11137451189E+03  0.80056149698E+02 0.  0.
         -6    2    1    2    0  501  0.37048993080E+02  0.31214364738E+02 -0.39714842223E+03  0.43589998414E+03  0.17301723162E+03 0.  0.
        -24    2    5    5    0    0 -0.46749324228E+01  0.55415275935E+02 -0.36597323093E+03  0.37827574779E+03  0.77868015319E+02 0.  0.
          5    1    3    3  502    0 -0.55694437624E+02 -0.66663310225E+02 -0.35718721845E+02  0.94041397281E+02  0.47000000000E+01 0. -1.
        -13    1    4    4    0    0 -0.19670298576E+02  0.67087386172E+01 -0.59471670024E+02  0.62998471055E+02  0.00000000000E+00 0.  1.
         14    1    4    4    0    0  0.38315743120E+02  0.28740206869E+02 -0.67930600845E+01  0.48376040836E+02  0.00000000000E+00 0. -1.
         -5    1    5    5    0  501  0.41723925503E+02 -0.24200911196E+02 -0.31175191301E+02  0.57624236348E+02  0.47000000000E+01 0.  1.
         13    1    6    6    0    0 -0.23511245131E+02 -0.95501405513E+01 -0.64614302677E+02  0.69418959533E+02  0.00000000000E+00 0. -1.
        -14    1    6    6    0    0  0.18836312708E+02  0.64965416486E+02 -0.30135892825E+03  0.30885678826E+03  0.00000000000E+00 0.  1.
</event>
<event>
12    1  0.2689284E-002  0.1958380E+03  0.7818608E-02  0.1153299E+00
          2   -1    0    0  502    0  0.00000000000E+00  0.00000000000E+00  0.16128738133E+04  0.16128738133E+04  0.00000000000E+00 0. -1.
         -2   -1    0    0    0  501 -0.00000000000E+00 -0.00000000000E+00 -0.26116952342E+02  0.26116952342E+02  0.00000000000E+00 0.  1.
          6    2    1    2  502    0  0.76099871118E+02 -0.44619297668E+02  0.54972675848E+03  0.58370805335E+03  0.17530975570E+03 0.  0.
         24    2    3    3    0    0  0.18568565767E+02 -0.11288261369E+02  0.48101533850E+03  0.48797844293E+03  0.79214824418E+02 0.  0.
         -6    2    1    2    0  501 -0.76099871118E+02  0.44619297668E+02  0.10370301025E+04  0.10552827123E+04  0.17437917683E+03 0.  0.
        -24    2    5    5    0    0 -0.69502947763E+02  0.37730820081E+02  0.10387846914E+04  0.10445059269E+04  0.75264345870E+02 0.  0.
          5    1    3    3  502    0  0.57531305351E+02 -0.33331036299E+02  0.68711419982E+02  0.95729610425E+02  0.47000000000E+01 0. -1.
        -11    1    4    4    0    0  0.77460299098E+01 -0.42484163486E+02  0.17774457064E+03  0.18291538349E+03  0.00000000000E+00 0.  1.
         12    1    4    4    0    0  0.10822535857E+02  0.31195902117E+02  0.30327076786E+03  0.30506305943E+03  0.00000000000E+00 0. -1.
         -5    1    5    5    0  501 -0.65969233544E+01  0.68884775873E+01 -0.17545888989E+01  0.10776785394E+02  0.47000000000E+01 0.  1.
         13    1    6    6    0    0 -0.59838096517E+02  0.59468238149E+02  0.74555066658E+03  0.75030851360E+03  0.00000000000E+00 0. -1.
        -14    1    6    6    0    0 -0.96648512466E+01 -0.21737418068E+02  0.29323402478E+03  0.29419741328E+03  0.00000000000E+00 0.  1.
</event>
<event>
12    1  0.2689284E-002  0.1737708E+03  0.7818608E-02  0.1173972E+00
         -1   -1    0    0    0  501 -0.00000000000E+00  0.00000000000E+00  0.13381556811E+03  0.13381556811E+03  0.00000000000E+00 0.  1.
          1   -1    0    0  502    0  0.00000000000E+00 -0.00000000000E+00 -0.22647802857E+03  0.22647802857E+03  0.00000000000E+00 0. -1.
          6    2    1    2  502    0 -0.32662425343E+02  0.11653632696E+02 -0.57356722240E+02  0.18719210262E+03  0.17478114461E+03 0.  0.
         24    2    3    3    0    0 -0.80278555416E+02 -0.16885041691E+01 -0.67805343649E+02  0.13643215632E+03  0.86998109999E+02 0.  0.
         -6    2    1    2    0  501  0.32662425343E+02 -0.11653632696E+02 -0.35305738214E+02  0.17310149406E+03  0.16587643266E+03 0.  0.
        -24    2    5    5    0    0  0.84699071222E+02 -0.24227729027E+01 -0.17903064487E+02  0.11726275894E+03  0.79058411461E+02 0.  0.
          5    1    3    3  502    0  0.47616130073E+02  0.13342136865E+02  0.10448621409E+02  0.50759946302E+02  0.47000000000E+01 0. -1.
        -11    1    4    4    0    0 -0.13372401301E+02 -0.35582881782E+02 -0.44865723350E+01  0.38276519223E+02  0.00000000000E+00 0.  1.
         12    1    4    4    0    0 -0.66906154115E+02  0.33894377613E+02 -0.63318771314E+02  0.98155637092E+02  0.00000000000E+00 0. -1.
         -5    1    5    5    0  501 -0.52036645879E+02 -0.92308597929E+01 -0.17402673726E+02  0.55838735119E+02  0.47000000000E+01 0.  1.
         11    1    6    6    0    0  0.22352411674E+01  0.27289312566E+02 -0.10398795859E+02  0.29288868853E+02  0.00000000000E+00 0. -1.
        -12    1    6    6    0    0  0.82463830054E+02 -0.29712085468E+02 -0.75042686286E+01  0.87973890091E+02  0.00000000000E+00 0.  1.
</event>
<event>
12    1  0.2689284E-002  0.1930180E+03  0.7818608E-02  0.1155767E+00
         -2   -1    0    0    0  501 -0.00000000000E+00  0.00000000000E+00  0.59841800486E+02  0.59841800486E+02  0.00000000000E+00 0.  1.
          2   -1    0    0  502    0  0.00000000000E+00 -0.00000000000E+00 -0.67703249557E+03  0.67703249557E+03  0.00000000000E+00 0. -1.
          6    2    1    2  502    0 -0.78763749128E+02 -0.41466091538E+02 -0.20438006087E+03  0.28124759143E+03  0.17148129192E+03 0.  0.
         24    2    3    3    0    0  0.25513990849E+02 -0.16980397960E+02 -0.10387190875E+03  0.13428713795E+03  0.79400027377E+02 0.  0.
         -6    2    1    2    0  501  0.78763749128E+02  0.41466091538E+02 -0.41281063421E+03  0.45562670462E+03  0.17105528148E+03 0.  0.
        -24    2    5    5    0    0  0.31090507468E+02 -0.60124893954E+01 -0.35955863782E+03  0.36969173655E+03  0.79917434651E+02 0.  0.
          5    1    3    3  502    0 -0.10427773998E+03 -0.24485693578E+02 -0.10050815212E+03  0.14696045348E+03  0.47000000000E+01 0. -1.
        -11    1    4    4    0    0  0.29199521315E+02 -0.17086153980E+02 -0.36837333069E+01  0.34031141532E+02  0.00000000000E+00 0.  1.
         12    1    4    4    0    0 -0.36855304667E+01  0.10575602027E+00 -0.10018817544E+03  0.10025599642E+03  0.00000000000E+00 0. -1.
         -5    1    5    5    0  501  0.47673241660E+02  0.47478580933E+02 -0.53251996398E+02  0.85934968076E+02  0.47000000000E+01 0.  1.
         11    1    6    6    0    0  0.13825279847E+02 -0.29920318337E+02 -0.58131217974E+02  0.66825162292E+02  0.00000000000E+00 0. -1.
        -12    1    6    6    0    0  0.17265227621E+02  0.23907828941E+02 -0.30142741984E+03  0.30286657426E+03  0.00000000000E+00 0.  1.
</event>
<event>
12    1  0.2689284E-002  0.2405064E+03  0.7818608E-02  0.1119456E+00
         -2   -1    0    0    0  501 -0.00000000000E+00  0.00000000000E+00  0.29285381812E+03  0.29285381812E+03  0.00000000000E+00 0.  1.
          2   -1    0    0  502    0  0.00000000000E+00 -0.00000000000E+00 -0.29009091201E+03  0.29009091201E+03  0.00000000000E+00 0. -1.
          6    2    1    2  502    0 -0.14454204624E+03  0.87766913949E+02 -0.16326553601E+03  0.29156904708E+03  0.17251504181E+03 0.  0.
         24    2    3    3    0    0 -0.49276645721E+02  0.10850085853E+03 -0.10780141808E+03  0.17930261678E+03  0.79546580876E+02 0.  0.
         -6    2    1    2    0  501  0.14454204624E+03 -0.87766913949E+02  0.16602844211E+03  0.29137568306E+03  0.16952554608E+03 0.  0.
        -24    2    5    5    0    0  0.39476165208E+01 -0.31593248438E+02  0.76707697966E+02  0.11552756763E+03  0.80304613394E+02 0.  0.
          5    1    3    3  502    0 -0.95265400515E+02 -0.20733944586E+02 -0.55464117929E+02  0.11226643029E+03  0.47000000000E+01 0. -1.
        -11    1    4    4    0    0 -0.54363031906E+02  0.10432116144E+03 -0.61893347635E+02  0.13292490528E+03  0.00000000000E+00 0.  1.
         12    1    4    4    0    0  0.50863861851E+01  0.41796970917E+01 -0.45908070442E+02  0.46377711499E+02  0.00000000000E+00 0. -1.
         -5    1    5    5    0  501  0.14059442972E+03 -0.56173665511E+02  0.89320744145E+02  0.17584811543E+03  0.47000000000E+01 0.  1.
         11    1    6    6    0    0 -0.91009465700E+01 -0.56863107696E+02  0.56194884660E+02  0.80461825155E+02  0.00000000000E+00 0. -1.
        -12    1    6    6    0    0  0.13048563091E+02  0.25269859258E+02  0.20512813306E+02  0.35065742476E+02  0.00000000000E+00 0.  1.
</event>
<event>
12    1  0.2689284E-002  0.2001435E+03  0.7818608E-02  0.1149618E+00
         -1   -1    0    0    0  501 -0.00000000000E+00  0.00000000000E+00  0.23615818539E+02  0.23615818539E+02  0.00000000000E+00 0.  1.
          1   -1    0    0  502    0  0.00000000000E+00 -0.00000000000E+00 -0.17310679754E+04  0.17310679754E+04  0.00000000000E+00 0. -1.
          6    2    1    2  502    0 -0.90832274914E+02 -0.41370880024E+02 -0.98507735680E+03  0.10055438482E+04  0.17543939109E+03 0.  0.
         24    2    3    3    0    0 -0.98784596809E+02 -0.85671457831E+02 -0.65443824710E+03  0.67182227044E+03  0.77186453072E+02 0.  0.
         -6    2    1    2    0  501  0.90832274914E+02  0.41370880024E+02 -0.72237480011E+03  0.74913994576E+03  0.17153208044E+03 0.  0.
        -24    2    5    5    0    0  0.41523823518E+02  0.67493454815E+02 -0.62342284207E+03  0.63544169470E+03  0.94077165106E+02 0.  0.
          5    1    3    3  502    0  0.79523218959E+01  0.44300577807E+02 -0.33063910970E+03  0.33372157778E+03  0.47000000000E+01 0. -1.
        -11    1    4    4    0    0 -0.82930666892E+02 -0.27439283194E+02 -0.30718219076E+03  0.31936078046E+03  0.00000000000E+00 0.  1.
         12    1    4    4    0    0 -0.15853929918E+02 -0.58232174637E+02 -0.34725605634E+03  0.35246148998E+03  0.00000000000E+00 0. -1.
         -5    1    5    5    0  501  0.49308451396E+02 -0.26122574791E+02 -0.98951958040E+02  0.11369825105E+03  0.47000000000E+01 0.  1.
         11    1    6    6    0    0  0.12871952645E+00 -0.18196169163E+02 -0.22814963559E+03  0.22887414306E+03  0.00000000000E+00 0. -1.
        -12    1    6    6    0    0  0.41395103991E+02  0.85689623978E+02 -0.39527320647E+03  0.40656755164E+03  0.00000000000E+00 0.  1.
</event>
<event>
12    1  0.2689284E-002  0.1751515E+03  0.7818608E-02  0.1172580E+00
         -2   -1    0    0    0  501 -0.00000000000E+00  0.00000000000E+00  0.94008081648E+02  0.94008081648E+02  0.00000000000E+00 0. -1.
          2   -1    0    0  502    0  0.00000000000E+00 -0.00000000000E+00 -0.60483651358E+03  0.60483651358E+03  0.00000000000E+00 0.  1.
          6    2    1    2  502    0  0.20632846763E+02  0.14251375984E+01 -0.49160196703E+03  0.52148584464E+03  0.17276355745E+03 0.  0.
         24    2    3    3    0    0 -0.49861128520E+02  0.28317520997E+02 -0.26702155857E+03  0.28452371538E+03  0.79782314711E+02 0.  0.
         -6    2    1    2    0  501 -0.20632846763E+02 -0.14251375984E+01 -0.19226464903E+02  0.17735875059E+03  0.17509632799E+03 0.  0.
        -24    2    5    5    0    0  0.10595887724E+01 -0.60155509449E+02  0.24040050393E+02  0.10110981825E+03  0.77623857666E+02 0.  0.
          5    1    3    3  502    0  0.70493975283E+02 -0.26892383399E+02 -0.22458040846E+03  0.23696212925E+03  0.47000000000E+01 0. -1.
        -11    1    4    4    0    0 -0.26393253431E+02 -0.22409978963E+02 -0.16089676649E+03  0.16458001231E+03  0.00000000000E+00 0.  1.
         12    1    4    4    0    0 -0.23467875089E+02  0.50727499961E+02 -0.10612479208E+03  0.11994370308E+03  0.00000000000E+00 0. -1.
         -5    1    5    5    0  501 -0.21692435536E+02  0.58730371851E+02 -0.43266515296E+02  0.76248932340E+02  0.47000000000E+01 0.  1.
         13    1    6    6    0    0  0.33609789333E+02 -0.11372394535E+02  0.23321353012E+02  0.42459802199E+02  0.00000000000E+00 0. -1.
        -14    1    6    6    0    0 -0.32550200561E+02 -0.48783114914E+02  0.71869738112E+00  0.58650016055E+02  0.00000000000E+00 0.  1.
</event>
<event>
12    1  0.2689284E-002  0.1960142E+03  0.7818608E-02  0.1153146E+00
         -2   -1    0    0    0  501 -0.00000000000E+00  0.00000000000E+00  0.17156070556E+03  0.17156070556E+03  0.00000000000E+00 0. -1.
          2   -1    0    0  502    0  0.00000000000E+00 -0.00000000000E+00 -0.42586760328E+03  0.42586760328E+03  0.00000000000E+00 0.  1.
          6    2    1    2  502    0 -0.93602245516E+02  0.15858065239E+02 -0.33305282971E+03  0.38677527557E+03  0.17221517882E+03 0.  0.
         24    2    3    3    0    0 -0.31535235687E+02 -0.26346139824E+02 -0.28311231048E+03  0.29649984096E+03  0.77916526907E+02 0.  0.
         -6    2    1    2    0  501  0.93602245516E+02 -0.15858065239E+02  0.78745931981E+02  0.21065303327E+03  0.17076568749E+03 0.  0.
        -24    2    5    5    0    0  0.12155024386E+03 -0.16127699529E+02  0.23274672777E+02  0.14836086754E+03  0.80216408240E+02 0.  0.
          5    1    3    3  502    0 -0.62067009829E+02  0.42204205063E+02 -0.49940519221E+02  0.90275434610E+02  0.47000000000E+01 0. -1.
        -11    1    4    4    0    0  0.21238668440E+02 -0.48105897950E+01 -0.30129454789E+02  0.37175352818E+02  0.00000000000E+00 0.  1.
         12    1    4    4    0    0 -0.52773904127E+02 -0.21535550028E+02 -0.25298285570E+03  0.25932448814E+03  0.00000000000E+00 0. -1.
         -5    1    5    5    0  501 -0.27947998342E+02  0.26963428983E+00  0.55471259204E+02  0.62292165732E+02  0.47000000000E+01 0.  1.
         11    1    6    6    0    0 -0.10067253953E+02 -0.59335167430E+01 -0.60090769655E+01  0.13140214194E+02  0.00000000000E+00 0. -1.
        -12    1    6    6    0    0  0.13161749781E+03 -0.10194182786E+02  0.29283749742E+02  0.13522065335E+03  0.00000000000E+00 0.  1.
</event>
<event>
12    1  0.2689284E-002  0.1989831E+03  0.7818608E-02  0.1150600E+00
          1   -1    0    0  502    0  0.00000000000E+00  0.00000000000E+00  0.13881562804E+04  0.13881562804E+04  0.00000000000E+00 0.  1.
         -1   -1    0    0    0  501 -0.00000000000E+00 -0.00000000000E+00 -0.30086751074E+02  0.30086751074E+02  0.00000000000E+00 0. -1.
          6    2    1    2  502    0 -0.45489647830E+02  0.88103854277E+02  0.83679488451E+03  0.85985397192E+03  0.17114782232E+03 0.  0.
         24    2    3    3    0    0 -0.80922478173E+02  0.13712854174E+02  0.49410950110E+03  0.50737011645E+03  0.80893424621E+02 0.  0.
         -6    2    1    2    0  501  0.45489647830E+02 -0.88103854277E+02  0.52127464476E+03  0.55838905950E+03  0.17389505255E+03 0.  0.
        -24    2    5    5    0    0 -0.33315962373E+02 -0.83106662287E+02  0.27853989798E+03  0.30309012996E+03  0.79135841751E+02 0.  0.
          5    1    3    3  502    0  0.35432830344E+02  0.74391000102E+02  0.34268538342E+03  0.35248385547E+03  0.47000000000E+01 0. -1.
        -13    1    4    4    0    0 -0.52234542570E+02  0.32462268080E+02  0.43266598965E+03  0.43701499389E+03  0.00000000000E+00 0.  1.
         14    1    4    4    0    0 -0.28687935604E+02 -0.18749413906E+02  0.61443511450E+02  0.70355122560E+02  0.00000000000E+00 0. -1.
         -5    1    5    5    0  501  0.78805610203E+02 -0.49971919896E+01  0.24273474679E+03  0.25529892954E+03  0.47000000000E+01 0.  1.
         13    1    6    6    0    0 -0.15205246246E+02  0.12488899846E+02  0.74266429903E+02  0.76828866601E+02  0.00000000000E+00 0. -1.
        -14    1    6    6    0    0 -0.18110716128E+02 -0.95595562133E+02  0.20427346807E+03  0.22626126336E+03  0.00000000000E+00 0.  1.
</event>
<event>
12    1  0.2689284E-002  0.1850391E+03  0.7818608E-02  0.1163013E+00
         -2   -1    0    0    0  501 -0.00000000000E+00  0.00000000000E+00  0.38052807421E+02  0.38052807421E+02  0.00000000000E+00 0.  1.
          2   -1    0    0  502    0  0.00000000000E+00 -0.00000000000E+00 -0.92948207196E+03  0.92948207196E+03  0.00000000000E+00 0. -1.
          6    2    1    2  502    0 -0.66835449598E+02  0.13590817117E+02 -0.35878651117E+03  0.40360108100E+03  0.17179750975E+03 0.  0.
         24    2    3    3    0    0 -0.59849132596E+02 -0.47540305075E+02 -0.29360108161E+03  0.31383999282E+03  0.80324010666E+02 0.  0.
         -6    2    1    2    0  501  0.66835449598E+02 -0.13590817117E+02 -0.53264275337E+03  0.56393379837E+03  0.17222467478E+03 0.  0.
        -24    2    5    5    0    0 -0.91411857536E+01 -0.57783175325E+02 -0.26954338257E+03  0.28650131550E+03  0.77504271269E+02 0.  0.
          5    1    3    3  502    0 -0.69863170018E+01  0.61131122192E+02 -0.65185429561E+02  0.89761088188E+02  0.47000000000E+01 0. -1.
        -13    1    4    4    0    0 -0.69423638558E+02 -0.18514249151E+02 -0.14148208978E+03  0.15868081403E+03  0.00000000000E+00 0.  1.
         14    1    4    4    0    0  0.95745059623E+01 -0.29026055923E+02 -0.15211899183E+03  0.15515917878E+03  0.00000000000E+00 0. -1.
         -5    1    5    5    0  501  0.75976635352E+02  0.44192358208E+02 -0.26309937079E+03  0.27743248288E+03  0.47000000000E+01 0.  1.
         11    1    6    6    0    0  0.11858884731E+01  0.84481040265E+00 -0.17349103332E+03  0.17349714314E+03  0.00000000000E+00 0. -1.
        -12    1    6    6    0    0 -0.10327074227E+02 -0.58627985728E+02 -0.96052349255E+02  0.11300417236E+03  0.00000000000E+00 0.  1.
</event>
<event>
12    1  0.2689284E-002  0.1732122E+03  0.7818608E-02  0.1174539E+00
          1   -1    0    0  502    0  0.00000000000E+00  0.00000000000E+00  0.10756383623E+03  0.10756383623E+03  0.00000000000E+00 0.  1.
         -1   -1    0    0    0  501 -0.00000000000E+00 -0.00000000000E+00 -0.28744610464E+03  0.28744610464E+03  0.00000000000E+00 0. -1.
          6    2    1    2  502    0  0.22061305462E+02  0.14376457227E+02 -0.55888883053E+02  0.18190917104E+03  0.17109645098E+03 0.  0.
         24    2    3    3    0    0 -0.12735270240E+01 -0.11994113074E+02 -0.98854708734E+02  0.12615907184E+03  0.77449192042E+02 0.  0.
         -6    2    1    2    0  501 -0.22061305462E+02 -0.14376457227E+02 -0.12399338536E+03  0.21310076983E+03  0.17130147334E+03 0.  0.
        -24    2    5    5    0    0 -0.16843149563E+02  0.39908038199E+02 -0.13362078286E+03  0.15752368483E+03  0.71294140500E+02 0.  0.
          5    1    3    3  502    0  0.23334832486E+02  0.26370570301E+02  0.42965825681E+02  0.55750099207E+02  0.47000000000E+01 0. -1.
        -13    1    4    4    0    0 -0.32045204308E+02  0.10814568910E+02 -0.71485727423E+02  0.79082610258E+02  0.00000000000E+00 0.  1.
         14    1    4    4    0    0  0.30771677284E+02 -0.22808681984E+02 -0.27368981311E+02  0.47076461578E+02  0.00000000000E+00 0. -1.
         -5    1    5    5    0  501 -0.52181558988E+01 -0.54284495425E+02  0.96273975042E+01  0.55577085002E+02  0.47000000000E+01 0.  1.
         13    1    6    6    0    0 -0.38016489805E+02  0.24846015021E+02 -0.40517751435E+02  0.60862682662E+02  0.00000000000E+00 0. -1.
        -14    1    6    6    0    0  0.21173340241E+02  0.15062023178E+02 -0.93103031425E+02  0.96661002166E+02  0.00000000000E+00 0.  1.
</event>
<event>
12    1  0.2689284E-002  0.2103802E+03  0.7818608E-02  0.1141265E+00
          1   -1    0    0  502    0  0.00000000000E+00  0.00000000000E+00  0.12731902870E+03  0.12731902870E+03  0.00000000000E+00 0. -1.
         -1   -1    0    0    0  501 -0.00000000000E+00 -0.00000000000E+00 -0.39185655230E+03  0.39185655230E+03  0.00000000000E+00 0.  1.
          6    2    1    2  502    0  0.12163023505E+03  0.23047819175E+02 -0.21871183549E+03  0.30254196836E+03  0.16843888978E+03 0.  0.
         24    2    3    3    0    0  0.41777744548E+02  0.59695926427E+01 -0.19883749671E+03  0.21836854380E+03  0.79796333543E+02 0.  0.
         -6    2    1    2    0  501 -0.12163023505E+03 -0.23047819175E+02 -0.45825688111E+02  0.21663361264E+03  0.17177023138E+03 0.  0.
        -24    2    5    5    0    0 -0.13044558883E+03 -0.29573886147E+02  0.13992661168E+02  0.15563668712E+03  0.78334650218E+02 0.  0.
          5    1    3    3  502    0  0.79852490502E+02  0.17078226533E+02 -0.19874338782E+02  0.84173424565E+02  0.47000000000E+01 0. -1.
        -13    1    4    4    0    0 -0.21373522308E+02  0.15417861434E+02 -0.54505400922E+02  0.60542354073E+02  0.00000000000E+00 0.  1.
         14    1    4    4    0    0  0.63151266856E+02 -0.94482687909E+01 -0.14433209578E+03  0.15782618972E+03  0.00000000000E+00 0. -1.
         -5    1    5    5    0  501  0.88153537821E+01  0.65260669712E+01 -0.59818349279E+02  0.60996925520E+02  0.47000000000E+01 0.  1.
         11    1    6    6    0    0 -0.62386998668E+01 -0.30041005227E+02  0.37094528037E+00  0.30684213717E+02  0.00000000000E+00 0. -1.
        -12    1    6    6    0    0 -0.12420688897E+03  0.46711908017E+00  0.13621715888E+02  0.12495247341E+03  0.00000000000E+00 0.  1.
</event>
<event>
12    1  0.2689284E-002  0.1906799E+03  0.7818608E-02  0.1157850E+00
          1   -1    0    0  502    0  0.00000000000E+00  0.00000000000E+00  0.61109133378E+03  0.61109133378E+03  0.00000000000E+00 0.  1.
         -1   -1    0    0    0  501 -0.00000000000E+00 -0.00000000000E+00 -0.66455732285E+02  0.66455732285E+02  0.00000000000E+00 0. -1.
          6    2    1    2  502    0  0.40874008330E+02  0.73141327956E+02  0.38211701687E+03  0.42711497510E+03  0.17144517771E+03 0.  0.
         24    2    3    3    0    0  0.75739626086E+02  0.72851616633E+02  0.18776167168E+03  0.22960096183E+03  0.80114339016E+02 0.  0.
         -6    2    1    2    0  501 -0.40874008330E+02 -0.73141327956E+02  0.16251858463E+03  0.25043209097E+03  0.17112452608E+03 0.  0.
        -24    2    5    5    0    0 -0.69816040224E+02 -0.44166363910E+02  0.44644170285E+02  0.12555752467E+03  0.83346522943E+02 0.  0.
          5    1    3    3  502    0 -0.34865617756E+02  0.28971132334E+00  0.19435534519E+03  0.19751401327E+03  0.47000000000E+01 0. -1.
        -11    1    4    4    0    0  0.52805703977E+02  0.62439759123E+02  0.18734079426E+03  0.20441071177E+03  0.00000000000E+00 0.  1.
         12    1    4    4    0    0  0.22933922109E+02  0.10411857510E+02  0.42087741352E+00  0.25190250056E+02  0.00000000000E+00 0. -1.
         -5    1    5    5    0  501  0.28942031894E+02 -0.28974964047E+02  0.11787441435E+03  0.12487456630E+03  0.47000000000E+01 0.  1.
         11    1    6    6    0    0 -0.44248140571E+02 -0.68687261831E+02  0.27571718731E+02  0.86232462308E+02  0.00000000000E+00 0. -1.
        -12    1    6    6    0    0 -0.25567899653E+02  0.24520897922E+02  0.17072451555E+02  0.39325062360E+02  0.00000000000E+00 0.  1.
</event>
<event>
12    1  0.2689284E-002  0.2657877E+03  0.7818608E-02  0.1103715E+00
          1   -1    0    0  502    0  0.00000000000E+00  0.00000000000E+00  0.20738472616E+03  0.20738472616E+03  0.00000000000E+00 0. -1.
         -1   -1    0    0    0  501 -0.00000000000E+00 -0.00000000000E+00 -0.34566654162E+03  0.34566654162E+03  0.00000000000E+00 0.  1.
          6    2    1    2  502    0 -0.19074421195E+03 -0.71225175510E+02 -0.10224360484E+03  0.28391575140E+03  0.16940489706E+03 0.  0.
         24    2    3    3    0    0 -0.20008897353E+03 -0.25346222557E+02 -0.92477072152E+02  0.23585664141E+03  0.79989487407E+02 0.  0.
         -6    2    1    2    0  501  0.19074421195E+03  0.71225175510E+02 -0.36038210623E+02  0.26913551638E+03  0.17227534222E+03 0.  0.
        -24    2    5    5    0    0  0.15920849808E+03  0.93824221461E+01  0.15657835281E+02  0.18245450027E+03  0.87230161968E+02 0.  0.
          5    1    3    3  502    0  0.93447615828E+01 -0.45878952952E+02 -0.97665326843E+01  0.48059109997E+02  0.47000000000E+01 0. -1.
        -13    1    4    4    0    0 -0.13629162655E+03 -0.13922528334E+02 -0.10138510029E+03  0.17043527458E+03  0.00000000000E+00 0.  1.
         14    1    4    4    0    0 -0.63797346980E+02 -0.11423694223E+02  0.89080281357E+01  0.65421366821E+02  0.00000000000E+00 0. -1.
         -5    1    5    5    0  501  0.31535713869E+02  0.61842753364E+02 -0.51696045904E+02  0.86681016116E+02  0.47000000000E+01 0.  1.
         11    1    6    6    0    0  0.76029258539E+02  0.30878547838E+02  0.42544524983E+02  0.92433594956E+02  0.00000000000E+00 0. -1.
        -12    1    6    6    0    0  0.83179239539E+02 -0.21496125691E+02 -0.26886689702E+02  0.90020905312E+02  0.00000000000E+00 0.  1.
</event>
<event>
12    1  0.2689284E-002  0.2007343E+03  0.7818608E-02  0.1149121E+00
         -4   -1    0    0    0  501 -0.00000000000E+00  0.00000000000E+00  0.12833790059E+03  0.12833790059E+03  0.00000000000E+00 0.  1.
          4   -1    0    0  502    0  0.00000000000E+00 -0.00000000000E+00 -0.32265284221E+03  0.32265284221E+03  0.00000000000E+00 0. -1.
          6    2    1    2  502    0  0.91029738818E+02  0.62798446049E+02 -0.58623598669E+02  0.20551131935E+03  0.16299729410E+03 0.  0.
         24    2    3    3    0    0  0.98605061301E+02  0.83697859500E+02 -0.10584515495E+02  0.15236986184E+03  0.79851443513E+02 0.  0.
         -6    2    1    2    0  501 -0.91029738818E+02 -0.62798446049E+02 -0.13569134295E+03  0.24547942346E+03  0.17209865953E+03 0.  0.
        -24    2    5    5    0    0 -0.60627035781E+02 -0.57857360456E+02 -0.10461653912E+02  0.11643174352E+03  0.80148568738E+02 0.  0.
          5    1    3    3  502    0 -0.75753224829E+01 -0.20899413451E+02 -0.48039083174E+02  0.53141457502E+02  0.47000000000E+01 0. -1.
        -13    1    4    4    0    0  0.47358555041E+02  0.34518215508E+02  0.34727572266E+02  0.68120072027E+02  0.00000000000E+00 0.  1.
         14    1    4    4    0    0  0.51246506260E+02  0.49179643991E+02 -0.45312087761E+02  0.84249789817E+02  0.00000000000E+00 0. -1.
         -5    1    5    5    0  501 -0.30402703037E+02 -0.49410855927E+01 -0.12522968904E+03  0.12904767993E+03  0.47000000000E+01 0.  1.
         13    1    6    6    0    0 -0.38703054276E+02 -0.18998629176E+02 -0.43245020620E+02  0.61065588749E+02  0.00000000000E+00 0. -1.
        -14    1    6    6    0    0 -0.21923981505E+02 -0.38858731280E+02  0.32783366708E+02  0.55366154774E+02  0.00000000000E+00 0.  1.
</event>
<event>
12    1  0.2689284E-002  0.3215014E+03  0.7818608E-02  0.1074960E+00
          2   -1    0    0  502    0  0.00000000000E+00  0.00000000000E+00  0.14921268929E+04  0.14921268929E+04  0.00000000000E+00 0.  1.
         -2   -1    0    0    0  501 -0.00000000000E+00 -0.00000000000E+00 -0.69724956919E+02  0.69724956919E+02  0.00000000000E+00 0. -1.
          6    2    1    2  502    0  0.26436104692E+03  0.61321708954E+02  0.64929163935E+03  0.72473138161E+03  0.17323056154E+03 0.  0.
         24    2    3    3    0    0  0.26767660583E+03  0.34727714662E+02  0.63353486415E+03  0.69328938059E+03  0.80168333408E+02 0.  0.
         -6    2    1    2    0  501 -0.26436104692E+03 -0.61321708954E+02  0.77311029659E+03  0.83712046816E+03  0.17153434760E+03 0.  0.
        -24    2    5    5    0    0 -0.10573879120E+03 -0.80417477342E+02  0.46001773283E+03  0.48558851818E+03  0.80822223680E+02 0.  0.
          5    1    3    3  502    0 -0.33155589109E+01  0.26593994291E+02  0.15756775198E+02  0.31442001016E+02  0.47000000000E+01 0. -1.
        -11    1    4    4    0    0  0.85400382562E+02  0.23224154381E+02  0.30289478643E+03  0.31555956385E+03  0.00000000000E+00 0.  1.
         12    1    4    4    0    0  0.18227622327E+03  0.11503560282E+02  0.33064007771E+03  0.37772981674E+03  0.00000000000E+00 0. -1.
         -5    1    5    5    0  501 -0.15862225571E+03  0.19095768389E+02  0.31309256376E+03  0.35153194998E+03  0.47000000000E+01 0.  1.
         13    1    6    6    0    0 -0.28163074805E+02 -0.66429918246E+02  0.27847820448E+03  0.28767377911E+03  0.00000000000E+00 0. -1.
        -14    1    6    6    0    0 -0.77575716399E+02 -0.13987559096E+02  0.18153952836E+03  0.19791473907E+03  0.00000000000E+00 0.  1.
</event>
<event>
12    1  0.2689284E-002  0.2426980E+03  0.7818608E-02  0.1118008E+00
         -2   -1    0    0    0  501 -0.00000000000E+00  0.00000000000E+00  0.31771318476E+02  0.31771318476E+02  0.00000000000E+00 0.  1.
          2   -1    0    0  502    0  0.00000000000E+00 -0.00000000000E+00 -0.18548865382E+04  0.18548865382E+04  0.00000000000E+00 0. -1.
          6    2    1    2  502    0 -0.15233969958E+03  0.73305911392E+02 -0.92747235888E+03  0.95838186948E+03  0.17236499226E+03 0.  0.
         24    2    3    3    0    0 -0.61073321638E+02  0.21295684344E+02 -0.23727551184E+03  0.26022114793E+03  0.85040699211E+02 0.  0.
         -6    2    1    2    0  501  0.15233969958E+03 -0.73305911392E+02 -0.89564286085E+03  0.92827598719E+03  0.17589495020E+03 0.  0.
        -24    2    5    5    0    0  0.62311208367E+02  0.26982676972E+02 -0.46371876349E+03  0.47579013541E+03  0.82039074826E+02 0.  0.
          5    1    3    3  502    0 -0.91266377941E+02  0.52010227048E+02 -0.69019684704E+03  0.69816072155E+03  0.47000000000E+01 0. -1.
        -11    1    4    4    0    0 -0.77073749831E+02  0.85566064669E+01 -0.22059734393E+03  0.23383063652E+03  0.00000000000E+00 0.  1.
         12    1    4    4    0    0  0.16000428194E+02  0.12739077877E+02 -0.16678167918E+02  0.26390511413E+02  0.00000000000E+00 0. -1.
         -5    1    5    5    0  501  0.90028491212E+02 -0.10028858836E+03 -0.43192409735E+03  0.45248585178E+03  0.47000000000E+01 0.  1.
         11    1    6    6    0    0  0.41463309515E+02 -0.18401216820E+02 -0.32898308661E+03  0.33209589291E+03  0.00000000000E+00 0. -1.
        -12    1    6    6    0    0  0.20847898852E+02  0.45383893793E+02 -0.13473567689E+03  0.14369424250E+03  0.00000000000E+00 0.  1.
</event>
<event>
12    1  0.2689284E-002  0.2485296E+03  0.7818608E-02  0.1114238E+00
          2   -1    0    0  502    0  0.00000000000E+00  0.00000000000E+00  0.32233065193E+03  0.32233065193E+03  0.00000000000E+00 0.  1.
         -2   -1    0    0    0  501 -0.00000000000E+00 -0.00000000000E+00 -0.64061393107E+03  0.64061393107E+03  0.00000000000E+00 0. -1.
          6    2    1    2  502    0  0.16972278419E+03 -0.40287788919E+02 -0.56235387684E+03  0.61510811945E+03  0.17800895034E+03 0.  0.
         24    2    3    3    0    0  0.14950968251E+02  0.16854368119E+02 -0.17845483052E+03  0.19723240959E+03  0.80912889461E+02 0.  0.
         -6    2    1    2    0  501 -0.16972278419E+03  0.40287788919E+02  0.24407059770E+03  0.34783646356E+03  0.17604209527E+03 0.  0.
        -24    2    5    5    0    0 -0.12016125889E+03 -0.97672383876E+01  0.22777450110E+03  0.27538300737E+03  0.97059004294E+02 0.  0.
          5    1    3    3  502    0  0.15477181594E+03 -0.57142157038E+02 -0.38389904632E+03  0.41787570985E+03  0.47000000000E+01 0. -1.
        -13    1    4    4    0    0  0.41814738791E+02  0.25931249688E+02 -0.73012669370E+02  0.88044034319E+02  0.00000000000E+00 0.  1.
         14    1    4    4    0    0 -0.26863770541E+02 -0.90768815692E+01 -0.10544216115E+03  0.10918837527E+03  0.00000000000E+00 0. -1.
         -5    1    5    5    0  501 -0.49561525305E+02  0.50055027307E+02  0.16296096604E+02  0.72453456189E+02  0.47000000000E+01 0.  1.
         13    1    6    6    0    0 -0.23640743129E+02 -0.18382957616E+02  0.23814305412E+01  0.30041455987E+02  0.00000000000E+00 0. -1.
        -14    1    6    6    0    0 -0.96520515761E+02  0.86157192282E+01  0.22539307056E+03  0.24534155138E+03  0.00000000000E+00 0.  1.
</event>
<event>
12    1  0.2689284E-002  0.2382954E+03  0.7818608E-02  0.1120934E+00
          2   -1    0    0  502    0  0.00000000000E+00  0.00000000000E+00  0.14778993231E+04  0.14778993231E+04  0.00000000000E+00 0.  1.
         -2   -1    0    0    0  501 -0.00000000000E+00 -0.00000000000E+00 -0.42560979296E+02  0.42560979296E+02  0.00000000000E+00 0. -1.
          6    2    1    2  502    0 -0.15965125206E+03 -0.44566770152E+02  0.47969664015E+03  0.53547473714E+03  0.17073256355E+03 0.  0.
         24    2    3    3    0    0 -0.15557836023E+03 -0.84756469554E+01  0.46414186618E+03  0.49568530871E+03  0.77458314999E+02 0.  0.
         -6    2    1    2    0  501  0.15965125206E+03  0.44566770152E+02  0.95564170370E+03  0.98498556530E+03  0.17167055287E+03 0.  0.
        -24    2    5    5    0    0  0.16775397388E+03  0.16351665499E+02  0.60684720375E+03  0.63492637113E+03  0.80369119300E+02 0.  0.
          5    1    3    3  502    0 -0.40728918221E+01 -0.36091123197E+02  0.15554773965E+02  0.39789428426E+02  0.47000000000E+01 0. -1.
        -11    1    4    4    0    0  0.26207068883E+01  0.12193372908E+02  0.18203936422E+02  0.22066484738E+02  0.00000000000E+00 0.  1.
         12    1    4    4    0    0 -0.15819906712E+03 -0.20669019863E+02  0.44593792976E+03  0.47361882397E+03  0.00000000000E+00 0. -1.
         -5    1    5    5    0  501 -0.81027218291E+01  0.28215104653E+02  0.34879449994E+03  0.35005919417E+03  0.47000000000E+01 0.  1.
         13    1    6    6    0    0  0.15564554008E+03  0.19087305908E+01  0.58807024149E+03  0.60832210738E+03  0.00000000000E+00 0. -1.
        -14    1    6    6    0    0  0.12108433808E+02  0.14442934908E+02  0.18776962262E+02  0.26604263753E+02  0.00000000000E+00 0.  1.
</event>
<event>
12    1  0.2689284E-002  0.1842916E+03  0.7818608E-02  0.1163713E+00
         -2   -1    0    0    0  501 -0.00000000000E+00  0.00000000000E+00  0.26805990728E+02  0.26805990728E+02  0.00000000000E+00 0. -1.
          2   -1    0    0  502    0  0.00000000000E+00 -0.00000000000E+00 -0.16570107286E+04  0.16570107286E+04  0.00000000000E+00 0.  1.
          6    2    1    2  502    0 -0.27432586972E+02 -0.59746134869E+02 -0.12242552620E+04  0.12380797436E+04  0.17239013172E+03 0.  0.
         24    2    3    3    0    0 -0.39719689416E+02  0.27320725914E+02 -0.70092388418E+03  0.70739204622E+03  0.82371960372E+02 0.  0.
         -6    2    1    2    0  501  0.27432586972E+02  0.59746134869E+02 -0.40594947584E+03  0.44573697569E+03  0.17194280185E+03 0.  0.
        -24    2    5    5    0    0 -0.50570161970E+02  0.38117051068E+02 -0.19330987789E+03  0.21816295538E+03  0.78842344874E+02 0.  0.
          5    1    3    3  502    0  0.12287102444E+02 -0.87066860783E+02 -0.52333137786E+03  0.53068769741E+03  0.47000000000E+01 0. -1.
        -11    1    4    4    0    0 -0.46680784368E+02 -0.16871055426E+02 -0.42098403377E+03  0.42390008826E+03  0.00000000000E+00 0.  1.
         12    1    4    4    0    0  0.69610949525E+01  0.44191781339E+02 -0.27993985041E+03  0.28349195796E+03  0.00000000000E+00 0. -1.
         -5    1    5    5    0  501  0.78002748942E+02  0.21629083801E+02 -0.21263959794E+03  0.22757402031E+03  0.47000000000E+01 0.  1.
         13    1    6    6    0    0  0.40849766362E+01 -0.19349275619E+02 -0.58539832885E+02  0.61789914512E+02  0.00000000000E+00 0. -1.
        -14    1    6    6    0    0 -0.54655138606E+02  0.57466326688E+02 -0.13477004501E+03  0.15637304087E+03  0.00000000000E+00 0.  1.
</event>
<event>
12    1  0.2689284E-002  0.6309304E+03  0.7818608E-02  0.9843235E-01
         -2   -1    0    0    0  501 -0.00000000000E+00  0.00000000000E+00  0.30885949129E+03  0.30885949129E+03  0.00000000000E+00 0.  1.
          2   -1    0    0  502    0  0.00000000000E+00 -0.00000000000E+00 -0.14234495872E+04  0.14234495872E+04  0.00000000000E+00 0. -1.
          6    2    1    2  502    0  0.35736061374E+03  0.49050233598E+03 -0.82364145914E+03  0.10375243497E+04  0.17254672722E+03 0.  0.
         24    2    3    3    0    0  0.34179002919E+03  0.46048625635E+03 -0.69573339193E+03  0.90513865633E+03  0.79768528920E+02 0.  0.
         -6    2    1    2    0  501 -0.35736061374E+03 -0.49050233598E+03 -0.29094863681E+03  0.69478472886E+03  0.17255596295E+03 0.  0.
        -24    2    5    5    0    0 -0.11553927649E+03 -0.98698824072E+02 -0.72120810606E+02  0.18498549523E+03  0.76989868417E+02 0.  0.
          5    1    3    3  502    0  0.15570584547E+02  0.30016079629E+02 -0.12790806722E+03  0.13238569333E+03  0.47000000000E+01 0. -1.
        -13    1    4    4    0    0  0.20611415748E+03  0.23301588648E+03 -0.42164926975E+03  0.52399194263E+03  0.00000000000E+00 0.  1.
         14    1    4    4    0    0  0.13567587171E+03  0.22747036987E+03 -0.27408412218E+03  0.38114671370E+03  0.00000000000E+00 0. -1.
         -5    1    5    5    0  501 -0.24182133725E+03 -0.39180351191E+03 -0.21882782620E+03  0.50979923363E+03  0.47000000000E+01 0.  1.
         13    1    6    6    0    0  0.91255106781E+01 -0.11515080903E+02 -0.18635934037E+02  0.23731204579E+02  0.00000000000E+00 0. -1.
        -14    1    6    6    0    0 -0.12466478717E+03 -0.87183743169E+02 -0.53484876569E+02  0.16125429065E+03  0.00000000000E+00 0.  1.
</event>
<event>
12    1  0.2689284E-002  0.3171138E+03  0.7818608E-02  0.1076985E+00
         -2   -1    0    0    0  501 -0.00000000000E+00  0.00000000000E+00  0.22278101049E+03  0.22278101049E+03  0.00000000000E+00 0.  1.
          2   -1    0    0  502    0  0.00000000000E+00 -0.00000000000E+00 -0.45229217055E+03  0.45229217055E+03  0.00000000000E+00 0. -1.
          6    2    1    2  502    0  0.21105664341E+03 -0.15452428831E+03 -0.10233398928E+03  0.33785577347E+03  0.18775413683E+03 0.  0.
         24    2    3    3    0    0  0.21358229680E+03 -0.84010705834E+02 -0.45762941586E+02  0.24729685521E+03  0.79914276422E+02 0.  0.
         -6    2    1    2    0  501 -0.21105664341E+03  0.15452428831E+03 -0.12717717078E+03  0.33721740758E+03  0.17064256444E+03 0.  0.
        -24    2    5    5    0    0 -0.17468014886E+03  0.12152243211E+03 -0.16021287364E+03  0.27783879583E+03  0.79027689319E+02 0.  0.
          5    1    3    3  502    0 -0.25256533812E+01 -0.70513582475E+02 -0.56571047692E+02  0.90558918255E+02  0.47000000000E+01 0. -1.
        -13    1    4    4    0    0  0.41965194214E+02  0.82150774396E+01  0.11401262133E+02  0.44255551075E+02  0.00000000000E+00 0.  1.
         14    1    4    4    0    0  0.17161710258E+03 -0.92225783273E+02 -0.57164203719E+02  0.20304130414E+03  0.00000000000E+00 0. -1.
         -5    1    5    5    0  501 -0.36376494555E+02  0.33001856198E+02  0.33035702864E+02  0.59378611741E+02  0.47000000000E+01 0.  1.
         11    1    6    6    0    0 -0.12334124299E+03  0.11549577431E+03 -0.14823033731E+03  0.22477670921E+03  0.00000000000E+00 0. -1.
        -12    1    6    6    0    0 -0.51338905866E+02  0.60266578058E+01 -0.11982536332E+02  0.53062086623E+02  0.00000000000E+00 0.  1.
</event>
<event>
12    1  0.2689284E-002  0.1894841E+03  0.7818608E-02  0.1158927E+00
          2   -1    0    0  502    0  0.00000000000E+00  0.00000000000E+00  0.14359094457E+04  0.14359094457E+04  0.00000000000E+00 0.  1.
         -2   -1    0    0    0  501 -0.00000000000E+00 -0.00000000000E+00 -0.31434474864E+02  0.31434474864E+02  0.00000000000E+00 0. -1.
          6    2    1    2  502    0  0.66873264469E+02 -0.26887732469E+02  0.36528883955E+03  0.41070483881E+03  0.17334227603E+03 0.  0.
         24    2    3    3    0    0  0.10257781008E+03  0.15102836748E+02  0.27514612647E+03  0.30494179610E+03  0.80831957165E+02 0.  0.
         -6    2    1    2    0  501 -0.66873264469E+02  0.26887732469E+02  0.10391861313E+04  0.10566390818E+04  0.17715346452E+03 0.  0.
        -24    2    5    5    0    0 -0.10266190814E+03  0.42113577786E+01  0.53009542489E+03  0.54576680582E+03  0.79391711971E+02 0.  0.
          5    1    3    3  502    0 -0.35704545609E+02 -0.41990569217E+02  0.90142713086E+02  0.10576304271E+03  0.47000000000E+01 0. -1.
        -13    1    4    4    0    0  0.93606430836E+02  0.42479987181E+01  0.27535092149E+03  0.29085793671E+03  0.00000000000E+00 0.  1.
         14    1    4    4    0    0  0.89713792419E+01  0.10854838030E+02 -0.20479501687E+00  0.14083859384E+02  0.00000000000E+00 0. -1.
         -5    1    5    5    0  501  0.35788643675E+02  0.22676374690E+02  0.50909070644E+03  0.51087227598E+03  0.47000000000E+01 0.  1.
         13    1    6    6    0    0 -0.74307264480E+02 -0.12775323925E+02  0.19538004267E+03  0.20942335001E+03  0.00000000000E+00 0. -1.
        -14    1    6    6    0    0 -0.28354643664E+02  0.16986681704E+02  0.33471538222E+03  0.33634345581E+03  0.00000000000E+00 0.  1.
</event>
<event>
12    1  0.2689284E-002  0.2033384E+03  0.7818608E-02  0.1146953E+00
         -1   -1    0    0    0  501 -0.00000000000E+00  0.00000000000E+00  0.50438946997E+02  0.50438946997E+02  0.00000000000E+00 0. -1.
          1   -1    0    0  502    0  0.00000000000E+00 -0.00000000000E+00 -0.13396728322E+04  0.13396728322E+04  0.00000000000E+00 0.  1.
          6    2    1    2  502    0 -0.72182337768E+02 -0.75770685388E+02 -0.20843761306E+03  0.29004642923E+03  0.17242159355E+03 0.  0.
         24    2    3    3    0    0 -0.83980454403E+02 -0.21842968110E+02 -0.20267937359E+03  0.23434506867E+03  0.79428274247E+02 0.  0.
         -6    2    1    2    0  501  0.72182337768E+02  0.75770685388E+02 -0.10807962721E+04  0.11000653500E+04  0.17627168141E+03 0.  0.
        -24    2    5    5    0    0  0.68190737917E+02 -0.19483019532E+02 -0.48118207179E+03  0.49290105553E+03  0.79910572174E+02 0.  0.
          5    1    3    3  502    0  0.11798116635E+02 -0.53927717278E+02 -0.57582394657E+01  0.55701360564E+02  0.47000000000E+01 0. -1.
        -13    1    4    4    0    0 -0.46903923433E+02 -0.43096545854E+02 -0.16678631352E+03  0.17853561179E+03  0.00000000000E+00 0.  1.
         14    1    4    4    0    0 -0.37076530970E+02  0.21253577744E+02 -0.35893060070E+02  0.55809456877E+02  0.00000000000E+00 0. -1.
         -5    1    5    5    0  501  0.39915998507E+01  0.95253704920E+02 -0.59961420035E+03  0.60716429443E+03  0.47000000000E+01 0.  1.
         11    1    6    6    0    0  0.54908589679E+02  0.89096650243E+01 -0.14570003318E+03  0.15595779884E+03  0.00000000000E+00 0. -1.
        -12    1    6    6    0    0  0.13282148238E+02 -0.28392684557E+02 -0.33548203862E+03  0.33694325669E+03  0.00000000000E+00 0.  1.
</event>
<event>
12    1  0.2689284E-002  0.1858552E+03  0.7818608E-02  0.1162254E+00
         -2   -1    0    0    0  501 -0.00000000000E+00  0.00000000000E+00  0.99553155866E+02  0.99553155866E+02  0.00000000000E+00 0.  1.
          2   -1    0    0  502    0  0.00000000000E+00 -0.00000000000E+00 -0.42986687547E+03  0.42986687547E+03  0.00000000000E+00 0. -1.
          6    2    1    2  502    0 -0.47460538130E+02 -0.49880680921E+02 -0.28123929897E+03  0.33697872483E+03  0.17239063980E+03 0.  0.
         24    2    3    3    0    0  0.22762740061E+02  0.20840611123E+02 -0.11561900128E+03  0.14362675831E+03  0.79425555320E+02 0.  0.
         -6    2    1    2    0  501  0.47460538130E+02  0.49880680921E+02 -0.49074420624E+02  0.19244130651E+03  0.17287212812E+03 0.  0.
        -24    2    5    5    0    0 -0.39272891187E+02  0.28382297421E+02 -0.39573367392E+02  0.10245670634E+03  0.81138218358E+02 0.  0.
          5    1    3    3  502    0 -0.70223278191E+02 -0.70721292044E+02 -0.16562029770E+03  0.19335196652E+03  0.47000000000E+01 0. -1.
        -13    1    4    4    0    0 -0.65360694826E+01 -0.67968332032E+01  0.87711617873E+01  0.12878292782E+02  0.00000000000E+00 0.  1.
         14    1    4    4    0    0  0.29298809544E+02  0.27637444326E+02 -0.12439016307E+03  0.13074846553E+03  0.00000000000E+00 0. -1.
         -5    1    5    5    0  501  0.86733429317E+02  0.21498383500E+02 -0.95010532321E+01  0.89984600164E+02  0.47000000000E+01 0.  1.
         11    1    6    6    0    0 -0.57009231255E+02  0.43091120683E+02 -0.29696052598E+02  0.77387031665E+02  0.00000000000E+00 0. -1.
        -12    1    6    6    0    0  0.17736340068E+02 -0.14708823262E+02 -0.98773147943E+01  0.25069674675E+02  0.00000000000E+00 0.  1.
</event>
<event>
12    1  0.2689284E-002  0.2687400E+03  0.7818608E-02  0.1102003E+00
         -2   -1    0    0    0  501 -0.00000000000E+00  0.00000000000E+00  0.15748041184E+03  0.15748041184E+03  0.00000000000E+00 0. -1.
          2   -1    0    0  502    0  0.00000000000E+00 -0.00000000000E+00 -0.47541451035E+03  0.47541451035E+03  0.00000000000E+00 0.  1.
          6    2    1    2  502    0  0.82922743642E+02  0.18886852096E+03 -0.21818149959E+03  0.34576555449E+03  0.17147347400E+03 0.  0.
         24    2    3    3    0    0 -0.24775478656E+00  0.11686281607E+03 -0.18190944190E+03  0.22983494803E+03  0.77949208584E+02 0.  0.
         -6    2    1    2    0  501 -0.82922743642E+02 -0.18886852096E+03 -0.99752598925E+02  0.28712936769E+03  0.17304679476E+03 0.  0.
        -24    2    5    5    0    0 -0.11886092635E+03 -0.14176990820E+03 -0.45538213024E+02  0.20668608370E+03  0.80117299413E+02 0.  0.
          5    1    3    3  502    0  0.83170498429E+02  0.72005704890E+02 -0.36272057685E+02  0.11593060646E+03  0.47000000000E+01 0. -1.
        -11    1    4    4    0    0  0.18089056883E+02 -0.26566938612E+01 -0.14562235480E+02  0.23373718219E+02  0.00000000000E+00 0.  1.
         12    1    4    4    0    0 -0.18336811669E+02  0.11951950994E+03 -0.16734720642E+03  0.20646122981E+03  0.00000000000E+00 0. -1.
         -5    1    5    5    0  501  0.35938182712E+02 -0.47098612766E+02 -0.54214385902E+02  0.80443283994E+02  0.47000000000E+01 0.  1.
         13    1    6    6    0    0 -0.19637644672E+02  0.85912669867E+01 -0.38810455277E+01  0.21783238306E+02  0.00000000000E+00 0. -1.
        -14    1    6    6    0    0 -0.99223281682E+02 -0.15036117518E+03 -0.41657167496E+02  0.18490284539E+03  0.00000000000E+00 0.  1.
</event>
<event>
12    1  0.2689284E-002  0.1986364E+03  0.7818608E-02  0.1150895E+00
          2   -1    0    0  502    0  0.00000000000E+00  0.00000000000E+00  0.99580491360E+03  0.99580491360E+03  0.00000000000E+00 0.  1.
         -2   -1    0    0    0  501 -0.00000000000E+00 -0.00000000000E+00 -0.39630850305E+02  0.39630850305E+02  0.00000000000E+00 0. -1.
          6    2    1    2  502    0 -0.12668989672E+02  0.97770746714E+02  0.48687912173E+03  0.52608077558E+03  0.17317644484E+03 0.  0.
         24    2    3    3    0    0 -0.52747022824E+02  0.11991775824E+03  0.36172388292E+03  0.39272912519E+03  0.78927062145E+02 0.  0.
         -6    2    1    2    0  501  0.12668989672E+02 -0.97770746714E+02  0.46929494156E+03  0.50935498832E+03  0.17171237503E+03 0.  0.
        -24    2    5    5    0    0  0.44455231589E+02 -0.12408027583E+03  0.37652158836E+03  0.40771079733E+03  0.84186728721E+02 0.  0.
          5    1    3    3  502    0  0.40078033152E+02 -0.22147011525E+02  0.12515523881E+03  0.13335165039E+03  0.47000000000E+01 0. -1.
        -11    1    4    4    0    0 -0.56811160764E+02  0.49066979410E+02  0.12715555873E+03  0.14766046380E+03  0.00000000000E+00 0.  1.
         12    1    4    4    0    0  0.40641379399E+01  0.70850778830E+02  0.23456832420E+03  0.24506866139E+03  0.00000000000E+00 0. -1.
         -5    1    5    5    0  501 -0.31786241917E+02  0.26309529119E+02  0.92773353206E+02  0.10164419099E+03  0.47000000000E+01 0.  1.
         13    1    6    6    0    0 -0.10622530810E+02  0.79522320854E+00  0.47214549324E+01  0.11651724226E+02  0.00000000000E+00 0. -1.
        -14    1    6    6    0    0  0.55077762400E+02 -0.12487549904E+03  0.37180013343E+03  0.39605907310E+03  0.00000000000E+00 0.  1.
</event>
<event>
12    1  0.2689284E-002  0.2081241E+03  0.7818608E-02  0.1143060E+00
         -3   -1    0    0    0  501 -0.00000000000E+00  0.00000000000E+00  0.99470755201E+03  0.99470755201E+03  0.00000000000E+00 0.  1.
          3   -1    0    0  502    0  0.00000000000E+00 -0.00000000000E+00 -0.47114195410E+02  0.47114195410E+02  0.00000000000E+00 0. -1.
          6    2    1    2  502    0 -0.10436109343E+03  0.77401144920E+02  0.31527913860E+03  0.37359654849E+03  0.15261477896E+03 0.  0.
         24    2    3    3    0    0 -0.51987915643E-01  0.37828364660E+02  0.14704405959E+03  0.17167694509E+03  0.80125090574E+02 0.  0.
         -6    2    1    2    0  501  0.10436109343E+03 -0.77401144920E+02  0.63231421800E+03  0.66822519892E+03  0.17268894328E+03 0.  0.
        -24    2    5    5    0    0  0.18301629975E+02 -0.63451117219E+02  0.22585229219E+03  0.25249184489E+03  0.91552607345E+02 0.  0.
          5    1    3    3  502    0 -0.10430910551E+03  0.39572780260E+02  0.16823507901E+03  0.20191960340E+03  0.47000000000E+01 0. -1.
        -11    1    4    4    0    0 -0.30161556590E+02 -0.20162465785E+00  0.98649655206E+02  0.10315771721E+03  0.00000000000E+00 0.  1.
         12    1    4    4    0    0  0.30109568674E+02  0.38029989317E+02  0.48394404383E+02  0.68519227877E+02  0.00000000000E+00 0. -1.
         -5    1    5    5    0  501  0.86059463453E+02 -0.13950027701E+02  0.40646192581E+03  0.41573335403E+03  0.47000000000E+01 0.  1.
         11    1    6    6    0    0 -0.29397345560E+02 -0.11728371613E+02  0.12871842022E+03  0.13255259458E+03  0.00000000000E+00 0. -1.
        -12    1    6    6    0    0  0.47698975535E+02 -0.51722745606E+02  0.97133871975E+02  0.11993925031E+03  0.00000000000E+00 0.  1.
</event>
<event>
12    1  0.2689284E-002  0.2370565E+03  0.7818608E-02  0.1121769E+00
          1   -1    0    0  502    0  0.00000000000E+00  0.00000000000E+00  0.76612301811E+03  0.76612301811E+03  0.00000000000E+00 0.  1.
         -1   -1    0    0    0  501 -0.00000000000E+00 -0.00000000000E+00 -0.74795108173E+02  0.74795108173E+02  0.00000000000E+00 0. -1.
          6    2    1    2  502    0 -0.11105817412E+03  0.11967595702E+03  0.28743351475E+03  0.37266430685E+03  0.17205931382E+03 0.  0.
         24    2    3    3    0    0 -0.90347063949E+02  0.10644754875E+03  0.30315301258E+03  0.34311547469E+03  0.79578937776E+02 0.  0.
         -6    2    1    2    0  501  0.11105817412E+03 -0.11967595702E+03  0.40389439519E+03  0.46825381943E+03  0.17168198572E+03 0.  0.
        -24    2    5    5    0    0  0.11342919391E+03 -0.12542159697E+03  0.23949220847E+03  0.30366705474E+03  0.79122709772E+02 0.  0.
          5    1    3    3  502    0 -0.20711110170E+02  0.13228408275E+02 -0.15719497831E+02  0.29548832160E+02  0.47000000000E+01 0. -1.
        -13    1    4    4    0    0 -0.10532490049E+03  0.93515344405E+02  0.26240911674E+03  0.29782041376E+03  0.00000000000E+00 0.  1.
         14    1    4    4    0    0  0.14977836543E+02  0.12932204341E+02  0.40743895841E+02  0.45295060933E+02  0.00000000000E+00 0. -1.
         -5    1    5    5    0  501 -0.23710197910E+01  0.57456399444E+01  0.16440218672E+03  0.16458676469E+03  0.47000000000E+01 0.  1.
         13    1    6    6    0    0  0.83598059363E+01 -0.36518298913E+02  0.15025831190E+02  0.40363945716E+02  0.00000000000E+00 0. -1.
        -14    1    6    6    0    0  0.10506938797E+03 -0.88903298053E+02  0.22446637728E+03  0.26330310903E+03  0.00000000000E+00 0.  1.
</event>
<event>
12    1  0.2689284E-002  0.1983017E+03  0.7818608E-02  0.1151180E+00
         -2   -1    0    0    0  501 -0.00000000000E+00  0.00000000000E+00  0.12225161517E+03  0.12225161517E+03  0.00000000000E+00 0.  1.
          2   -1    0    0  502    0  0.00000000000E+00 -0.00000000000E+00 -0.10226967561E+04  0.10226967561E+04  0.00000000000E+00 0. -1.
          6    2    1    2  502    0  0.40705281946E+02 -0.10045504996E+03 -0.92173979756E+03  0.94213396989E+03  0.16206179619E+03 0.  0.
         24    2    3    3    0    0 -0.25812390757E+02 -0.86322998052E+02 -0.47033292010E+03  0.48560951853E+03  0.80533280392E+02 0.  0.
         -6    2    1    2    0  501 -0.40705281946E+02  0.10045504996E+03  0.21294656595E+02  0.20281440140E+03  0.17009433258E+03 0.  0.
        -24    2    5    5    0    0  0.41853476255E+02  0.33306792318E+02  0.43325670433E+00  0.94268903730E+02  0.77623338050E+02 0.  0.
          5    1    3    3  502    0  0.66517672703E+02 -0.14132051904E+02 -0.45140687746E+03  0.45652445136E+03  0.47000000000E+01 0. -1.
        -13    1    4    4    0    0  0.24878079792E+02 -0.25752806038E+02 -0.84467858860E+02  0.91743910170E+02  0.00000000000E+00 0.  1.
         14    1    4    4    0    0 -0.50690470549E+02 -0.60570192014E+02 -0.38586506124E+03  0.39386560836E+03  0.00000000000E+00 0. -1.
         -5    1    5    5    0  501 -0.82558758200E+02  0.67148257639E+02  0.20861399891E+02  0.10854549767E+03  0.47000000000E+01 0.  1.
         11    1    6    6    0    0  0.14876647384E+02 -0.23269942243E+02  0.12702882445E+02  0.30400132759E+02  0.00000000000E+00 0. -1.
        -12    1    6    6    0    0  0.26976828871E+02  0.56576734561E+02 -0.12269625741E+02  0.63868770971E+02  0.00000000000E+00 0.  1.
</event>
<event>
12    1  0.2689284E-002  0.1771936E+03  0.7818608E-02  0.1170547E+00
         -1   -1    0    0    0  501 -0.00000000000E+00  0.00000000000E+00  0.27095710125E+02  0.27095710125E+02  0.00000000000E+00 0. -1.
          1   -1    0    0  502    0  0.00000000000E+00 -0.00000000000E+00 -0.12375200455E+04  0.12375200455E+04  0.00000000000E+00 0.  1.
          6    2    1    2  502    0 -0.67763215231E+01  0.15911158167E+02 -0.46153212534E+03  0.49609567538E+03  0.18110751756E+03 0.  0.
         24    2    3    3    0    0 -0.74531661128E+02 -0.18640418045E+02 -0.24070686411E+03  0.26249241457E+03  0.71133955179E+02 0.  0.
         -6    2    1    2    0  501  0.67763215231E+01 -0.15911158167E+02 -0.74889221005E+03  0.76852008026E+03  0.17171047728E+03 0.  0.
        -24    2    5    5    0    0 -0.90387250259E+01  0.35123876753E+02 -0.65182681169E+03  0.65762160397E+03  0.79199724078E+02 0.  0.
          5    1    3    3  502    0  0.67755339605E+02  0.34551576211E+02 -0.22082526123E+03  0.23360326081E+03  0.47000000000E+01 0. -1.
        -11    1    4    4    0    0 -0.74061616530E+02 -0.17816397531E+02 -0.24578908763E+03  0.25732240995E+03  0.00000000000E+00 0.  1.
         12    1    4    4    0    0 -0.47004459796E+00 -0.82402051396E+00  0.50822235247E+01  0.51700046119E+01  0.00000000000E+00 0. -1.
         -5    1    5    5    0  501  0.15815046549E+02 -0.51035034920E+02 -0.97065398352E+02  0.11089847629E+03  0.47000000000E+01 0.  1.
         13    1    6    6    0    0 -0.35344730994E+02  0.28501826191E+02 -0.20481592160E+03  0.20978838349E+03  0.00000000000E+00 0. -1.
        -14    1    6    6    0    0  0.26306005969E+02  0.66220505626E+01 -0.44701089009E+03  0.44783322048E+03  0.00000000000E+00 0.  1.
</event>
<event>
12    1  0.2689284E-002  0.1837969E+03  0.7818608E-02  0.1164178E+00
         -2   -1    0    0    0  501 -0.00000000000E+00  0.00000000000E+00  0.17806270956E+02  0.17806270956E+02  0.00000000000E+00 0. -1.
          2   -1    0    0  502    0  0.00000000000E+00 -0.00000000000E+00 -0.20738798489E+04  0.20738798489E+04  0.00000000000E+00 0.  1.
          6    2    1    2  502    0 -0.10052230780E+02  0.58720043511E+02 -0.72542515970E+03  0.74847533728E+03  0.17442642384E+03 0.  0.
         24    2    3    3    0    0 -0.51627814182E+02 -0.16829192647E+02 -0.38756865408E+03  0.39975578720E+03  0.81526528505E+02 0.  0.
         -6    2    1    2    0  501  0.10052230780E+02 -0.58720043511E+02 -0.13306484182E+04  0.13432107825E+04  0.17332311618E+03 0.  0.
        -24    2    5    5    0    0  0.97801451392E+01 -0.38199108755E+01 -0.11814226845E+04  0.11841368746E+04  0.79437619077E+02 0.  0.
          5    1    3    3  502    0  0.41575583401E+02  0.75549236158E+02 -0.33785650562E+03  0.34871955008E+03  0.47000000000E+01 0. -1.
        -13    1    4    4    0    0 -0.54237174677E+02  0.22364145760E+02 -0.22962238837E+03  0.23699845437E+03  0.00000000000E+00 0.  1.
         14    1    4    4    0    0  0.26093604959E+01 -0.39193338407E+02 -0.15794626571E+03  0.16275733283E+03  0.00000000000E+00 0. -1.
         -5    1    5    5    0  501  0.27208564117E+00 -0.54900132636E+02 -0.14922573369E+03  0.15907390795E+03  0.47000000000E+01 0.  1.
         11    1    6    6    0    0 -0.37939681951E+01 -0.38750313673E+02 -0.42275539420E+03  0.42454458462E+03  0.00000000000E+00 0. -1.
        -12    1    6    6    0    0  0.13574113334E+02  0.34930402798E+02 -0.75866729032E+03  0.75959228998E+03  0.00000000000E+00 0.  1.
</event>
<event>
12    1  0.2689284E-002  0.1955170E+03  0.7818608E-02  0.1153577E+00
         -2   -1    0    0    0  501 -0.00000000000E+00  0.00000000000E+00  0.34240760392E+02  0.34240760392E+02  0.00000000000E+00 0. -1.
          2   -1    0    0  502    0  0.00000000000E+00 -0.00000000000E+00 -0.11690504939E+04  0.11690504939E+04  0.00000000000E+00 0.  1.
          6    2    1    2  502    0  0.55322587104E+02 -0.70826857494E+02 -0.44057016101E+03  0.48212596898E+03  0.17397227023E+03 0.  0.
         24    2    3    3    0    0  0.10232601164E+03 -0.31980974409E+02 -0.32988571128E+03  0.35566861664E+03  0.78626884529E+02 0.  0.
         -6    2    1    2    0  501 -0.55322587104E+02  0.70826857494E+02 -0.69423957249E+03  0.72116528530E+03  0.17330248794E+03 0.  0.
        -24    2    5    5    0    0 -0.92439930926E+02  0.89114114467E+02 -0.58447075013E+03  0.60376253686E+03  0.80228903309E+02 0.  0.
          5    1    3    3  502    0 -0.47003424536E+02 -0.38845883085E+02 -0.11068444973E+03  0.12645735234E+03  0.47000000000E+01 0. -1.
        -11    1    4    4    0    0  0.13995911792E+02 -0.36046080576E+02 -0.15434664337E+03  0.15911659810E+03  0.00000000000E+00 0.  1.
         12    1    4    4    0    0  0.88330099847E+02  0.40651061676E+01 -0.17553906791E+03  0.19655201853E+03  0.00000000000E+00 0. -1.
         -5    1    5    5    0  501  0.37117343822E+02 -0.18287256973E+02 -0.10976882235E+03  0.11740274844E+03  0.47000000000E+01 0.  1.
         13    1    6    6    0    0 -0.59725309287E+02  0.73414308110E+02 -0.24974291265E+03  0.26707357717E+03  0.00000000000E+00 0. -1.
        -14    1    6    6    0    0 -0.32714621640E+02  0.15699806357E+02 -0.33472783749E+03  0.33668895969E+03  0.00000000000E+00 0.  1.
</event>
<event>
12    1  0.2689284E-002  0.1943501E+03  0.7818608E-02  0.1154595E+00
         -1   -1    0    0    0  501 -0.00000000000E+00  0.00000000000E+00  0.77432324088E+02  0.77432324088E+02  0.00000000000E+00 0.  1.
          1   -1    0    0  502    0  0.00000000000E+00 -0.00000000000E+00 -0.78279208443E+03  0.78279208443E+03  0.00000000000E+00 0. -1.
          6    2    1    2  502    0 -0.51431087209E+02  0.71568591201E+02 -0.86143214935E+02  0.21054341350E+03  0.17070634292E+03 0.  0.
         24    2    3    3    0    0 -0.94145914620E+02  0.79309603877E+02 -0.53852116321E+02  0.15623609533E+03  0.79725783429E+02 0.  0.
         -6    2    1    2    0  501  0.51431087209E+02 -0.71568591201E+02 -0.61921654541E+03  0.64968099501E+03  0.17575279571E+03 0.  0.
        -24    2    5    5    0    0 -0.87499065421E+01  0.22497687261E+02 -0.27426905936E+03  0.28707780296E+03  0.81286168795E+02 0.  0.
          5    1    3    3  502    0  0.42714827411E+02 -0.77410126761E+01 -0.32291098614E+02  0.54307318178E+02  0.47000000000E+01 0. -1.
        -13    1    4    4    0    0 -0.33321415488E+02  0.17726241133E+02  0.19766586794E+02  0.42605801346E+02  0.00000000000E+00 0.  1.
         14    1    4    4    0    0 -0.60824499132E+02  0.61583362745E+02 -0.73618703115E+02  0.11363029398E+03  0.00000000000E+00 0. -1.
         -5    1    5    5    0  501  0.60180993751E+02 -0.94066278462E+02 -0.34494748605E+03  0.36260319205E+03  0.47000000000E+01 0.  1.
         13    1    6    6    0    0  0.25182910545E+02  0.18946427301E+02 -0.22471635512E+03  0.22691537266E+03  0.00000000000E+00 0. -1.
        -14    1    6    6    0    0 -0.33932817087E+02  0.35512599601E+01 -0.49552704233E+02  0.60162430299E+02  0.00000000000E+00 0.  1.
</event>
<event>
12    1  0.2689284E-002  0.1727508E+03  0.7818608E-02  0.1175009E+00
         -2   -1    0    0    0  501 -0.00000000000E+00  0.00000000000E+00  0.40159202983E+02  0.40159202983E+02  0.00000000000E+00 0. -1.
          2   -1    0    0  502    0  0.00000000000E+00 -0.00000000000E+00 -0.74463305444E+03  0.74463305444E+03  0.00000000000E+00 0.  1.
          6    2    1    2  502    0 -0.20807490278E+02 -0.28146328108E+01 -0.37186907114E+03  0.41046361896E+03  0.17249029716E+03 0.  0.
         24    2    3    3    0    0 -0.21688258064E+02  0.61386199384E+02 -0.16775638849E+03  0.19643885446E+03  0.78786874841E+02 0.  0.
         -6    2    1    2    0  501  0.20807490278E+02  0.28146328108E+01 -0.33260478032E+03  0.37432863846E+03  0.17045561261E+03 0.  0.
        -24    2    5    5    0    0 -0.21143863082E+02 -0.54674270582E+02 -0.19514785917E+03  0.21946939516E+03  0.81533978594E+02 0.  0.
          5    1    3    3  502    0  0.88076778519E+00 -0.64200832195E+02 -0.20411268265E+03  0.21402476451E+03  0.47000000000E+01 0. -1.
        -13    1    4    4    0    0  0.63396433949E+01  0.19703737369E+02 -0.13476151350E+03  0.13634182728E+03  0.00000000000E+00 0.  1.
         14    1    4    4    0    0 -0.28027901458E+02  0.41682462015E+02 -0.32994874992E+02  0.60097027177E+02  0.00000000000E+00 0. -1.
         -5    1    5    5    0  501  0.41951353361E+02  0.57488903393E+02 -0.13745692115E+03  0.15485924330E+03  0.47000000000E+01 0.  1.
         13    1    6    6    0    0 -0.42898527558E+02 -0.67181608251E+01 -0.57213867223E+02  0.71825092789E+02  0.00000000000E+00 0. -1.
        -14    1    6    6    0    0  0.21754664476E+02 -0.47956109757E+02 -0.13793399195E+03  0.14764430238E+03  0.00000000000E+00 0.  1.
</event>
<event>
12    1  0.2689284E-002  0.1816048E+03  0.7818608E-02  0.1166259E+00
          1   -1    0    0  502    0  0.00000000000E+00  0.00000000000E+00  0.63570347965E+03  0.63570347965E+03  0.00000000000E+00 0. -1.
         -1   -1    0    0    0  501 -0.00000000000E+00 -0.00000000000E+00 -0.55099867949E+02  0.55099867949E+02  0.00000000000E+00 0.  1.
          6    2    1    2  502    0  0.12795390559E+02  0.54863673359E+02  0.20864793709E+03  0.27740624635E+03  0.17391526439E+03 0.  0.
         24    2    3    3    0    0 -0.60355260371E+02  0.34425303666E+02  0.13236970323E+03  0.16966023182E+03  0.80218432667E+02 0.  0.
         -6    2    1    2    0  501 -0.12795390559E+02 -0.54863673359E+02  0.37195567460E+03  0.41339710124E+03  0.17138376461E+03 0.  0.
        -24    2    5    5    0    0  0.29096460607E+02 -0.23604619993E+02  0.10290195022E+03  0.13927294650E+03  0.86048591864E+02 0.  0.
          5    1    3    3  502    0  0.73150650930E+02  0.20438369692E+02  0.76278233860E+02  0.10774601453E+03  0.47000000000E+01 0. -1.
        -13    1    4    4    0    0 -0.20374217780E+02  0.47190785855E+02  0.11152301273E+03  0.12279845841E+03  0.00000000000E+00 0.  1.
         14    1    4    4    0    0 -0.39981042591E+02 -0.12765482188E+02  0.20846690509E+02  0.46861773412E+02  0.00000000000E+00 0. -1.
         -5    1    5    5    0  501 -0.41891851166E+02 -0.31259053366E+02  0.26905372438E+03  0.27412415475E+03  0.47000000000E+01 0.  1.
         13    1    6    6    0    0 -0.11756062284E+02 -0.34485428067E+02  0.86617641948E+02  0.93968428986E+02  0.00000000000E+00 0. -1.
        -14    1    6    6    0    0  0.40852522891E+02  0.10880808075E+02  0.16284308272E+02  0.45304517510E+02  0.00000000000E+00 0.  1.
</event>
<event>
12    1  0.2689284E-002  0.1889572E+03  0.7818608E-02  0.1159405E+00
         -2   -1    0    0    0  501 -0.00000000000E+00  0.00000000000E+00  0.12603787616E+03  0.12603787616E+03  0.00000000000E+00 0.  1.
          2   -1    0    0  502    0  0.00000000000E+00 -0.00000000000E+00 -0.35046904770E+03  0.35046904770E+03  0.00000000000E+00 0. -1.
          6    2    1    2  502    0  0.70725961438E+02 -0.29203191770E+02 -0.83099452664E+01  0.18998070110E+03  0.17369117298E+03 0.  0.
         24    2    3    3    0    0  0.87177193675E+02 -0.54852718925E+02  0.36822490526E+02  0.13532205087E+03  0.79671059811E+02 0.  0.
         -6    2    1    2    0  501 -0.70725961438E+02  0.29203191770E+02 -0.21612122628E+03  0.28652622276E+03  0.17185430995E+03 0.  0.
        -24    2    5    5    0    0 -0.10901484482E+03  0.49219291938E+02 -0.17456369881E+03  0.22639469237E+03  0.80469228311E+02 0.  0.
          5    1    3    3  502    0 -0.16451232237E+02  0.25649527154E+02 -0.45132435793E+02  0.54658650239E+02  0.47000000000E+01 0. -1.
        -11    1    4    4    0    0  0.15313321184E+02 -0.55401295560E+02  0.86250315963E+01  0.58122220582E+02  0.00000000000E+00 0.  1.
         12    1    4    4    0    0  0.71863872491E+02  0.54857663501E+00  0.28197458930E+02  0.77199830283E+02  0.00000000000E+00 0. -1.
         -5    1    5    5    0  501  0.38288883378E+02 -0.20016100168E+02 -0.41557527473E+02  0.60131530381E+02  0.47000000000E+01 0.  1.
         11    1    6    6    0    0 -0.76336921838E+02  0.16877079292E+02 -0.16014604322E+03  0.17821031563E+03  0.00000000000E+00 0. -1.
        -12    1    6    6    0    0 -0.32677922978E+02  0.32342212646E+02 -0.14417655592E+02  0.48184376740E+02  0.00000000000E+00 0.  1.
</event>
<event>
12    1  0.2689284E-002  0.1976442E+03  0.7818608E-02  0.1151742E+00
         -1   -1    0    0    0  501 -0.00000000000E+00  0.00000000000E+00  0.10074632561E+04  0.10074632561E+04  0.00000000000E+00 0. -1.
          1   -1    0    0  502    0  0.00000000000E+00 -0.00000000000E+00 -0.39107992432E+02  0.39107992432E+02  0.00000000000E+00 0.  1.
          6    2    1    2  502    0  0.97040394876E+02  0.12952741506E+02  0.43552394192E+03  0.47822380113E+03  0.17155841056E+03 0.  0.
         24    2    3    3    0    0  0.11179353074E+03 -0.30849466009E+02  0.22323747827E+03  0.26091314550E+03  0.69218601007E+02 0.  0.
         -6    2    1    2    0  501 -0.97040394876E+02 -0.12952741506E+02  0.53283132180E+03  0.56834744745E+03  0.17182837886E+03 0.  0.
        -24    2    5    5    0    0 -0.29329686686E+01  0.27824352033E+02  0.32186009726E+03  0.33372023971E+03  0.83621045896E+02 0.  0.
          5    1    3    3  502    0 -0.14753135861E+02  0.43802207515E+02  0.21228646365E+03  0.21731065563E+03  0.47000000000E+01 0. -1.
        -11    1    4    4    0    0  0.32210990774E+02 -0.33318326355E+02  0.13157931942E+03  0.13950188564E+03  0.00000000000E+00 0.  1.
         12    1    4    4    0    0  0.79582539962E+02  0.24688603462E+01  0.91658158845E+02  0.12141125986E+03  0.00000000000E+00 0. -1.
         -5    1    5    5    0  501 -0.94107426207E+02 -0.40777093539E+02  0.21097122454E+03  0.23462720774E+03  0.47000000000E+01 0.  1.
         13    1    6    6    0    0 -0.10190383980E+02  0.52887846524E+02  0.14009648635E+03  0.15009328340E+03  0.00000000000E+00 0. -1.
        -14    1    6    6    0    0  0.72574153116E+01 -0.25063494491E+02  0.18176361091E+03  0.18362695631E+03  0.00000000000E+00 0.  1.
</event>
<event>
12    1  0.2689284E-002  0.2488028E+03  0.7818608E-02  0.1114064E+00
         -2   -1    0    0    0  501 -0.00000000000E+00  0.00000000000E+00  0.63946390319E+02  0.63946390319E+02  0.00000000000E+00 0. -1.
          2   -1    0    0  502    0  0.00000000000E+00 -0.00000000000E+00 -0.10261366732E+04  0.10261366732E+04  0.00000000000E+00 0.  1.
          6    2    1    2  502    0  0.17874664942E+03 -0.81313315966E+00 -0.61141015260E+03  0.66022541862E+03  0.17356325310E+03 0.  0.
         24    2    3    3    0    0  0.19966422115E+03 -0.10914155812E+02 -0.48246552747E+03  0.52912094953E+03  0.84918043005E+02 0.  0.
         -6    2    1    2    0  501 -0.17874664942E+03  0.81313315966E+00 -0.35078013028E+03  0.42985764490E+03  0.17256844791E+03 0.  0.
        -24    2    5    5    0    0 -0.70637133088E+02 -0.56196516560E+02 -0.22053557888E+03  0.25118615626E+03  0.79441113412E+02 0.  0.
          5    1    3    3  502    0 -0.20917571733E+02  0.10101022652E+02 -0.12894462513E+03  0.13110446909E+03  0.47000000000E+01 0. -1.
        -11    1    4    4    0    0  0.91371247589E+02 -0.36841687823E+02 -0.29568826488E+03  0.31166899884E+03  0.00000000000E+00 0.  1.
         12    1    4    4    0    0  0.10829297356E+03  0.25927532012E+02 -0.18677726259E+03  0.21745195069E+03  0.00000000000E+00 0. -1.
         -5    1    5    5    0  501 -0.10810951633E+03  0.57009649719E+02 -0.13024455140E+03  0.17867148864E+03  0.47000000000E+01 0.  1.
         13    1    6    6    0    0 -0.83599202395E+02 -0.60550037021E+02 -0.20973889309E+03  0.23376384857E+03  0.00000000000E+00 0. -1.
        -14    1    6    6    0    0  0.12962069306E+02  0.43535204617E+01 -0.10796685788E+02  0.17422307686E+02  0.00000000000E+00 0.  1.
</event>
<event>
12    1  0.2689284E-002  0.2082901E+03  0.7818608E-02  0.1142927E+00
          2   -1    0    0  502    0  0.00000000000E+00  0.00000000000E+00  0.23945955019E+03  0.23945955019E+03  0.00000000000E+00 0. -1.
         -2   -1    0    0    0  501 -0.00000000000E+00 -0.00000000000E+00 -0.19306545631E+03  0.19306545631E+03  0.00000000000E+00 0.  1.
          6    2    1    2  502    0 -0.73537248941E+02  0.91201333579E+02  0.76836168923E+02  0.22179825367E+03  0.17194550953E+03 0.  0.
         24    2    3    3    0    0  0.24598650708E+02  0.24356688002E+02  0.32612487588E+02  0.95004383811E+02  0.82243034535E+02 0.  0.
         -6    2    1    2    0  501  0.73537248941E+02 -0.91201333579E+02 -0.30442075050E+02  0.21072675283E+03  0.17249241780E+03 0.  0.
        -24    2    5    5    0    0 -0.13317541690E+02 -0.79976267072E+02 -0.45908223744E+02  0.12167031831E+03  0.78246668556E+02 0.  0.
          5    1    3    3  502    0 -0.98135899649E+02  0.66844645576E+02  0.44223681335E+02  0.12679386986E+03  0.47000000000E+01 0. -1.
        -11    1    4    4    0    0 -0.22277122011E+02  0.31170756797E+02  0.27914278229E+02  0.47403514357E+02  0.00000000000E+00 0.  1.
         12    1    4    4    0    0  0.46875772719E+02 -0.68140687946E+01  0.46982093591E+01  0.47600869454E+02  0.00000000000E+00 0. -1.
         -5    1    5    5    0  501  0.86854790631E+02 -0.11225066506E+02  0.15466148694E+02  0.89056434518E+02  0.47000000000E+01 0.  1.
         13    1    6    6    0    0 -0.64172055205E+01 -0.94636662146E+02 -0.31386120293E+02  0.99911795580E+02  0.00000000000E+00 0. -1.
        -14    1    6    6    0    0 -0.69003361698E+01  0.14660395074E+02 -0.14522103451E+02  0.21758522735E+02  0.00000000000E+00 0.  1.
</event>
<event>
12    1  0.2689284E-002  0.1792395E+03  0.7818608E-02  0.1168541E+00
         -2   -1    0    0    0  501 -0.00000000000E+00  0.00000000000E+00  0.19443703023E+03  0.19443703023E+03  0.00000000000E+00 0.  1.
          2   -1    0    0  502    0  0.00000000000E+00 -0.00000000000E+00 -0.16609176971E+03  0.16609176971E+03  0.00000000000E+00 0. -1.
          6    2    1    2  502    0  0.52549109374E+02  0.18907883063E+01  0.27194664600E+02  0.18200946376E+03  0.17211307660E+03 0.  0.
         24    2    3    3    0    0 -0.22172904053E+02  0.24985874730E+02  0.50507629125E+02  0.10026384233E+03  0.79911737990E+02 0.  0.
         -6    2    1    2    0  501 -0.52549109374E+02 -0.18907883063E+01  0.11505959226E+01  0.17851933618E+03  0.17059556133E+03 0.  0.
        -24    2    5    5    0    0  0.22857894508E+01 -0.35910613762E+00  0.58132127208E+02  0.99284261331E+02  0.80452883998E+02 0.  0.
          5    1    3    3  502    0  0.74722013427E+02 -0.23095086424E+02 -0.23312964525E+02  0.81745621427E+02  0.47000000000E+01 0. -1.
        -11    1    4    4    0    0 -0.45244947560E+02  0.29033330936E+02  0.11829073522E+02  0.55045132077E+02  0.00000000000E+00 0.  1.
         12    1    4    4    0    0  0.23072043507E+02 -0.40474562054E+01  0.38678555603E+02  0.45218710252E+02  0.00000000000E+00 0. -1.
         -5    1    5    5    0  501 -0.54834898824E+02 -0.15316821687E+01 -0.56981531285E+02  0.79235074853E+02  0.47000000000E+01 0.  1.
         11    1    6    6    0    0  0.85538981822E+01  0.12340762136E+02 -0.17084923491E+02  0.22745509335E+02  0.00000000000E+00 0. -1.
        -12    1    6    6    0    0 -0.62681087315E+01 -0.12699868274E+02  0.75217050699E+02  0.76538751996E+02  0.00000000000E+00 0.  1.
</event>
<event>
12    1  0.2689284E-002  0.2022134E+03  0.7818608E-02  0.1147885E+00
          2   -1    0    0  502    0  0.00000000000E+00  0.00000000000E+00  0.22559444218E+04  0.22559444218E+04  0.00000000000E+00 0. -1.
         -2   -1    0    0    0  501 -0.00000000000E+00 -0.00000000000E+00 -0.23421630199E+02  0.23421630199E+02  0.00000000000E+00 0.  1.
          6    2    1    2  502    0  0.92583405584E+02 -0.54047675613E+02  0.16562932568E+04  0.16685376267E+04  0.17093162676E+03 0.  0.
         24    2    3    3    0    0  0.50763390609E+02 -0.41605685611E+02  0.46225572664E+03  0.47369394230E+03  0.79985243999E+02 0.  0.
         -6    2    1    2    0  501 -0.92583405584E+02  0.54047675613E+02  0.57622953486E+03  0.61082842534E+03  0.17198270300E+03 0.  0.
        -24    2    5    5    0    0 -0.14597862236E+02  0.84765911848E+02  0.29033136788E+03  0.31285995907E+03  0.78680959710E+02 0.  0.
          5    1    3    3  502    0  0.41820014975E+02 -0.12441990003E+02  0.11940375301E+04  0.11948436844E+04  0.47000000000E+01 0. -1.
        -13    1    4    4    0    0  0.50172930846E+02 -0.32498212896E+00  0.35902194403E+03  0.36251094452E+03  0.00000000000E+00 0.  1.
         14    1    4    4    0    0  0.59045976296E+00 -0.41280703482E+02  0.10323378261E+03  0.11118299778E+03  0.00000000000E+00 0. -1.
         -5    1    5    5    0  501 -0.77985543349E+02 -0.30718236235E+02  0.28589816698E+03  0.29796846627E+03  0.47000000000E+01 0.  1.
         13    1    6    6    0    0 -0.32481366554E+02  0.91534343887E+02  0.23337344458E+03  0.25277804478E+03  0.00000000000E+00 0. -1.
        -14    1    6    6    0    0  0.17883504318E+02 -0.67684320387E+01  0.56957923301E+02  0.60081914298E+02  0.00000000000E+00 0.  1.
</event>
<event>
12    1  0.2689284E-002  0.1963365E+03  0.7818608E-02  0.1152867E+00
         -2   -1    0    0    0  501 -0.00000000000E+00  0.00000000000E+00  0.11563925290E+03  0.11563925290E+03  0.00000000000E+00 0.  1.
          2   -1    0    0  502    0  0.00000000000E+00 -0.00000000000E+00 -0.33684847147E+03  0.33684847147E+03  0.00000000000E+00 0. -1.
          6    2    1    2  502    0  0.24976420813E+02 -0.90819975957E+02 -0.13407550249E+03  0.23837451122E+03  0.17313023306E+03 0.  0.
         24    2    3    3    0    0  0.35657133790E+02 -0.29528166886E+02 -0.14713857907E+03  0.17462894307E+03  0.81866736082E+02 0.  0.
         -6    2    1    2    0  501 -0.24976420813E+02  0.90819975957E+02 -0.87133716085E+02  0.21411321315E+03  0.17140622491E+03 0.  0.
        -24    2    5    5    0    0  0.87191171200E+01 -0.99170809714E+01 -0.67662616779E+02  0.10601808087E+03  0.80543356418E+02 0.  0.
          5    1    3    3  502    0 -0.10680712977E+02 -0.61291809072E+02  0.13063076580E+02  0.63745568150E+02  0.47000000000E+01 0. -1.
        -11    1    4    4    0    0  0.28868792879E+02 -0.56455493513E+02 -0.80778668140E+02  0.10269285845E+03  0.00000000000E+00 0.  1.
         12    1    4    4    0    0  0.67883409102E+01  0.26927326627E+02 -0.66359910932E+02  0.71936084620E+02  0.00000000000E+00 0. -1.
         -5    1    5    5    0  501 -0.33695537933E+02  0.10073705693E+03 -0.19471099306E+02  0.10809513228E+03  0.47000000000E+01 0.  1.
         13    1    6    6    0    0  0.17210437773E+02 -0.21806132981E+02 -0.81371962867E+02  0.85983155006E+02  0.00000000000E+00 0. -1.
        -14    1    6    6    0    0 -0.84913206534E+01  0.11889052009E+02  0.13709346088E+02  0.20034925862E+02  0.00000000000E+00 0.  1.
</event>
<event>
12    1  0.2689284E-002  0.1852213E+03  0.7818608E-02  0.1162843E+00
          2   -1    0    0  502    0  0.00000000000E+00  0.00000000000E+00  0.93252556299E+03  0.93252556299E+03  0.00000000000E+00 0. -1.
         -2   -1    0    0    0  501 -0.00000000000E+00 -0.00000000000E+00 -0.42618204563E+02  0.42618204563E+02  0.00000000000E+00 0.  1.
          6    2    1    2  502    0 -0.18793466080E+02  0.67006392313E+02  0.26473303955E+03  0.32312169291E+03  0.17170030641E+03 0.  0.
         24    2    3    3    0    0  0.35620858310E+02  0.82916416774E+02  0.13436245291E+03  0.18088025226E+03  0.80749112611E+02 0.  0.
         -6    2    1    2    0  501  0.18793466080E+02 -0.67006392313E+02  0.62517431888E+03  0.65202207465E+03  0.17160071639E+03 0.  0.
        -24    2    5    5    0    0  0.12096421665E+02 -0.83191154026E+02  0.62283693056E+03  0.63373682650E+03  0.81421321973E+02 0.  0.
          5    1    3    3  502    0 -0.54414324390E+02 -0.15910024461E+02  0.13037058664E+03  0.14224144065E+03  0.47000000000E+01 0. -1.
        -11    1    4    4    0    0 -0.45640958411E+01  0.80280853294E+02  0.82316120049E+02  0.11507297683E+03  0.00000000000E+00 0.  1.
         12    1    4    4    0    0  0.40184954151E+02  0.26355634796E+01  0.52046332861E+02  0.65807275428E+02  0.00000000000E+00 0. -1.
         -5    1    5    5    0  501  0.66970444147E+01  0.16184761713E+02  0.23373883207E+01  0.18285248146E+02  0.47000000000E+01 0.  1.
         11    1    6    6    0    0 -0.20639215693E+02 -0.65322135664E+01  0.28298226013E+03  0.28380910236E+03  0.00000000000E+00 0. -1.
        -12    1    6    6    0    0  0.32735637358E+02 -0.76658940460E+02  0.33985467043E+03  0.34992772414E+03  0.00000000000E+00 0.  1.
</event>
<event>
12    1  0.2689284E-002  0.2889083E+03  0.7818608E-02  0.1090921E+00
         -1   -1    0    0    0  501 -0.00000000000E+00  0.00000000000E+00  0.86589840814E+02  0.86589840814E+02  0.00000000000E+00 0.  1.
          1   -1    0    0  502    0  0.00000000000E+00 -0.00000000000E+00 -0.10017032038E+04  0.10017032038E+04  0.00000000000E+00 0. -1.
          6    2    1    2  502    0 -0.38076637203E+02  0.22860480120E+03 -0.35117550802E+03  0.45443531456E+03  0.17168934811E+03 0.  0.
         24    2    3    3    0    0 -0.91432505133E+02  0.16206823628E+03 -0.25115776250E+03  0.32290736113E+03  0.81011888036E+02 0.  0.
         -6    2    1    2    0  501  0.38076637203E+02 -0.22860480120E+03 -0.56393785495E+03  0.63385773003E+03  0.17331973994E+03 0.  0.
        -24    2    5    5    0    0  0.81895208164E+02 -0.15156966319E+03 -0.29714993581E+03  0.35269520862E+03  0.80097677336E+02 0.  0.
          5    1    3    3  502    0  0.53355867930E+02  0.66536564919E+02 -0.10001774553E+03  0.13152795343E+03  0.47000000000E+01 0. -1.
        -11    1    4    4    0    0  0.15090368450E+02  0.26959183694E+02 -0.38988334840E+02  0.49745422493E+02  0.00000000000E+00 0.  1.
         12    1    4    4    0    0 -0.10652287358E+03  0.13510905259E+03 -0.21216942766E+03  0.27316193864E+03  0.00000000000E+00 0. -1.
         -5    1    5    5    0  501 -0.43818570961E+02 -0.77035138011E+02 -0.26678791914E+03  0.28116252141E+03  0.47000000000E+01 0.  1.
         13    1    6    6    0    0  0.48463261141E+02 -0.54027531614E+02 -0.19273802654E+03  0.20595050068E+03  0.00000000000E+00 0. -1.
        -14    1    6    6    0    0  0.33431947022E+02 -0.97542131574E+02 -0.10441190926E+03  0.14674470795E+03  0.00000000000E+00 0.  1.
</event>
<event>
12    1  0.2689284E-002  0.1975992E+03  0.7818608E-02  0.1151780E+00
         -1   -1    0    0    0  501 -0.00000000000E+00  0.00000000000E+00  0.14407074664E+03  0.14407074664E+03  0.00000000000E+00 0. -1.
          1   -1    0    0  502    0  0.00000000000E+00 -0.00000000000E+00 -0.30821040061E+03  0.30821040061E+03  0.00000000000E+00 0.  1.
          6    2    1    2  502    0  0.89204434642E+02  0.39294004070E+02 -0.16061873071E+03  0.25462365993E+03  0.17185279056E+03 0.  0.
         24    2    3    3    0    0 -0.14485431969E+02 -0.68706393009E+01 -0.40794620742E+02  0.89509547671E+02  0.78043094628E+02 0.  0.
         -6    2    1    2    0  501 -0.89204434642E+02 -0.39294004070E+02 -0.35209232550E+01  0.19765748733E+03  0.17191461683E+03 0.  0.
        -24    2    5    5    0    0 -0.84976537827E+02  0.22590513527E+02 -0.39927031519E+02  0.12558069946E+03  0.80280763258E+02 0.  0.
          5    1    3    3  502    0  0.10368986661E+03  0.46164643371E+02 -0.11982410997E+03  0.16511411225E+03  0.47000000000E+01 0. -1.
        -11    1    4    4    0    0 -0.39379131895E+02 -0.10737296144E+02 -0.48286907281E+02  0.63226821619E+02  0.00000000000E+00 0.  1.
         12    1    4    4    0    0  0.24893699926E+02  0.38666568435E+01  0.74922865387E+01  0.26282726052E+02  0.00000000000E+00 0. -1.
         -5    1    5    5    0  501 -0.42278968144E+01 -0.61884517597E+02  0.36406108264E+02  0.72076787863E+02  0.47000000000E+01 0.  1.
         13    1    6    6    0    0 -0.34854791973E+02  0.48937961014E+02 -0.81020383461E+01  0.60625271769E+02  0.00000000000E+00 0. -1.
        -14    1    6    6    0    0 -0.50121745854E+02 -0.26347447487E+02 -0.31824993173E+02  0.64955427695E+02  0.00000000000E+00 0.  1.
</event>
<event>
12    1  0.2689284E-002  0.1816643E+03  0.7818608E-02  0.1166202E+00
          2   -1    0    0  502    0  0.00000000000E+00  0.00000000000E+00  0.11734866133E+04  0.11734866133E+04  0.00000000000E+00 0.  1.
         -2   -1    0    0    0  501 -0.00000000000E+00 -0.00000000000E+00 -0.37712936253E+02  0.37712936253E+02  0.00000000000E+00 0. -1.
          6    2    1    2  502    0 -0.57319815953E+02 -0.41754636329E+01  0.86966980390E+03  0.88813102644E+03  0.17072831199E+03 0.  0.
         24    2    3    3    0    0 -0.69474633507E+02  0.16507657023E+02  0.30631559336E+03  0.32424665212E+03  0.78787189536E+02 0.  0.
         -6    2    1    2    0  501  0.57319815953E+02  0.41754636329E+01  0.26610387316E+03  0.32306852312E+03  0.17395115270E+03 0.  0.
        -24    2    5    5    0    0  0.44319467816E+02 -0.35824854827E+02  0.62158264848E+02  0.11477801523E+03  0.77863389603E+02 0.  0.
          5    1    3    3  502    0  0.12154817554E+02 -0.20683120656E+02  0.56335421054E+03  0.56388437432E+03  0.47000000000E+01 0. -1.
        -13    1    4    4    0    0  0.60346071428E-01 -0.86339460501E+01  0.16071809343E+03  0.16094985003E+03  0.00000000000E+00 0.  1.
         14    1    4    4    0    0 -0.69534979578E+02  0.25141603073E+02  0.14559749992E+03  0.16329680209E+03  0.00000000000E+00 0. -1.
         -5    1    5    5    0  501  0.13000348136E+02  0.40000318459E+02  0.20394560831E+03  0.20829050789E+03  0.47000000000E+01 0.  1.
         11    1    6    6    0    0  0.39356305825E+02 -0.39976598548E+02  0.78910814267E+02  0.96819232841E+02  0.00000000000E+00 0. -1.
        -12    1    6    6    0    0  0.49631619918E+01  0.41517437209E+01 -0.16752549419E+02  0.17958782390E+02  0.00000000000E+00 0.  1.
</event>
<event>
12    1  0.2689284E-002  0.2198611E+03  0.7818608E-02  0.1133987E+00
          1   -1    0    0  502    0  0.00000000000E+00  0.00000000000E+00  0.68257453994E+02  0.68257453994E+02  0.00000000000E+00 0. -1.
         -1   -1    0    0    0  501 -0.00000000000E+00 -0.00000000000E+00 -0.71259011085E+03  0.71259011085E+03  0.00000000000E+00 0.  1.
          6    2    1    2  502    0 -0.13132652558E+03  0.22209615526E+02 -0.35225001788E+03  0.41501441557E+03  0.17440460629E+03 0.  0.
         24    2    3    3    0    0 -0.85909590622E+02 -0.30733173730E+02 -0.31147428387E+03  0.33407995197E+03  0.79171958842E+02 0.  0.
         -6    2    1    2    0  501  0.13132652558E+03 -0.22209615526E+02 -0.29208263898E+03  0.36583314927E+03  0.17544714808E+03 0.  0.
        -24    2    5    5    0    0  0.66411277899E+02 -0.23199720928E+02 -0.50664409968E+02  0.11579351043E+03  0.76763075355E+02 0.  0.
          5    1    3    3  502    0 -0.45416934959E+02  0.52942789255E+02 -0.40775734008E+02  0.80934463605E+02  0.47000000000E+01 0. -1.
        -13    1    4    4    0    0 -0.69626827200E+02 -0.56797349346E+02 -0.24051837688E+03  0.25675459797E+03  0.00000000000E+00 0.  1.
         14    1    4    4    0    0 -0.16282763423E+02  0.26064175616E+02 -0.70955906985E+02  0.77325354000E+02  0.00000000000E+00 0. -1.
         -5    1    5    5    0  501  0.64915247682E+02  0.99010540248E+00 -0.24141822901E+03  0.25003963883E+03  0.47000000000E+01 0.  1.
         11    1    6    6    0    0  0.10072794101E+02 -0.43019876440E+02 -0.17884343866E+02  0.47665718346E+02  0.00000000000E+00 0. -1.
        -12    1    6    6    0    0  0.56338483798E+02  0.19820155512E+02 -0.32780066103E+02  0.68127792089E+02  0.00000000000E+00 0.  1.
</event>
<event>
12    1  0.2689284E-002  0.1862357E+03  0.7818608E-02  0.1161901E+00
          1   -1    0    0  502    0  0.00000000000E+00  0.00000000000E+00  0.90642355946E+02  0.90642355946E+02  0.00000000000E+00 0. -1.
         -1   -1    0    0    0  501 -0.00000000000E+00 -0.00000000000E+00 -0.48838970927E+03  0.48838970927E+03  0.00000000000E+00 0.  1.
          6    2    1    2  502    0 -0.67420826515E+02  0.30823893885E+00 -0.33400325424E+03  0.38265796791E+03  0.17413581970E+03 0.  0.
         24    2    3    3    0    0  0.15004432334E+02 -0.42568021229E+02 -0.13593349502E+03  0.16382923008E+03  0.79529441970E+02 0.  0.
         -6    2    1    2    0  501  0.67420826515E+02 -0.30823893885E+00 -0.63744099092E+02  0.19637409731E+03  0.17307169921E+03 0.  0.
        -24    2    5    5    0    0  0.10393838178E+03  0.26220464784E+02 -0.66261217379E+02  0.15092379645E+03  0.83046634054E+02 0.  0.
          5    1    3    3  502    0 -0.82425258849E+02  0.42876260168E+02 -0.19806975922E+03  0.21882873783E+03  0.47000000000E+01 0. -1.
        -11    1    4    4    0    0 -0.29783861395E+02 -0.31317462847E+02 -0.83037260259E+02  0.93611155693E+02  0.00000000000E+00 0.  1.
         12    1    4    4    0    0  0.44788293729E+02 -0.11250558382E+02 -0.52896234758E+02  0.70218074387E+02  0.00000000000E+00 0. -1.
         -5    1    5    5    0  501 -0.36517555262E+02 -0.26528703723E+02  0.25171182873E+01  0.45450300857E+02  0.47000000000E+01 0.  1.
         13    1    6    6    0    0  0.24367563966E+02 -0.25201943442E+02  0.43925203693E+00  0.35058651846E+02  0.00000000000E+00 0. -1.
        -14    1    6    6    0    0  0.79570817811E+02  0.51422408226E+02 -0.66700469416E+02  0.11586514461E+03  0.00000000000E+00 0.  1.
</event>
<event>
12    1  0.2689284E-002  0.1945940E+03  0.7818608E-02  0.1154382E+00
         -1   -1    0    0    0  501 -0.00000000000E+00  0.00000000000E+00  0.12566717959E+03  0.12566717959E+03  0.00000000000E+00 0. -1.
          1   -1    0    0  502    0  0.00000000000E+00 -0.00000000000E+00 -0.36287506649E+03  0.36287506649E+03  0.00000000000E+00 0.  1.
          6    2    1    2  502    0  0.18595253151E+02 -0.88212372205E+02 -0.17716384642E+02  0.19483143474E+03  0.17180864829E+03 0.  0.
         24    2    3    3    0    0  0.76853772102E+02 -0.71204995124E+02 -0.18941094326E+02  0.13394715254E+03  0.81279892970E+02 0.  0.
         -6    2    1    2    0  501 -0.18595253151E+02  0.88212372205E+02 -0.21949150226E+03  0.29371081135E+03  0.17309625961E+03 0.  0.
        -24    2    5    5    0    0 -0.21869663714E+02 -0.16904939076E+02 -0.13239941315E+03  0.15708177753E+03  0.79881293653E+02 0.  0.
          5    1    3    3  502    0 -0.58258518951E+02 -0.17007377081E+02  0.12247096841E+01  0.60884282202E+02  0.47000000000E+01 0. -1.
        -13    1    4    4    0    0  0.81349426986E+02 -0.70955779598E+02 -0.37941672699E+02  0.11442037605E+03  0.00000000000E+00 0.  1.
         14    1    4    4    0    0 -0.44956548842E+01 -0.24921552570E+00  0.19000578373E+02  0.19526776480E+02  0.00000000000E+00 0. -1.
         -5    1    5    5    0  501  0.32744105625E+01  0.10511731128E+03 -0.87092089114E+02  0.13662903382E+03  0.47000000000E+01 0.  1.
         11    1    6    6    0    0 -0.10390979559E+02 -0.17846972998E+02  0.32834708532E+01  0.20910956033E+02  0.00000000000E+00 0. -1.
        -12    1    6    6    0    0 -0.11478684155E+02  0.94203392122E+00 -0.13568288400E+03  0.13617082150E+03  0.00000000000E+00 0.  1.
</event>
<event>
12    1  0.2689284E-002  0.1831662E+03  0.7818608E-02  0.1164773E+00
          1   -1    0    0  502    0  0.00000000000E+00  0.00000000000E+00  0.39163979375E+03  0.39163979375E+03  0.00000000000E+00 0.  1.
         -1   -1    0    0    0  501 -0.00000000000E+00 -0.00000000000E+00 -0.14024140007E+03  0.14024140007E+03  0.00000000000E+00 0. -1.
          6    2    1    2  502    0  0.19869350744E+02 -0.68554840952E+02  0.29122000557E+03  0.34355819714E+03  0.16771578895E+03 0.  0.
         24    2    3    3    0    0  0.18555775082E+02  0.10235598835E+02  0.22774129839E+03  0.24226014608E+03  0.79842314076E+02 0.  0.
         -6    2    1    2    0  501 -0.19869350744E+02  0.68554840952E+02 -0.39821611882E+02  0.18832299668E+03  0.16966211418E+03 0.  0.
        -24    2    5    5    0    0 -0.10025880985E+02  0.70042168323E+02 -0.88482554519E+02  0.13843228234E+03  0.79548165948E+02 0.  0.
          5    1    3    3  502    0  0.13135756614E+01 -0.78790439787E+02  0.63478707182E+02  0.10129805106E+03  0.47000000000E+01 0. -1.
        -13    1    4    4    0    0 -0.30744602798E+02 -0.46640989372E+01  0.87346546878E+02  0.92716792824E+02  0.00000000000E+00 0.  1.
         14    1    4    4    0    0  0.49300377880E+02  0.14899697772E+02  0.14039475151E+03  0.14954335326E+03  0.00000000000E+00 0. -1.
         -5    1    5    5    0  501 -0.98434697586E+01 -0.14873273705E+01  0.48660942637E+02  0.49890714346E+02  0.47000000000E+01 0.  1.
         11    1    6    6    0    0  0.95303307211E+01 -0.81711085778E+01 -0.45233610509E+02  0.46943303449E+02  0.00000000000E+00 0. -1.
        -12    1    6    6    0    0 -0.19556211706E+02  0.78213276901E+02 -0.43248944010E+02  0.91488978887E+02  0.00000000000E+00 0.  1.
</event>
<event>
12    1  0.2689284E-002  0.1896197E+03  0.7818608E-02  0.1158805E+00
         -2   -1    0    0    0  501 -0.00000000000E+00  0.00000000000E+00  0.34877214654E+02  0.34877214654E+02  0.00000000000E+00 0. -1.
          2   -1    0    0  502    0  0.00000000000E+00 -0.00000000000E+00 -0.11747860911E+04  0.11747860911E+04  0.00000000000E+00 0.  1.
          6    2    1    2  502    0 -0.60566677505E+02 -0.53562315957E+02 -0.78216966078E+03  0.80487601822E+03  0.17175209560E+03 0.  0.
         24    2    3    3    0    0  0.57849257666E+01 -0.82157713490E+02 -0.54943718614E+03  0.56114106633E+03  0.78833492653E+02 0.  0.
         -6    2    1    2    0  501  0.60566677505E+02  0.53562315957E+02 -0.35773921570E+03  0.40478728757E+03  0.17128385100E+03 0.  0.
        -24    2    5    5    0    0 -0.61662338814E+01  0.12550709583E+02 -0.29008689327E+03  0.30118149598E+03  0.79776845800E+02 0.  0.
          5    1    3    3  502    0 -0.66351603272E+02  0.28595397532E+02 -0.23273247464E+03  0.24373495188E+03  0.47000000000E+01 0. -1.
        -11    1    4    4    0    0 -0.93334565598E+01 -0.53983953125E+02 -0.49489296407E+03  0.49791608379E+03  0.00000000000E+00 0.  1.
         12    1    4    4    0    0  0.15118382326E+02 -0.28173760365E+02 -0.54544222064E+02  0.63224982545E+02  0.00000000000E+00 0. -1.
         -5    1    5    5    0  501  0.66732911387E+02  0.41011606375E+02 -0.67652322433E+02  0.10360579159E+03  0.47000000000E+01 0.  1.
         11    1    6    6    0    0 -0.36579159196E+02  0.11412235552E+02 -0.77802576217E+02  0.86726667605E+02  0.00000000000E+00 0. -1.
        -12    1    6    6    0    0  0.30412925315E+02  0.11384740308E+01 -0.21228431705E+03  0.21445482838E+03  0.00000000000E+00 0.  1.
</event>
<event>
12    1  0.2689284E-002  0.2200278E+03  0.7818608E-02  0.1133862E+00
         -1   -1    0    0    0  501 -0.00000000000E+00  0.00000000000E+00  0.27966241484E+02  0.27966241484E+02  0.00000000000E+00 0.  1.
          1   -1    0    0  502    0  0.00000000000E+00 -0.00000000000E+00 -0.17469933391E+04  0.17469933391E+04  0.00000000000E+00 0. -1.
          6    2    1    2  502    0 -0.18635971989E+01  0.13792826624E+03 -0.77518517324E+03  0.80582995687E+03  0.17152896823E+03 0.  0.
         24    2    3    3    0    0 -0.14332735912E+02  0.44579734232E+02 -0.17079353263E+03  0.19412678286E+03  0.79510986734E+02 0.  0.
         -6    2    1    2    0  501  0.18635971989E+01 -0.13792826624E+03 -0.94384192437E+03  0.96912962371E+03  0.17130957283E+03 0.  0.
        -24    2    5    5    0    0 -0.58971099496E+02 -0.47032130176E+02 -0.49532242306E+03  0.50744271581E+03  0.80400218908E+02 0.  0.
          5    1    3    3  502    0  0.12469138713E+02  0.93348532011E+02 -0.60439164062E+03  0.61170317401E+03  0.47000000000E+01 0. -1.
        -11    1    4    4    0    0 -0.44480106009E+02  0.88205147088E+01 -0.89751083707E+02  0.10055614520E+03  0.00000000000E+00 0.  1.
         12    1    4    4    0    0  0.30147370097E+02  0.35759219523E+02 -0.81042448921E+02  0.93570637658E+02  0.00000000000E+00 0. -1.
         -5    1    5    5    0  501  0.60834696695E+02 -0.90896136067E+02 -0.44851950131E+03  0.46168690790E+03  0.47000000000E+01 0.  1.
         13    1    6    6    0    0 -0.86690293313E+01 -0.52700859124E+02 -0.33752973889E+03  0.34172921628E+03  0.00000000000E+00 0. -1.
        -14    1    6    6    0    0 -0.50302070165E+02  0.56687289476E+01 -0.15779268417E+03  0.16571349953E+03  0.00000000000E+00 0.  1.
</event>
<event>
12    1  0.2689284E-002  0.1767953E+03  0.7818608E-02  0.1170941E+00
         -1   -1    0    0    0  501 -0.00000000000E+00  0.00000000000E+00  0.92851300113E+02  0.92851300113E+02  0.00000000000E+00 0. -1.
          1   -1    0    0  502    0  0.00000000000E+00 -0.00000000000E+00 -0.34516906017E+03  0.34516906017E+03  0.00000000000E+00 0.  1.
          6    2    1    2  502    0  0.36835271342E+02 -0.19872631048E+02 -0.91611201695E+02  0.19899123086E+03  0.17161916852E+03 0.  0.
         24    2    3    3    0    0 -0.10381825814E+02 -0.70271480821E+02 -0.45387129911E+02  0.11575510208E+03  0.79330881574E+02 0.  0.
         -6    2    1    2    0  501 -0.36835271342E+02  0.19872631048E+02 -0.16070655836E+03  0.23902912942E+03  0.17192023771E+03 0.  0.
        -24    2    5    5    0    0  0.46282452182E+02  0.93515397705E+01 -0.92253106623E+02  0.13073686571E+03  0.79699282918E+02 0.  0.
          5    1    3    3  502    0  0.47217097156E+02  0.50398849772E+02 -0.46224071784E+02  0.83236128781E+02  0.47000000000E+01 0. -1.
        -11    1    4    4    0    0  0.26732421364E+02 -0.62466401626E+02 -0.23100962664E+02  0.71765786836E+02  0.00000000000E+00 0.  1.
         12    1    4    4    0    0 -0.37114247178E+02 -0.78050791944E+01 -0.22286167247E+02  0.43989315241E+02  0.00000000000E+00 0. -1.
         -5    1    5    5    0  501 -0.83117723524E+02  0.10521091278E+02 -0.68453451738E+02  0.10829226371E+03  0.47000000000E+01 0.  1.
         13    1    6    6    0    0 -0.85540721615E+00 -0.26106318505E+02 -0.55230241179E+02  0.61095426409E+02  0.00000000000E+00 0. -1.
        -14    1    6    6    0    0  0.47137859398E+02  0.35457858275E+02 -0.37022865445E+02  0.69641439300E+02  0.00000000000E+00 0.  1.
</event>
<event>
12    1  0.2689284E-002  0.2498585E+03  0.7818608E-02  0.1113394E+00
         -1   -1    0    0    0  501 -0.00000000000E+00  0.00000000000E+00  0.37183952108E+03  0.37183952108E+03  0.00000000000E+00 0. -1.
          1   -1    0    0  502    0  0.00000000000E+00 -0.00000000000E+00 -0.26469425084E+03  0.26469425084E+03  0.00000000000E+00 0.  1.
          6    2    1    2  502    0 -0.18119627247E+03  0.70973721544E+01 -0.13862927480E+03  0.28737961485E+03  0.17460385263E+03 0.  0.
         24    2    3    3    0    0 -0.16167448283E+03  0.27414111908E+02 -0.16571690636E+03  0.24801338607E+03  0.84607178695E+02 0.  0.
         -6    2    1    2    0  501  0.18119627247E+03 -0.70973721544E+01  0.24577454504E+03  0.34915415706E+03  0.16917752970E+03 0.  0.
        -24    2    5    5    0    0  0.61467547813E+02  0.18771743094E+01  0.14972416969E+03  0.19532543869E+03  0.10932939583E+03 0.  0.
          5    1    3    3  502    0 -0.19521789636E+02 -0.20316739753E+02  0.27087631562E+02  0.39366228781E+02  0.47000000000E+01 0. -1.
        -11    1    4    4    0    0 -0.71249183325E+02  0.53526768934E+01 -0.12995559358E+03  0.14830223726E+03  0.00000000000E+00 0.  1.
         12    1    4    4    0    0 -0.90425299506E+02  0.22061435014E+02 -0.35761312786E+02  0.99711148814E+02  0.00000000000E+00 0. -1.
         -5    1    5    5    0  501  0.11972872465E+03 -0.89745464639E+01  0.96050375344E+02  0.15382871837E+03  0.47000000000E+01 0.  1.
         13    1    6    6    0    0  0.62610734217E+02  0.26218436901E+02  0.15602934922E+03  0.17015483622E+03  0.00000000000E+00 0. -1.
        -14    1    6    6    0    0 -0.11431864041E+01 -0.24341262592E+02 -0.63051795254E+01  0.25170602467E+02  0.00000000000E+00 0.  1.
</event>
<event>
12    1  0.2689284E-002  0.1776887E+03  0.7818608E-02  0.1170059E+00
         -1   -1    0    0    0  501 -0.00000000000E+00  0.00000000000E+00  0.22502839315E+03  0.22502839315E+03  0.00000000000E+00 0.  1.
          1   -1    0    0  502    0  0.00000000000E+00 -0.00000000000E+00 -0.17014144567E+03  0.17014144567E+03  0.00000000000E+00 0. -1.
          6    2    1    2  502    0 -0.14648096659E+02  0.43254882029E+02  0.11020979730E+03  0.20928861880E+03  0.17195922477E+03 0.  0.
         24    2    3    3    0    0  0.23904621946E+02 -0.31100799783E+02  0.33030770093E+02  0.95298392160E+02  0.80324722706E+02 0.  0.
         -6    2    1    2    0  501  0.14648096659E+02 -0.43254882029E+02 -0.55322849820E+02  0.18588122002E+03  0.17148078227E+03 0.  0.
        -24    2    5    5    0    0  0.24857144063E+02  0.29281261449E+02  0.85266599808E+01  0.88595215571E+02  0.79379710308E+02 0.  0.
          5    1    3    3  502    0 -0.38552718605E+02  0.74355681812E+02  0.77179027210E+02  0.11399022664E+03  0.47000000000E+01 0. -1.
        -13    1    4    4    0    0  0.28454062796E+02 -0.20680496804E+02  0.58016560200E+02  0.67847165711E+02  0.00000000000E+00 0.  1.
         14    1    4    4    0    0 -0.45494408503E+01 -0.10420302979E+02 -0.24985790107E+02  0.27451226448E+02  0.00000000000E+00 0. -1.
         -5    1    5    5    0  501 -0.10209047404E+02 -0.72536143478E+02 -0.63849509801E+02  0.97286004448E+02  0.47000000000E+01 0.  1.
         11    1    6    6    0    0  0.29318183764E+02 -0.56686073501E+01 -0.25756790520E+02  0.39434772301E+02  0.00000000000E+00 0. -1.
        -12    1    6    6    0    0 -0.44610397005E+01  0.34949868799E+02  0.34283450501E+02  0.49160443270E+02  0.00000000000E+00 0.  1.
</event>
<event>
12    1  0.2689284E-002  0.1885651E+03  0.7818608E-02  0.1159762E+00
         -2   -1    0    0    0  501 -0.00000000000E+00  0.00000000000E+00  0.27153177919E+02  0.27153177919E+02  0.00000000000E+00 0. -1.
          2   -1    0    0  502    0  0.00000000000E+00 -0.00000000000E+00 -0.13597059059E+04  0.13597059059E+04  0.00000000000E+00 0.  1.
          6    2    1    2  502    0  0.69814264611E+02  0.25905380851E+02 -0.79347297698E+03  0.81517305924E+03  0.17135527716E+03 0.  0.
         24    2    3    3    0    0  0.50154185071E+02 -0.38156267153E+02 -0.63441327134E+03  0.64251011176E+03  0.79797881319E+02 0.  0.
         -6    2    1    2    0  501 -0.69814264611E+02 -0.25905380851E+02 -0.53907975096E+03  0.57168602454E+03  0.17513655375E+03 0.  0.
        -24    2    5    5    0    0 -0.22947476200E+02 -0.72573793623E+02 -0.22447256172E+03  0.25016742456E+03  0.80014168525E+02 0.  0.
          5    1    3    3  502    0  0.19660079540E+02  0.64061648004E+02 -0.15905970564E+03  0.17266294748E+03  0.47000000000E+01 0. -1.
        -11    1    4    4    0    0  0.52434423584E+02 -0.12888157023E+02 -0.19420852928E+03  0.20157486503E+03  0.00000000000E+00 0.  1.
         12    1    4    4    0    0 -0.22802385121E+01 -0.25268110130E+02 -0.44020474206E+03  0.44093524673E+03  0.00000000000E+00 0. -1.
         -5    1    5    5    0  501 -0.46866788411E+02  0.46668412773E+02 -0.31460718925E+03  0.32151859998E+03  0.47000000000E+01 0.  1.
         13    1    6    6    0    0 -0.75230137223E+00 -0.11429635610E+02  0.43699192646E+01  0.12259637919E+02  0.00000000000E+00 0. -1.
        -14    1    6    6    0    0 -0.22195174828E+02 -0.61144158014E+02 -0.22884248098E+03  0.23790778664E+03  0.00000000000E+00 0.  1.
</event>
<event>
12    1  0.2689284E-002  0.1868471E+03  0.7818608E-02  0.1161336E+00
          1   -1    0    0  502    0  0.00000000000E+00  0.00000000000E+00  0.20075905118E+04  0.20075905118E+04  0.00000000000E+00 0.  1.
         -1   -1    0    0    0  501 -0.00000000000E+00 -0.00000000000E+00 -0.18500098088E+02  0.18500098088E+02  0.00000000000E+00 0. -1.
          6    2    1    2  502    0 -0.68515578689E+02  0.30546098113E+02  0.73312038705E+03  0.75588937016E+03  0.16815406441E+03 0.  0.
         24    2    3    3    0    0  0.26988617129E+01 -0.72122205696E+01  0.54628451150E+03  0.55235332533E+03  0.81290396228E+02 0.  0.
         -6    2    1    2    0  501  0.68515578689E+02 -0.30546098113E+02  0.12559700267E+04  0.12702012398E+04  0.17413509958E+03 0.  0.
        -24    2    5    5    0    0  0.13380649064E+02 -0.32510386039E+02  0.29154018967E+03  0.30418326921E+03  0.79346153675E+02 0.  0.
          5    1    3    3  502    0 -0.71214440402E+02  0.37758318683E+02  0.18683587556E+03  0.20353604483E+03  0.47000000000E+01 0. -1.
        -13    1    4    4    0    0  0.22043186600E+02 -0.76244375770E+00  0.40160060756E+02  0.45818270110E+02  0.00000000000E+00 0.  1.
         14    1    4    4    0    0 -0.19344324887E+02 -0.64497768119E+01  0.50612445074E+03  0.50653505522E+03  0.00000000000E+00 0. -1.
         -5    1    5    5    0  501  0.55134929625E+02  0.19642879255E+01  0.96442983703E+03  0.96601797056E+03  0.47000000000E+01 0.  1.
         13    1    6    6    0    0  0.43199664349E+02 -0.33288041586E+02  0.22030046206E+03  0.22695065168E+03  0.00000000000E+00 0. -1.
        -14    1    6    6    0    0 -0.29819015285E+02  0.77765554729E+00  0.71239727612E+02  0.77232617533E+02  0.00000000000E+00 0.  1.
</event>
<event>
12    1  0.2689284E-002  0.1802796E+03  0.7818608E-02  0.1167533E+00
          2   -1    0    0  502    0  0.00000000000E+00  0.00000000000E+00  0.89033930941E+03  0.89033930941E+03  0.00000000000E+00 0.  1.
         -2   -1    0    0    0  501 -0.00000000000E+00 -0.00000000000E+00 -0.37445768597E+02  0.37445768597E+02  0.00000000000E+00 0. -1.
          6    2    1    2  502    0  0.36633137711E+02 -0.35271020441E+02  0.35164915546E+03  0.39492481490E+03  0.17240199891E+03 0.  0.
         24    2    3    3    0    0 -0.35318692886E+02 -0.31300954278E+02  0.10492949059E+03  0.13785379284E+03  0.75936225868E+02 0.  0.
         -6    2    1    2    0  501 -0.36633137711E+02  0.35271020441E+02  0.50124438536E+03  0.53286026311E+03  0.17351684208E+03 0.  0.
        -24    2    5    5    0    0  0.27799868369E+02 -0.65208253477E+01  0.13536304371E+03  0.15897603395E+03  0.78325423224E+02 0.  0.
          5    1    3    3  502    0  0.71951830597E+02 -0.39700661635E+01  0.24671966487E+03  0.25707102206E+03  0.47000000000E+01 0. -1.
        -11    1    4    4    0    0  0.98383215349E+01 -0.34391722372E+02  0.76374574790E+02  0.84336580513E+02  0.00000000000E+00 0.  1.
         12    1    4    4    0    0 -0.45157014421E+02  0.30907680943E+01  0.28554915799E+02  0.53517212326E+02  0.00000000000E+00 0. -1.
         -5    1    5    5    0  501 -0.64433006080E+02  0.41791845789E+02  0.36588134165E+03  0.37388422916E+03  0.47000000000E+01 0.  1.
         13    1    6    6    0    0  0.36771279664E+02  0.24161172616E+02  0.44179975452E+02  0.62351900543E+02  0.00000000000E+00 0. -1.
        -14    1    6    6    0    0 -0.89714112950E+01 -0.30681997964E+02  0.91183068258E+02  0.96624133407E+02  0.00000000000E+00 0.  1.
</event>
<event>
12    1  0.2689284E-002  0.1740838E+03  0.7818608E-02  0.1173655E+00
          1   -1    0    0  502    0  0.00000000000E+00  0.00000000000E+00  0.25230089590E+04  0.25230089590E+04  0.00000000000E+00 0.  1.
         -1   -1    0    0    0  501 -0.00000000000E+00 -0.00000000000E+00 -0.12039151354E+02  0.12039151354E+02  0.00000000000E+00 0. -1.
          6    2    1    2  502    0  0.17134901661E+02 -0.98424221836E+01  0.13130421552E+04  0.13244756381E+04  0.17252691465E+03 0.  0.
         24    2    3    3    0    0 -0.48498332615E+02  0.17019051280E+02  0.93686783195E+03  0.94164607848E+03  0.79588103324E+02 0.  0.
         -6    2    1    2    0  501 -0.17134901661E+02  0.98424221836E+01  0.11979276524E+04  0.12105724723E+04  0.17339138422E+03 0.  0.
        -24    2    5    5    0    0  0.22512945090E+02  0.59040183939E+02  0.53660041858E+03  0.54621701643E+03  0.80127671920E+02 0.  0.
          5    1    3    3  502    0  0.65633234276E+02 -0.26861473464E+02  0.37617432329E+03  0.38282955959E+03  0.47000000000E+01 0. -1.
        -11    1    4    4    0    0  0.34277889705E+01  0.26822114566E+01  0.63464409360E+03  0.63465901833E+03  0.00000000000E+00 0.  1.
         12    1    4    4    0    0 -0.51926121586E+02  0.14336839823E+02  0.30222373835E+03  0.30698706015E+03  0.00000000000E+00 0. -1.
         -5    1    5    5    0  501 -0.39647846751E+02 -0.49197761756E+02  0.66132723387E+03  0.66435545589E+03  0.47000000000E+01 0.  1.
         13    1    6    6    0    0 -0.28324488660E+02  0.68161589511E+01  0.14741697372E+03  0.15026809648E+03  0.00000000000E+00 0. -1.
        -14    1    6    6    0    0  0.50837433750E+02  0.52224024988E+02  0.38918344486E+03  0.39594891995E+03  0.00000000000E+00 0.  1.
</event>
<event>
12    1  0.2689284E-002  0.1960953E+03  0.7818608E-02  0.1153076E+00
         -3   -1    0    0    0  501 -0.00000000000E+00  0.00000000000E+00  0.21951186376E+03  0.21951186376E+03  0.00000000000E+00 0.  1.
          3   -1    0    0  502    0  0.00000000000E+00 -0.00000000000E+00 -0.17710278056E+03  0.17710278056E+03  0.00000000000E+00 0. -1.
          6    2    1    2  502    0 -0.93267279265E+02 -0.88849385481E+01  0.41841893728E+02  0.20014569239E+03  0.17184244702E+03 0.  0.
         24    2    3    3    0    0 -0.30063323036E+02 -0.17153933362E+02  0.83301246849E+02  0.12396115118E+03  0.85024752003E+02 0.  0.
         -6    2    1    2    0  501  0.93267279265E+02  0.88849385481E+01  0.56718946712E+00  0.19646895194E+03  0.17269047413E+03 0.  0.
        -24    2    5    5    0    0 -0.14488132666E+02 -0.38671369755E+00 -0.26621650597E+02  0.84851232196E+02  0.79252531752E+02 0.  0.
          5    1    3    3  502    0 -0.63203956230E+02  0.82689948140E+01 -0.41459353120E+02  0.76184541211E+02  0.47000000000E+01 0. -1.
        -13    1    4    4    0    0 -0.33690686638E+02 -0.42035935182E+02  0.82835340237E+02  0.98811820168E+02  0.00000000000E+00 0.  1.
         14    1    4    4    0    0  0.36273636020E+01  0.24882001820E+02  0.46590661180E+00  0.25149331010E+02  0.00000000000E+00 0. -1.
         -5    1    5    5    0  501  0.10775541193E+03  0.92716522456E+01  0.27188840064E+02  0.11161771974E+03  0.47000000000E+01 0.  1.
         13    1    6    6    0    0 -0.16022024915E+02 -0.34697676137E+02 -0.32300661516E+02  0.50039651738E+02  0.00000000000E+00 0. -1.
        -14    1    6    6    0    0  0.15338922492E+01  0.34310962440E+02  0.56790109189E+01  0.34811580458E+02  0.00000000000E+00 0.  1.
</event>
<event>
12    1  0.2689284E-002  0.1820909E+03  0.7818608E-02  0.1165795E+00
          2   -1    0    0  502    0  0.00000000000E+00  0.00000000000E+00  0.67719247036E+03  0.67719247036E+03  0.00000000000E+00 0. -1.
         -2   -1    0    0    0  501 -0.00000000000E+00 -0.00000000000E+00 -0.51495750141E+02  0.51495750141E+02  0.00000000000E+00 0.  1.
          6    2    1    2  502    0  0.57011813461E+02  0.15549238414E+02  0.22928665069E+03  0.29172794882E+03  0.17041332768E+03 0.  0.
         24    2    3    3    0    0  0.19019223228E+02  0.55353508785E+02  0.65886543471E+02  0.11924750967E+03  0.80331750659E+02 0.  0.
         -6    2    1    2    0  501 -0.57011813461E+02 -0.15549238414E+02  0.39641006954E+03  0.43696027168E+03  0.17407242778E+03 0.  0.
        -24    2    5    5    0    0 -0.64972647521E+02  0.32689953318E+02  0.13900180638E+03  0.17490779901E+03  0.77337946713E+02 0.  0.
          5    1    3    3  502    0  0.37992590233E+02 -0.39804270371E+02  0.16340010721E+03  0.17248043915E+03  0.47000000000E+01 0. -1.
        -13    1    4    4    0    0  0.44930563081E+02  0.56497164406E+02  0.39662466858E+02  0.82363804926E+02  0.00000000000E+00 0.  1.
         14    1    4    4    0    0 -0.25911339853E+02 -0.11436556208E+01  0.26224076612E+02  0.36883704739E+02  0.00000000000E+00 0. -1.
         -5    1    5    5    0  501  0.79608340598E+01 -0.48239191731E+02  0.25740826315E+03  0.26205247268E+03  0.47000000000E+01 0.  1.
         13    1    6    6    0    0 -0.49367913288E+02  0.49023526410E+02  0.13512980275E+03  0.15198868575E+03  0.00000000000E+00 0. -1.
        -14    1    6    6    0    0 -0.15604734232E+02 -0.16333573092E+02  0.38720036326E+01  0.22919113258E+02  0.00000000000E+00 0.  1.
</event>
<event>
12    1  0.2689284E-002  0.2036495E+03  0.7818608E-02  0.1146696E+00
         -2   -1    0    0    0  501 -0.00000000000E+00  0.00000000000E+00  0.10679392976E+03  0.10679392976E+03  0.00000000000E+00 0.  1.
          2   -1    0    0  502    0  0.00000000000E+00 -0.00000000000E+00 -0.55045990485E+03  0.55045990485E+03  0.00000000000E+00 0. -1.
          6    2    1    2  502    0  0.11106716977E+03 -0.41815012445E+01 -0.44159181716E+02  0.20922502688E+03  0.17167317027E+03 0.  0.
         24    2    3    3    0    0  0.13095944310E+03 -0.43895306291E+02 -0.39396396951E+02  0.16430662344E+03  0.79796094894E+02 0.  0.
         -6    2    1    2    0  501 -0.11106716977E+03  0.41815012445E+01 -0.39950679337E+03  0.44802880772E+03  0.16961937815E+03 0.  0.
        -24    2    5    5    0    0 -0.92678866758E+02  0.48618170813E+02 -0.36760586114E+03  0.39012797208E+03  0.78183544198E+02 0.  0.
          5    1    3    3  502    0 -0.19892273332E+02  0.39713805046E+02 -0.47627847648E+01  0.44918403448E+02  0.47000000000E+01 0. -1.
        -11    1    4    4    0    0  0.20669589974E+02 -0.36228853531E+02  0.10501046917E+02  0.43012018835E+02  0.00000000000E+00 0.  1.
         12    1    4    4    0    0  0.11028985313E+03 -0.76664527595E+01 -0.49897443868E+02  0.12129460460E+03  0.00000000000E+00 0. -1.
         -5    1    5    5    0  501 -0.18388303010E+02 -0.44436669568E+02 -0.31900932237E+02  0.57900835637E+02  0.47000000000E+01 0.  1.
         13    1    6    6    0    0 -0.55346325236E+02  0.34474358684E+02 -0.98821662170E+02  0.11839517743E+03  0.00000000000E+00 0. -1.
        -14    1    6    6    0    0 -0.37332541522E+02  0.14143812128E+02 -0.26878419897E+03  0.27173279466E+03  0.00000000000E+00 0.  1.
</event>
<event>
12    1  0.2689284E-002  0.1707210E+03  0.7818608E-02  0.1177098E+00
         -2   -1    0    0    0  501 -0.00000000000E+00  0.00000000000E+00  0.18549256679E+02  0.18549256679E+02  0.00000000000E+00 0.  1.
          2   -1    0    0  502    0  0.00000000000E+00 -0.00000000000E+00 -0.16295532110E+04  0.16295532110E+04  0.00000000000E+00 0. -1.
          6    2    1    2  502    0 -0.27021639516E+01  0.80796510464E+01 -0.64764213485E+03  0.66965307866E+03  0.17006565930E+03 0.  0.
         24    2    3    3    0    0 -0.29206842629E+02 -0.33053770300E+01 -0.62954953981E+03  0.63527941357E+03  0.79895838860E+02 0.  0.
         -6    2    1    2    0  501  0.27021639516E+01 -0.80796510464E+01 -0.96336181947E+03  0.97844938902E+03  0.17095212549E+03 0.  0.
        -24    2    5    5    0    0 -0.53597895143E+02 -0.40939555710E+02 -0.65152493706E+03  0.65983708352E+03  0.79695994770E+02 0.  0.
          5    1    3    3  502    0  0.26504678678E+02  0.11385028076E+02 -0.18092595047E+02  0.34373665089E+02  0.47000000000E+01 0. -1.
        -11    1    4    4    0    0 -0.10287124397E+02  0.36626902413E+02 -0.21085454905E+03  0.21425917895E+03  0.00000000000E+00 0.  1.
         12    1    4    4    0    0 -0.18919718232E+02 -0.39932279443E+02 -0.41869499076E+03  0.42102023463E+03  0.00000000000E+00 0. -1.
         -5    1    5    5    0  501  0.56300059095E+02  0.32859904664E+02 -0.31183688241E+03  0.31861230551E+03  0.47000000000E+01 0.  1.
         11    1    6    6    0    0 -0.10725102857E+02  0.23913195347E+02 -0.19236444934E+03  0.19414157235E+03  0.00000000000E+00 0. -1.
        -12    1    6    6    0    0 -0.42872792287E+02 -0.64852751057E+02 -0.45916048772E+03  0.46569551117E+03  0.00000000000E+00 0.  1.
</event>
<event>
12    1  0.2689284E-002  0.1816997E+03  0.7818608E-02  0.1166168E+00
         -2   -1    0    0    0  501 -0.00000000000E+00  0.00000000000E+00  0.97071506525E+02  0.97071506525E+02  0.00000000000E+00 0.  1.
          2   -1    0    0  502    0  0.00000000000E+00 -0.00000000000E+00 -0.34903874598E+03  0.34903874598E+03  0.00000000000E+00 0. -1.
          6    2    1    2  502    0 -0.33956691391E+02  0.39637487920E+02 -0.16054517863E+03  0.24129096597E+03  0.17240182289E+03 0.  0.
         24    2    3    3    0    0  0.30381408086E+02 -0.25799003788E+02 -0.72021049590E+02  0.11369810992E+03  0.78432200414E+02 0.  0.
         -6    2    1    2    0  501  0.33956691391E+02 -0.39637487920E+02 -0.91422060825E+02  0.20481928654E+03  0.17569507561E+03 0.  0.
        -24    2    5    5    0    0  0.85301998230E+02 -0.30148041004E+01 -0.37104529119E+02  0.12145235212E+03  0.78028250063E+02 0.  0.
          5    1    3    3  502    0 -0.64338099477E+02  0.65436491708E+02 -0.88524129042E+02  0.12759285605E+03  0.47000000000E+01 0. -1.
        -11    1    4    4    0    0  0.53546004500E+02 -0.11484196435E+02 -0.26940573662E+02  0.61031597349E+02  0.00000000000E+00 0.  1.
         12    1    4    4    0    0 -0.23164596414E+02 -0.14314807353E+02 -0.45080475928E+02  0.52666512572E+02  0.00000000000E+00 0. -1.
         -5    1    5    5    0  501 -0.51345306839E+02 -0.36622683819E+02 -0.54317531707E+02  0.83366934424E+02  0.47000000000E+01 0.  1.
         11    1    6    6    0    0  0.32321534518E+02  0.22846881416E+02 -0.47241858351E+02  0.61631605241E+02  0.00000000000E+00 0. -1.
        -12    1    6    6    0    0  0.52980463712E+02 -0.25861685517E+02  0.10137329232E+02  0.59820746876E+02  0.00000000000E+00 0.  1.
</event>
<event>
12    1  0.2689284E-002  0.1897145E+03  0.7818608E-02  0.1158719E+00
         -2   -1    0    0    0  501 -0.00000000000E+00  0.00000000000E+00  0.11969135879E+02  0.11969135879E+02  0.00000000000E+00 0. -1.
          2   -1    0    0  502    0  0.00000000000E+00 -0.00000000000E+00 -0.31848001768E+04  0.31848001768E+04  0.00000000000E+00 0.  1.
          6    2    1    2  502    0  0.54636788212E+02  0.59789589700E+02 -0.19675760874E+04  0.19767443448E+04  0.17205397782E+03 0.  0.
         24    2    3    3    0    0 -0.90746294116E+01  0.67111865474E+02 -0.16171243378E+04  0.16204421146E+04  0.78454900376E+02 0.  0.
         -6    2    1    2    0  501 -0.54636788212E+02 -0.59789589700E+02 -0.12052549535E+04  0.12200249679E+04  0.17105977209E+03 0.  0.
        -24    2    5    5    0    0 -0.16618505204E+02 -0.30228425152E+02 -0.26927715540E+03  0.28279725764E+03  0.79209659161E+02 0.  0.
          5    1    3    3  502    0  0.63711417623E+02 -0.73222757743E+01 -0.35045174959E+03  0.35630223020E+03  0.47000000000E+01 0. -1.
        -11    1    4    4    0    0 -0.18783216205E+01 -0.10972594958E+02 -0.66530408938E+03  0.66539721767E+03  0.00000000000E+00 0.  1.
         12    1    4    4    0    0 -0.71963077911E+01  0.78084460432E+02 -0.95182024839E+03  0.95504489688E+03  0.00000000000E+00 0. -1.
         -5    1    5    5    0  501 -0.38018283008E+02 -0.29561164548E+02 -0.93597779813E+03  0.93722771027E+03  0.47000000000E+01 0.  1.
         13    1    6    6    0    0 -0.13480766682E+02  0.16811151859E+02 -0.18482872903E+03  0.18608064105E+03  0.00000000000E+00 0. -1.
        -14    1    6    6    0    0 -0.31377385220E+01 -0.47039577011E+02 -0.84448426368E+02  0.96716616589E+02  0.00000000000E+00 0.  1.
</event>
<event>
12    1  0.2689284E-002  0.2738073E+03  0.7818608E-02  0.1099120E+00
          2   -1    0    0  502    0  0.00000000000E+00  0.00000000000E+00  0.67860506449E+03  0.67860506449E+03  0.00000000000E+00 0.  1.
         -2   -1    0    0    0  501 -0.00000000000E+00 -0.00000000000E+00 -0.21077586547E+03  0.21077586547E+03  0.00000000000E+00 0. -1.
          6    2    1    2  502    0 -0.17376874323E+03  0.12098603870E+03  0.54008027611E+03  0.60493311242E+03  0.17153474336E+03 0.  0.
         24    2    3    3    0    0 -0.16346580159E+03  0.11341637881E+03  0.54849579452E+03  0.58892182556E+03  0.79980852359E+02 0.  0.
         -6    2    1    2    0  501  0.17376874323E+03 -0.12098603870E+03 -0.72251077097E+02  0.28444781754E+03  0.17566201945E+03 0.  0.
        -24    2    5    5    0    0  0.14183504587E+03 -0.13554111636E+03 -0.10499959913E+03  0.23621746394E+03  0.79279253240E+02 0.  0.
          5    1    3    3  502    0 -0.10302941635E+02  0.75696598845E+01 -0.84155184036E+01  0.16011286866E+02  0.47000000000E+01 0. -1.
        -13    1    4    4    0    0 -0.81304552290E+02  0.39952024960E+02  0.35360460736E+03  0.36502440037E+03  0.00000000000E+00 0.  1.
         14    1    4    4    0    0 -0.82161249300E+02  0.73464353851E+02  0.19489118716E+03  0.22389742519E+03  0.00000000000E+00 0. -1.
         -5    1    5    5    0  501  0.31933697360E+02  0.14555077664E+02  0.32748522029E+02  0.48230353596E+02  0.47000000000E+01 0.  1.
         13    1    6    6    0    0  0.82931180544E+02 -0.25465587173E+02 -0.43175274801E+02  0.96902947275E+02  0.00000000000E+00 0. -1.
        -14    1    6    6    0    0  0.58903865321E+02 -0.11007552919E+03 -0.61824324325E+02  0.13931451666E+03  0.00000000000E+00 0.  1.
</event>
<event>
12    1  0.2689284E-002  0.2573948E+03  0.7818608E-02  0.1108719E+00
         -2   -1    0    0    0  501 -0.00000000000E+00  0.00000000000E+00  0.27216518366E+02  0.27216518366E+02  0.00000000000E+00 0.  1.
          2   -1    0    0  502    0  0.00000000000E+00 -0.00000000000E+00 -0.25203580375E+04  0.25203580375E+04  0.00000000000E+00 0. -1.
          6    2    1    2  502    0  0.15321672448E+03 -0.11343319298E+03 -0.14790116080E+04  0.15011333902E+04  0.17199902499E+03 0.  0.
         24    2    3    3    0    0  0.90591705468E+02 -0.26772430540E+02 -0.48880495882E+03  0.50515985699E+03  0.85630445557E+02 0.  0.
         -6    2    1    2    0  501 -0.15321672448E+03  0.11343319298E+03 -0.10141299111E+04  0.10464411656E+04  0.17388842009E+03 0.  0.
        -24    2    5    5    0    0 -0.99883067678E+02  0.78379267490E+02 -0.37252337181E+03  0.40165104638E+03  0.80187054661E+02 0.  0.
          5    1    3    3  502    0  0.62625019014E+02 -0.86660762436E+02 -0.99020664918E+03  0.99597353320E+03  0.47000000000E+01 0. -1.
        -13    1    4    4    0    0  0.86481607411E+02 -0.51628578435E+02 -0.41937300880E+03  0.43129838748E+03  0.00000000000E+00 0.  1.
         14    1    4    4    0    0  0.41100980566E+01  0.24856147895E+02 -0.69431950024E+02  0.73861469511E+02  0.00000000000E+00 0. -1.
         -5    1    5    5    0  501 -0.53333656804E+02  0.35053925487E+02 -0.64160653928E+03  0.64479011925E+03  0.47000000000E+01 0.  1.
         13    1    6    6    0    0 -0.14814183596E+02  0.34371300838E+02 -0.20748849381E+03  0.21083719174E+03  0.00000000000E+00 0. -1.
        -14    1    6    6    0    0 -0.85068884082E+02  0.44007966652E+02 -0.16503487800E+03  0.19081385464E+03  0.00000000000E+00 0.  1.
</event>
<event>
12    1  0.2689284E-002  0.1894549E+03  0.7818608E-02  0.1158954E+00
          2   -1    0    0  502    0  0.00000000000E+00  0.00000000000E+00  0.11072611038E+04  0.11072611038E+04  0.00000000000E+00 0. -1.
         -2   -1    0    0    0  501 -0.00000000000E+00 -0.00000000000E+00 -0.34024372408E+02  0.34024372408E+02  0.00000000000E+00 0.  1.
          6    2    1    2  502    0  0.10169468468E+02  0.77299725905E+02  0.66086160597E+03  0.68750033386E+03  0.17274252832E+03 0.  0.
         24    2    3    3    0    0  0.16704390131E+02  0.44309795452E+02  0.15840974089E+03  0.18390227247E+03  0.80523320763E+02 0.  0.
         -6    2    1    2    0  501 -0.10169468468E+02 -0.77299725905E+02  0.41237512540E+03  0.45378514233E+03  0.17259503364E+03 0.  0.
        -24    2    5    5    0    0 -0.55072333100E+02 -0.72629990903E+02  0.37762444002E+03  0.39662069699E+03  0.79998013259E+02 0.  0.
          5    1    3    3  502    0 -0.65349216631E+01  0.32989930453E+02  0.50245186508E+03  0.50359806139E+03  0.47000000000E+01 0. -1.
        -11    1    4    4    0    0  0.46452747822E+02  0.11136963441E+02  0.95882069229E+02  0.10712264436E+03  0.00000000000E+00 0.  1.
         12    1    4    4    0    0 -0.29748357691E+02  0.33172832010E+02  0.62527671665E+02  0.76779628110E+02  0.00000000000E+00 0. -1.
         -5    1    5    5    0  501  0.44902864632E+02 -0.46697350017E+01  0.34750685373E+02  0.57164445340E+02  0.47000000000E+01 0.  1.
         11    1    6    6    0    0 -0.90360473597E+00 -0.41117116406E+02  0.26104445532E+03  0.26426434004E+03  0.00000000000E+00 0. -1.
        -12    1    6    6    0    0 -0.54168728364E+02 -0.31512874497E+02  0.11657998471E+03  0.13235635695E+03  0.00000000000E+00 0.  1.
</event>
<event>
12    1  0.2689284E-002  0.2511289E+03  0.7818608E-02  0.1112593E+00
          1   -1    0    0  502    0  0.00000000000E+00  0.00000000000E+00  0.16011736370E+04  0.16011736370E+04  0.00000000000E+00 0.  1.
         -1   -1    0    0    0  501 -0.00000000000E+00 -0.00000000000E+00 -0.49210863011E+02  0.49210863011E+02  0.00000000000E+00 0. -1.
          6    2    1    2  502    0 -0.96991776504E+02 -0.15182134596E+03  0.41011992427E+03  0.48149499285E+03  0.17658411610E+03 0.  0.
         24    2    3    3    0    0 -0.78531672794E+02 -0.86254978169E+02  0.12680752725E+03  0.19007136937E+03  0.80248561345E+02 0.  0.
         -6    2    1    2    0  501  0.96991776504E+02  0.15182134596E+03  0.11418428498E+04  0.11688895072E+04  0.17332184138E+03 0.  0.
        -24    2    5    5    0    0  0.42978388612E+02  0.32296466189E+01  0.36270973335E+03  0.37386281440E+03  0.79733812257E+02 0.  0.
          5    1    3    3  502    0 -0.18460103710E+02 -0.65566367792E+02  0.28331239702E+03  0.29142362347E+03  0.47000000000E+01 0. -1.
        -13    1    4    4    0    0 -0.81610363350E+02 -0.85705460811E+02  0.13604659056E+03  0.18031736528E+03  0.00000000000E+00 0.  1.
         14    1    4    4    0    0  0.30786905561E+01 -0.54951735810E+00 -0.92390633144E+01  0.97540040904E+01  0.00000000000E+00 0. -1.
         -5    1    5    5    0  501  0.54013387893E+02  0.14859169934E+03  0.77913311641E+03  0.79502669280E+03  0.47000000000E+01 0.  1.
         13    1    6    6    0    0  0.48800749518E+02 -0.29216843279E+02  0.20497128430E+03  0.21271662951E+03  0.00000000000E+00 0. -1.
        -14    1    6    6    0    0 -0.58223609062E+01  0.32446489898E+02  0.15773844906E+03  0.16114618489E+03  0.00000000000E+00 0.  1.
</event>
<event>
12    1  0.2689284E-002  0.2921892E+03  0.7818608E-02  0.1089212E+00
          2   -1    0    0  502    0  0.00000000000E+00  0.00000000000E+00  0.12218914665E+03  0.12218914665E+03  0.00000000000E+00 0. -1.
         -2   -1    0    0    0  501 -0.00000000000E+00 -0.00000000000E+00 -0.75982114859E+03  0.75982114859E+03  0.00000000000E+00 0.  1.
          6    2    1    2  502    0  0.23238725158E+03 -0.33264868900E+02 -0.19360770471E+03  0.35039742881E+03  0.17373551334E+03 0.  0.
         24    2    3    3    0    0  0.74996517087E+02 -0.44538533874E+02 -0.13900608152E+03  0.18335741540E+03  0.81786872465E+02 0.  0.
         -6    2    1    2    0  501 -0.23238725158E+03  0.33264868900E+02 -0.44402429724E+03  0.53161286644E+03  0.17419608786E+03 0.  0.
        -24    2    5    5    0    0 -0.11908135426E+03  0.12746329708E+02 -0.11674271019E+03  0.18463366816E+03  0.78216962238E+02 0.  0.
          5    1    3    3  502    0  0.15739073449E+03  0.11273664975E+02 -0.54601623192E+02  0.16704001341E+03  0.47000000000E+01 0. -1.
        -11    1    4    4    0    0 -0.10627546239E+02  0.12456190392E+02 -0.24136728170E+02  0.29166471588E+02  0.00000000000E+00 0.  1.
         12    1    4    4    0    0  0.85624063325E+02 -0.56994724266E+02 -0.11486935335E+03  0.15419094381E+03  0.00000000000E+00 0. -1.
         -5    1    5    5    0  501 -0.11330589732E+03  0.20518539192E+02 -0.32728158705E+03  0.34697919828E+03  0.47000000000E+01 0.  1.
         11    1    6    6    0    0 -0.57255745377E+02  0.16927392159E+02 -0.90528961765E+01  0.60388011336E+02  0.00000000000E+00 0. -1.
        -12    1    6    6    0    0 -0.61825608883E+02 -0.41810624512E+01 -0.10768981401E+03  0.12424565682E+03  0.00000000000E+00 0.  1.
</event>
<event>
12    1  0.2689284E-002  0.1777927E+03  0.7818608E-02  0.1169957E+00
         -1   -1    0    0    0  501 -0.00000000000E+00  0.00000000000E+00  0.40419395733E+03  0.40419395733E+03  0.00000000000E+00 0.  1.
          1   -1    0    0  502    0  0.00000000000E+00 -0.00000000000E+00 -0.87646397918E+02  0.87646397918E+02  0.00000000000E+00 0. -1.
          6    2    1    2  502    0 -0.39209234512E+01  0.36092970603E+02  0.23963941046E+03  0.29889058077E+03  0.17490127518E+03 0.  0.
         24    2    3    3    0    0 -0.35707058256E+01  0.16607493140E+02  0.26029052183E+02  0.84341561552E+02  0.78405539849E+02 0.  0.
         -6    2    1    2    0  501  0.39209234512E+01 -0.36092970603E+02  0.76908148956E+02  0.19294977448E+03  0.17319548473E+03 0.  0.
        -24    2    5    5    0    0 -0.22727732545E+02 -0.85875744351E+02  0.46606096868E+02  0.12869419271E+03  0.80615592022E+02 0.  0.
          5    1    3    3  502    0 -0.35021762563E+00  0.19485477464E+02  0.21361035827E+03  0.21454901921E+03  0.47000000000E+01 0. -1.
        -13    1    4    4    0    0 -0.12066492713E+02  0.76877377247E+01  0.52889862344E+02  0.54790866907E+02  0.00000000000E+00 0.  1.
         14    1    4    4    0    0  0.84957868875E+01  0.89197554151E+01 -0.26860810160E+02  0.29550694645E+02  0.00000000000E+00 0. -1.
         -5    1    5    5    0  501  0.26648655996E+02  0.49782773747E+02  0.30302052088E+02  0.64255581774E+02  0.47000000000E+01 0.  1.
         11    1    6    6    0    0 -0.34553099488E+02 -0.16327332653E+02 -0.85308346788E+01  0.39157037887E+02  0.00000000000E+00 0. -1.
        -12    1    6    6    0    0  0.11825366943E+02 -0.69548411698E+02  0.55136931546E+02  0.89537154820E+02  0.00000000000E+00 0.  1.
</event>
<event>
12    1  0.2689284E-002  0.3584988E+03  0.7818608E-02  0.1059180E+00
         -2   -1    0    0    0  501 -0.00000000000E+00  0.00000000000E+00  0.16898436957E+03  0.16898436957E+03  0.00000000000E+00 0. -1.
          2   -1    0    0  502    0  0.00000000000E+00 -0.00000000000E+00 -0.12355114213E+04  0.12355114213E+04  0.00000000000E+00 0.  1.
          6    2    1    2  502    0 -0.29636395590E+03 -0.10419836982E+03 -0.96880370825E+03  0.10330568106E+04  0.17302269867E+03 0.  0.
         24    2    3    3    0    0 -0.23302395487E+03 -0.11502386609E+03 -0.60317361093E+03  0.66179328541E+03  0.81371336328E+02 0.  0.
         -6    2    1    2    0  501  0.29636395590E+03  0.10419836982E+03 -0.97723343486E+02  0.37143898024E+03  0.17241858817E+03 0.  0.
        -24    2    5    5    0    0  0.10657410617E+03 -0.63765479585E+00  0.17162173896E+01  0.13285755727E+03  0.79307871055E+02 0.  0.
          5    1    3    3  502    0 -0.63340001030E+02  0.10825496267E+02 -0.36563009731E+03  0.37126352522E+03  0.47000000000E+01 0. -1.
        -11    1    4    4    0    0 -0.17520051169E+03 -0.11863304023E+03 -0.50899344005E+03  0.55121986498E+03  0.00000000000E+00 0.  1.
         12    1    4    4    0    0 -0.57823443179E+02  0.36091741398E+01 -0.94180170881E+02  0.11057342043E+03  0.00000000000E+00 0. -1.
         -5    1    5    5    0  501  0.18978984973E+03  0.10483602462E+03 -0.99439560876E+02  0.23858142297E+03  0.47000000000E+01 0.  1.
         13    1    6    6    0    0  0.11547708543E+03  0.12723818138E+02  0.56969133683E+01  0.11631555197E+03  0.00000000000E+00 0. -1.
        -14    1    6    6    0    0 -0.89029792643E+01 -0.13361472933E+02 -0.39806959787E+01  0.16542005296E+02  0.00000000000E+00 0.  1.
</event>
<event>
12    1  0.2689284E-002  0.1918109E+03  0.7818608E-02  0.1156838E+00
         -2   -1    0    0    0  501 -0.00000000000E+00  0.00000000000E+00  0.68365360095E+03  0.68365360095E+03  0.00000000000E+00 0.  1.
          2   -1    0    0  502    0  0.00000000000E+00 -0.00000000000E+00 -0.61983711253E+02  0.61983711253E+02  0.00000000000E+00 0. -1.
          6    2    1    2  502    0 -0.11844570832E+02 -0.81967732647E+02  0.44367263266E+03  0.48267307216E+03  0.17108152024E+03 0.  0.
         24    2    3    3    0    0  0.36227763947E+02 -0.95793343534E+02  0.26468288640E+03  0.29676579378E+03  0.86741515215E+02 0.  0.
         -6    2    1    2    0  501  0.11844570832E+02  0.81967732647E+02  0.17799725704E+03  0.26296424004E+03  0.17495189331E+03 0.  0.
        -24    2    5    5    0    0 -0.22223797336E+02  0.44618324261E+02  0.17386743193E+02  0.94520008398E+02  0.78403068313E+02 0.  0.
          5    1    3    3  502    0 -0.48072334779E+02  0.13825610888E+02  0.17898974626E+03  0.18590727838E+03  0.47000000000E+01 0. -1.
        -13    1    4    4    0    0 -0.25226241922E+02 -0.13541788138E+02  0.86531711572E+02  0.91145380657E+02  0.00000000000E+00 0.  1.
         14    1    4    4    0    0  0.61454005869E+02 -0.82251555397E+02  0.17815117483E+03  0.20562041313E+03  0.00000000000E+00 0. -1.
         -5    1    5    5    0  501  0.34068368168E+02  0.37349408386E+02  0.16061051384E+03  0.16844423164E+03  0.47000000000E+01 0.  1.
         13    1    6    6    0    0  0.21945502049E+02 -0.68646400747E+01  0.13299431815E+02  0.26563193146E+02  0.00000000000E+00 0. -1.
        -14    1    6    6    0    0 -0.44169299385E+02  0.51482964335E+02  0.40873113772E+01  0.67956815252E+02  0.00000000000E+00 0.  1.
</event>
<event>
12    1  0.2689284E-002  0.1747415E+03  0.7818608E-02  0.1172992E+00
          1   -1    0    0  502    0  0.00000000000E+00  0.00000000000E+00  0.52945038971E+03  0.52945038971E+03  0.00000000000E+00 0.  1.
         -1   -1    0    0    0  501 -0.00000000000E+00 -0.00000000000E+00 -0.58831123462E+02  0.58831123462E+02  0.00000000000E+00 0. -1.
          6    2    1    2  502    0 -0.96582941321E+01  0.59806449713E+01  0.18972123879E+03  0.25553196157E+03  0.17080217848E+03 0.  0.
         24    2    3    3    0    0  0.25889405858E+01  0.61197873496E+02  0.68092495790E+02  0.12131356414E+03  0.79551936033E+02 0.  0.
         -6    2    1    2    0  501  0.96582941321E+01 -0.59806449713E+01  0.28089802746E+03  0.33274955161E+03  0.17801548109E+03 0.  0.
        -24    2    5    5    0    0  0.53044108949E+02  0.46172960688E+02  0.12710014151E+03  0.16458829794E+03  0.77390193544E+02 0.  0.
          5    1    3    3  502    0 -0.12247234718E+02 -0.55217228524E+02  0.12162874300E+03  0.13421839743E+03  0.47000000000E+01 0. -1.
        -11    1    4    4    0    0 -0.38030552379E+02  0.22214493341E+02  0.31943905250E+02  0.54407901184E+02  0.00000000000E+00 0.  1.
         12    1    4    4    0    0  0.40619492965E+02  0.38983380155E+02  0.36148590540E+02  0.66905662952E+02  0.00000000000E+00 0. -1.
         -5    1    5    5    0  501 -0.43385814817E+02 -0.52153605659E+02  0.15379788595E+03  0.16816125366E+03  0.47000000000E+01 0.  1.
         11    1    6    6    0    0  0.15835546390E+02  0.18561540278E+02 -0.47297435533E+01  0.24852882751E+02  0.00000000000E+00 0. -1.
        -12    1    6    6    0    0  0.37208562559E+02  0.27611420410E+02  0.13182988506E+03  0.13973541519E+03  0.00000000000E+00 0.  1.
</event>
<event>
12    1  0.2689284E-002  0.4447286E+03  0.7818608E-02  0.1029306E+00
          2   -1    0    0  502    0  0.00000000000E+00  0.00000000000E+00  0.69201005373E+03  0.69201005373E+03  0.00000000000E+00 0. -1.
         -2   -1    0    0    0  501 -0.00000000000E+00 -0.00000000000E+00 -0.31100676504E+03  0.31100676504E+03  0.00000000000E+00 0.  1.
          6    2    1    2  502    0  0.29960351220E+03 -0.28105463593E+03  0.33330797467E+03  0.55589017433E+03  0.17077970321E+03 0.  0.
         24    2    3    3    0    0  0.15488909898E+03 -0.79430367462E+02  0.10336168278E+03  0.21752351789E+03  0.79580318622E+02 0.  0.
         -6    2    1    2    0  501 -0.29960351220E+03  0.28105463593E+03  0.47695314014E+02  0.44712664445E+03  0.16998064683E+03 0.  0.
        -24    2    5    5    0    0 -0.21352454520E+03  0.13019864486E+03  0.70543306118E+02  0.27188041954E+03  0.79988661467E+02 0.  0.
          5    1    3    3  502    0  0.14471441322E+03 -0.20162426847E+03  0.22994629190E+03  0.33836665643E+03  0.47000000000E+01 0. -1.
        -11    1    4    4    0    0  0.20679117969E+02 -0.12794168328E+01 -0.12106336215E+02  0.23996378976E+02  0.00000000000E+00 0.  1.
         12    1    4    4    0    0  0.13420998101E+03 -0.78150950629E+02  0.11546801899E+03  0.19352713891E+03  0.00000000000E+00 0. -1.
         -5    1    5    5    0  501 -0.86078966994E+02  0.15085599107E+03 -0.22847992104E+02  0.17524622491E+03  0.47000000000E+01 0.  1.
         11    1    6    6    0    0 -0.14328830655E+01 -0.79612149750E+01  0.74864922233E+01  0.11021872054E+02  0.00000000000E+00 0. -1.
        -12    1    6    6    0    0 -0.21209166214E+03  0.13815985983E+03  0.63056813895E+02  0.26085854749E+03  0.00000000000E+00 0.  1.
</event>
<event>
12    1  0.2689284E-002  0.2287507E+03  0.7818608E-02  0.1127522E+00
          1   -1    0    0  502    0  0.00000000000E+00  0.00000000000E+00  0.29761726763E+03  0.29761726763E+03  0.00000000000E+00 0.  1.
         -1   -1    0    0    0  501 -0.00000000000E+00 -0.00000000000E+00 -0.50813877456E+03  0.50813877456E+03  0.00000000000E+00 0. -1.
          6    2    1    2  502    0  0.13724808501E+02  0.14963517707E+03 -0.43100907610E+03  0.48777928415E+03  0.17199055142E+03 0.  0.
         24    2    3    3    0    0  0.56454402740E+02  0.34224350098E+02 -0.17026459438E+03  0.19941276051E+03  0.80106249611E+02 0.  0.
         -6    2    1    2    0  501 -0.13724808501E+02 -0.14963517707E+03  0.22048756917E+03  0.31797675804E+03  0.17296067158E+03 0.  0.
        -24    2    5    5    0    0 -0.42014345568E+02 -0.16224962159E+03  0.14560508630E+03  0.23680472863E+03  0.82374106406E+02 0.  0.
          5    1    3    3  502    0 -0.42729594239E+02  0.11541082697E+03 -0.26074448172E+03  0.28836652364E+03  0.47000000000E+01 0. -1.
        -13    1    4    4    0    0  0.18142018057E+02  0.13090149299E+02 -0.14917017004E+03  0.15083840512E+03  0.00000000000E+00 0.  1.
         14    1    4    4    0    0  0.38312384684E+02  0.21134200799E+02 -0.21094424334E+02  0.48574355390E+02  0.00000000000E+00 0. -1.
         -5    1    5    5    0  501  0.28289537067E+02  0.12614444521E+02  0.74882482875E+02  0.81172029416E+02  0.47000000000E+01 0.  1.
         13    1    6    6    0    0 -0.31614209156E+02 -0.74513765442E+02  0.12013025497E+03  0.14485522987E+03  0.00000000000E+00 0. -1.
        -14    1    6    6    0    0 -0.10400136411E+02 -0.87735856145E+02  0.25474831326E+02  0.91949498759E+02  0.00000000000E+00 0.  1.
</event>
<event>
12    1  0.2689284E-002  0.2528447E+03  0.7818608E-02  0.1111520E+00
          1   -1    0    0  502    0  0.00000000000E+00  0.00000000000E+00  0.21136010744E+03  0.21136010744E+03  0.00000000000E+00 0.  1.
         -1   -1    0    0    0  501 -0.00000000000E+00 -0.00000000000E+00 -0.30750847858E+03  0.30750847858E+03  0.00000000000E+00 0. -1.
          6    2    1    2  502    0  0.26486596047E+02  0.19032943520E+03 -0.81746061997E+02  0.26920265504E+03  0.16988471724E+03 0.  0.
         24    2    3    3    0    0  0.14648984589E+02  0.20009705963E+03 -0.34157427688E+02  0.21898011381E+03  0.80821620602E+02 0.  0.
         -6    2    1    2    0  501 -0.26486596047E+02 -0.19032943520E+03 -0.14402309148E+02  0.24966593098E+03  0.15874135223E+03 0.  0.
        -24    2    5    5    0    0  0.23948122039E+02 -0.47477089784E+02 -0.18417345363E+02  0.98045800734E+02  0.80288192332E+02 0.  0.
          5    1    3    3  502    0  0.11837611458E+02 -0.97676244246E+01 -0.47588634309E+02  0.50222541227E+02  0.47000000000E+01 0. -1.
        -13    1    4    4    0    0  0.38951856241E+02  0.13996116166E+03 -0.47328726093E+02  0.15279522961E+03  0.00000000000E+00 0.  1.
         14    1    4    4    0    0 -0.24302871652E+02  0.60135897970E+02  0.13171298405E+02  0.66184884202E+02  0.00000000000E+00 0. -1.
         -5    1    5    5    0  501 -0.50434718085E+02 -0.14285234542E+03  0.40150362151E+01  0.15162013025E+03  0.47000000000E+01 0.  1.
         11    1    6    6    0    0 -0.29617426274E+01 -0.59424420085E+02  0.59939659955E+01  0.59799341553E+02  0.00000000000E+00 0. -1.
        -12    1    6    6    0    0  0.26909864666E+02  0.11947330301E+02 -0.24411311359E+02  0.38246459182E+02  0.00000000000E+00 0.  1.
</event>
<event>
12    1  0.2689284E-002  0.1816390E+03  0.7818608E-02  0.1166226E+00
          1   -1    0    0  502    0  0.00000000000E+00  0.00000000000E+00  0.36234732951E+03  0.36234732951E+03  0.00000000000E+00 0. -1.
         -1   -1    0    0    0  501 -0.00000000000E+00 -0.00000000000E+00 -0.96037347302E+02  0.96037347302E+02  0.00000000000E+00 0.  1.
          6    2    1    2  502    0 -0.29806067679E+02  0.50935947525E+02  0.18485953166E+03  0.25865863840E+03  0.17102155523E+03 0.  0.
         24    2    3    3    0    0  0.23501531909E+02  0.27291158621E+02  0.17948391121E+03  0.19990692769E+03  0.80319213236E+02 0.  0.
         -6    2    1    2    0  501  0.29806067679E+02 -0.50935947525E+02  0.81450450553E+02  0.19972603842E+03  0.17254982500E+03 0.  0.
        -24    2    5    5    0    0  0.71304657781E+02 -0.66740987533E+02  0.26376994841E+02  0.12882393835E+03  0.79756802824E+02 0.  0.
          5    1    3    3  502    0 -0.53307599589E+02  0.23644788904E+02  0.53756204544E+01  0.58751710711E+02  0.47000000000E+01 0. -1.
        -13    1    4    4    0    0  0.27374044164E+02  0.33843597594E+02  0.36742131170E+02  0.56962369990E+02  0.00000000000E+00 0.  1.
         14    1    4    4    0    0 -0.38725122546E+01 -0.65524389728E+01  0.14274178003E+03  0.14294455770E+03  0.00000000000E+00 0. -1.
         -5    1    5    5    0  501 -0.41498590102E+02  0.15805040008E+02  0.55073455711E+02  0.70902100068E+02  0.47000000000E+01 0.  1.
         13    1    6    6    0    0  0.18233944211E+02  0.16034740635E+02  0.17831639285E+02  0.30125686520E+02  0.00000000000E+00 0. -1.
        -14    1    6    6    0    0  0.53070713570E+02 -0.82775728168E+02  0.85453555569E+01  0.98698251829E+02  0.00000000000E+00 0.  1.
</event>
<event>
12    1  0.2689284E-002  0.2065631E+03  0.7818608E-02  0.1144317E+00
         -1   -1    0    0    0  501 -0.00000000000E+00  0.00000000000E+00  0.22040211582E+02  0.22040211582E+02  0.00000000000E+00 0. -1.
          1   -1    0    0  502    0  0.00000000000E+00 -0.00000000000E+00 -0.20068685618E+04  0.20068685618E+04  0.00000000000E+00 0.  1.
          6    2    1    2  502    0 -0.10809673784E+03 -0.41273015059E+02 -0.79891552227E+03  0.82503693375E+03  0.17038651304E+03 0.  0.
         24    2    3    3    0    0 -0.11275327381E+03  0.17795901719E+02 -0.42431605251E+03  0.44575119318E+03  0.74966785511E+02 0.  0.
         -6    2    1    2    0  501  0.10809673784E+03  0.41273015059E+02 -0.11859128280E+04  0.12038718396E+04  0.17184238203E+03 0.  0.
        -24    2    5    5    0    0  0.10435296868E+03 -0.25738175690E+02 -0.89494686004E+03  0.90522857422E+03  0.83407994437E+02 0.  0.
          5    1    3    3  502    0  0.46565359692E+01 -0.59068916778E+02 -0.37459946976E+03  0.37928574057E+03  0.47000000000E+01 0. -1.
        -11    1    4    4    0    0  0.22861044269E+01  0.13392657357E+02 -0.13670914010E+02  0.19273905531E+02  0.00000000000E+00 0.  1.
         12    1    4    4    0    0 -0.11503937824E+03  0.44032443623E+01 -0.41064513850E+03  0.42647728765E+03  0.00000000000E+00 0. -1.
         -5    1    5    5    0  501  0.37437691637E+01  0.67011190749E+02 -0.29096596792E+03  0.29864326542E+03  0.47000000000E+01 0.  1.
         13    1    6    6    0    0 -0.89829988516E+01 -0.14912263768E+02 -0.57488485445E+02  0.60066595024E+02  0.00000000000E+00 0. -1.
        -14    1    6    6    0    0  0.11333596753E+03 -0.10825911921E+02 -0.83745837460E+03  0.84516197920E+03  0.00000000000E+00 0.  1.
</event>
<event>
12    1  0.2689284E-002  0.1891445E+03  0.7818608E-02  0.1159235E+00
          1   -1    0    0  502    0  0.00000000000E+00  0.00000000000E+00  0.24494918590E+03  0.24494918590E+03  0.00000000000E+00 0.  1.
         -1   -1    0    0    0  501 -0.00000000000E+00 -0.00000000000E+00 -0.22589598942E+03  0.22589598942E+03  0.00000000000E+00 0. -1.
          6    2    1    2  502    0 -0.18013715006E+02 -0.73932928430E+02 -0.13041920233E+03  0.23014333458E+03  0.17368423728E+03 0.  0.
         24    2    3    3    0    0 -0.13273907394E+02 -0.11771591078E+03 -0.11118663906E+03  0.18185879451E+03  0.81712423581E+02 0.  0.
         -6    2    1    2    0  501  0.18013715006E+02  0.73932928430E+02  0.14947239881E+03  0.24070184074E+03  0.17264068552E+03 0.  0.
        -24    2    5    5    0    0 -0.55895504385E+02  0.29904994353E+02  0.70346143719E+02  0.12372284291E+03  0.79625032639E+02 0.  0.
          5    1    3    3  502    0 -0.47398076120E+01  0.43782982350E+02 -0.19232563269E+02  0.48284540068E+02  0.47000000000E+01 0. -1.
        -11    1    4    4    0    0 -0.18862860302E+01 -0.58053775932E+01  0.12962441796E+02  0.14327783544E+02  0.00000000000E+00 0.  1.
         12    1    4    4    0    0 -0.11387621364E+02 -0.11191053319E+03 -0.12414908085E+03  0.16753101097E+03  0.00000000000E+00 0. -1.
         -5    1    5    5    0  501  0.73909219391E+02  0.44027934077E+02  0.79126255090E+02  0.11697899784E+03  0.47000000000E+01 0.  1.
         11    1    6    6    0    0  0.31820022314E+00  0.42140250704E+02  0.17587718661E+02  0.45664316797E+02  0.00000000000E+00 0. -1.
        -12    1    6    6    0    0 -0.56213704608E+02 -0.12235256351E+02  0.52758425057E+02  0.78058526109E+02  0.00000000000E+00 0.  1.
</event>
<event>
12    1  0.2689284E-002  0.2004810E+03  0.7818608E-02  0.1149334E+00
          1   -1    0    0  502    0  0.00000000000E+00  0.00000000000E+00  0.30587229978E+02  0.30587229978E+02  0.00000000000E+00 0. -1.
         -1   -1    0    0    0  501 -0.00000000000E+00 -0.00000000000E+00 -0.15068325632E+04  0.15068325632E+04  0.00000000000E+00 0.  1.
          6    2    1    2  502    0  0.41809148725E+02  0.91790608923E+02 -0.10140916880E+04  0.10337794929E+04  0.17362190953E+03 0.  0.
         24    2    3    3    0    0  0.76372790098E+02  0.95244965448E+02 -0.57534611835E+03  0.59363594499E+03  0.80474050288E+02 0.  0.
         -6    2    1    2    0  501 -0.41809148725E+02 -0.91790608923E+02 -0.46215364527E+03  0.50364030032E+03  0.17289892848E+03 0.  0.
        -24    2    5    5    0    0 -0.94841137512E+02 -0.53203854513E+02 -0.31573304376E+03  0.34313356527E+03  0.78916393692E+02 0.  0.
          5    1    3    3  502    0 -0.34563641373E+02 -0.34543565243E+01 -0.43874556962E+03  0.44014354788E+03  0.47000000000E+01 0. -1.
        -13    1    4    4    0    0  0.24701538497E+02  0.84289148397E+02 -0.43269598170E+03  0.44152082524E+03  0.00000000000E+00 0.  1.
         14    1    4    4    0    0  0.51671251601E+02  0.10955817051E+02 -0.14265013665E+03  0.15211511974E+03  0.00000000000E+00 0. -1.
         -5    1    5    5    0  501  0.53031988787E+02 -0.38586754410E+02 -0.14642060150E+03  0.16050673504E+03  0.47000000000E+01 0.  1.
         13    1    6    6    0    0 -0.11112662944E+02 -0.48878643162E+02 -0.13112007049E+03  0.14037480515E+03  0.00000000000E+00 0. -1.
        -14    1    6    6    0    0 -0.83728474568E+02 -0.43252113515E+01 -0.18461297327E+03  0.20275876012E+03  0.00000000000E+00 0.  1.
</event>
<event>
12    1  0.2689284E-002  0.2075015E+03  0.7818608E-02  0.1143560E+00
         -1   -1    0    0    0  501 -0.00000000000E+00  0.00000000000E+00  0.93909198045E+02  0.93909198045E+02  0.00000000000E+00 0. -1.
          1   -1    0    0  502    0  0.00000000000E+00 -0.00000000000E+00 -0.46502112585E+03  0.46502112585E+03  0.00000000000E+00 0.  1.
          6    2    1    2  502    0  0.11343050439E+03 -0.22867587761E+02 -0.21834010082E+03  0.30096296721E+03  0.17180483726E+03 0.  0.
         24    2    3    3    0    0  0.63705731715E+02  0.52455101978E+02 -0.14322178052E+03  0.18344312781E+03  0.79554665151E+02 0.  0.
         -6    2    1    2    0  501 -0.11343050439E+03  0.22867587761E+02 -0.15277182698E+03  0.25796735669E+03  0.17268039871E+03 0.  0.
        -24    2    5    5    0    0 -0.14322730734E+03  0.31950567351E+02 -0.14980459348E+03  0.22632490959E+03  0.85127246809E+02 0.  0.
          5    1    3    3  502    0  0.49724772680E+02 -0.75322689739E+02 -0.75118320299E+02  0.11751983940E+03  0.47000000000E+01 0. -1.
        -11    1    4    4    0    0  0.66208645445E+02  0.27765901564E+02 -0.14137291484E+03  0.15855860453E+03  0.00000000000E+00 0.  1.
         12    1    4    4    0    0 -0.25029137300E+01  0.24689200414E+02 -0.18488656805E+01  0.24884523273E+02  0.00000000000E+00 0. -1.
         -5    1    5    5    0  501  0.29796802942E+02 -0.90829795904E+01 -0.29672334981E+01  0.31642447100E+02  0.47000000000E+01 0.  1.
         13    1    6    6    0    0 -0.14373683287E+03  0.28230664348E+02 -0.10229204398E+03  0.17866423759E+03  0.00000000000E+00 0. -1.
        -14    1    6    6    0    0  0.50952553130E+00  0.37199030034E+01 -0.47512549504E+02  0.47660671995E+02  0.00000000000E+00 0.  1.
</event>
<event>
12    1  0.2689284E-002  0.1987877E+03  0.7818608E-02  0.1150766E+00
         -2   -1    0    0    0  501 -0.00000000000E+00  0.00000000000E+00  0.38295823140E+02  0.38295823140E+02  0.00000000000E+00 0.  1.
          2   -1    0    0  502    0  0.00000000000E+00 -0.00000000000E+00 -0.11239995289E+04  0.11239995289E+04  0.00000000000E+00 0. -1.
          6    2    1    2  502    0 -0.32476616018E+02 -0.93452447130E+02 -0.37699135310E+03  0.42628688601E+03  0.17265554844E+03 0.  0.
         24    2    3    3    0    0 -0.74636084486E+02 -0.90578384543E+02 -0.34515773749E+03  0.37317238611E+03  0.79679214018E+02 0.  0.
         -6    2    1    2    0  501  0.32476616018E+02  0.93452447130E+02 -0.70871235269E+03  0.73600846606E+03  0.17218354392E+03 0.  0.
        -24    2    5    5    0    0  0.78880271799E+02  0.10329438268E+03 -0.53870719572E+03  0.55944684407E+03  0.76703988442E+02 0.  0.
          5    1    3    3  502    0  0.42159468468E+02 -0.28740625874E+01 -0.31833615610E+02  0.53114499904E+02  0.47000000000E+01 0. -1.
        -11    1    4    4    0    0 -0.17069145454E+02 -0.27961202951E+02 -0.23133608859E+02  0.40104219925E+02  0.00000000000E+00 0.  1.
         12    1    4    4    0    0 -0.57566939032E+02 -0.62617181592E+02 -0.32202412863E+03  0.33306816618E+03  0.00000000000E+00 0. -1.
         -5    1    5    5    0  501 -0.46403655781E+02 -0.98419355540E+01 -0.17000515697E+03  0.17656162199E+03  0.47000000000E+01 0.  1.
         13    1    6    6    0    0 -0.12144354251E+01  0.32025921825E+02 -0.23903074317E+03  0.24116971348E+03  0.00000000000E+00 0. -1.
        -14    1    6    6    0    0  0.80094707224E+02  0.71268460860E+02 -0.29967645255E+03  0.31827713059E+03  0.00000000000E+00 0.  1.
</event>
<event>
12    1  0.2689284E-002  0.1805355E+03  0.7818608E-02  0.1167286E+00
          1   -1    0    0  502    0  0.00000000000E+00  0.00000000000E+00  0.10016010790E+04  0.10016010790E+04  0.00000000000E+00 0. -1.
         -1   -1    0    0    0  501 -0.00000000000E+00 -0.00000000000E+00 -0.33209380982E+02  0.33209380982E+02  0.00000000000E+00 0.  1.
          6    2    1    2  502    0 -0.43137156379E+02 -0.49396978350E+02  0.40311298370E+03  0.44043414010E+03  0.16486745709E+03 0.  0.
         24    2    3    3    0    0 -0.77833605163E+02 -0.75062994300E+02  0.29377666643E+03  0.32279440103E+03  0.78733553178E+02 0.  0.
         -6    2    1    2    0  501  0.43137156379E+02  0.49396978350E+02  0.56527871430E+03  0.59437631986E+03  0.17158761332E+03 0.  0.
        -24    2    5    5    0    0 -0.22129719898E+02  0.76131423162E+02  0.20799894675E+03  0.23017113322E+03  0.58561682206E+02 0.  0.
          5    1    3    3  502    0  0.34696448784E+02  0.25666015949E+02  0.10933631728E+03  0.11763973907E+03  0.47000000000E+01 0. -1.
        -13    1    4    4    0    0 -0.82465532540E+02 -0.31134751316E+02  0.21696685433E+03  0.23418913868E+03  0.00000000000E+00 0.  1.
         14    1    4    4    0    0  0.46319273772E+01 -0.43928242984E+02  0.76809812092E+02  0.88605262352E+02  0.00000000000E+00 0. -1.
         -5    1    5    5    0  501  0.65266876278E+02 -0.26734444812E+02  0.35727976754E+03  0.36420518664E+03  0.47000000000E+01 0.  1.
         13    1    6    6    0    0 -0.24894168015E+02  0.63988847233E+02  0.20651491276E+03  0.21762973456E+03  0.00000000000E+00 0. -1.
        -14    1    6    6    0    0  0.27644481167E+01  0.12142575929E+02  0.14840339944E+01  0.12541398666E+02  0.00000000000E+00 0.  1.
</event>
<event>
12    1  0.2689284E-002  0.1823762E+03  0.7818608E-02  0.1165523E+00
         -1   -1    0    0    0  501 -0.00000000000E+00  0.00000000000E+00  0.33493348697E+02  0.33493348697E+02  0.00000000000E+00 0.  1.
          1   -1    0    0  502    0  0.00000000000E+00 -0.00000000000E+00 -0.11100059155E+04  0.11100059155E+04  0.00000000000E+00 0. -1.
          6    2    1    2  502    0 -0.28851710670E+02 -0.53733950261E+02 -0.72342841749E+03  0.74602536749E+03  0.17171317679E+03 0.  0.
         24    2    3    3    0    0 -0.23707498086E+02 -0.48334664379E+02 -0.18597923811E+03  0.20850390221E+03  0.77377742181E+02 0.  0.
         -6    2    1    2    0  501  0.28851710670E+02  0.53733950261E+02 -0.35308414932E+03  0.39747389671E+03  0.17203872660E+03 0.  0.
        -24    2    5    5    0    0 -0.43630946317E+02  0.54776821349E+02 -0.23071918120E+03  0.25517105568E+03  0.83527046215E+02 0.  0.
          5    1    3    3  502    0 -0.51442125848E+01 -0.53992858823E+01 -0.53744917939E+03  0.53752146528E+03  0.47000000000E+01 0. -1.
        -13    1    4    4    0    0 -0.13391808149E+01 -0.64249999673E+02 -0.10616299700E+03  0.12409850037E+03  0.00000000000E+00 0.  1.
         14    1    4    4    0    0 -0.22368317271E+02  0.15915335294E+02 -0.79816241106E+02  0.84405401838E+02  0.00000000000E+00 0. -1.
         -5    1    5    5    0  501  0.72482656987E+02 -0.10428710875E+01 -0.12236496812E+03  0.14230284104E+03  0.47000000000E+01 0.  1.
         11    1    6    6    0    0 -0.17397332623E+02  0.72843617576E+02 -0.13625145824E+03  0.15547771440E+03  0.00000000000E+00 0. -1.
        -12    1    6    6    0    0 -0.26233613694E+02 -0.18066796227E+02 -0.94467722957E+02  0.99693341272E+02  0.00000000000E+00 0.  1.
</event>
<event>
12    1  0.2689284E-002  0.3858530E+03  0.7818608E-02  0.1048791E+00
          1   -1    0    0  502    0  0.00000000000E+00  0.00000000000E+00  0.87596355660E+03  0.87596355660E+03  0.00000000000E+00 0.  1.
         -1   -1    0    0    0  501 -0.00000000000E+00 -0.00000000000E+00 -0.18022252460E+03  0.18022252460E+03  0.00000000000E+00 0. -1.
          6    2    1    2  502    0  0.30446963598E+03 -0.16180413878E+03  0.22197190886E+03  0.44523999290E+03  0.17344965954E+03 0.  0.
         24    2    3    3    0    0  0.28905137708E+03 -0.10622499132E+03  0.14861303563E+03  0.35180349777E+03  0.82737049202E+02 0.  0.
         -6    2    1    2    0  501 -0.30446963598E+03  0.16180413878E+03  0.47376912314E+03  0.61094608830E+03  0.17296127372E+03 0.  0.
        -24    2    5    5    0    0 -0.70142699972E+02  0.77474287970E+02  0.13492525295E+03  0.19040132845E+03  0.84413140769E+02 0.  0.
          5    1    3    3  502    0  0.15418258894E+02 -0.55579147463E+02  0.73358873233E+02  0.93436495129E+02  0.47000000000E+01 0. -1.
        -11    1    4    4    0    0  0.10032762693E+03 -0.34808932074E+02  0.96281399855E+02  0.14334365154E+03  0.00000000000E+00 0.  1.
         12    1    4    4    0    0  0.18872375015E+03 -0.71416059245E+02  0.52331635777E+02  0.20845984624E+03  0.00000000000E+00 0. -1.
         -5    1    5    5    0  501 -0.23432693601E+03  0.84329850813E+02  0.33884387018E+03  0.42054475985E+03  0.47000000000E+01 0.  1.
         13    1    6    6    0    0 -0.57639517595E+02  0.83644623549E+02  0.68478085902E+02  0.12250708260E+03  0.00000000000E+00 0. -1.
        -14    1    6    6    0    0 -0.12503182377E+02 -0.61703355790E+01  0.66447167053E+02  0.67894245854E+02  0.00000000000E+00 0.  1.
</event>
<event>
12    1  0.2689284E-002  0.2737839E+03  0.7818608E-02  0.1099133E+00
          2   -1    0    0  502    0  0.00000000000E+00  0.00000000000E+00  0.22729196894E+04  0.22729196894E+04  0.00000000000E+00 0. -1.
         -2   -1    0    0    0  501 -0.00000000000E+00 -0.00000000000E+00 -0.33655051639E+02  0.33655051639E+02  0.00000000000E+00 0.  1.
          6    2    1    2  502    0  0.73312245496E+02  0.19284224401E+03  0.12612496485E+04  0.12895592281E+04  0.17219033241E+03 0.  0.
         24    2    3    3    0    0  0.64728948750E+02  0.88441467271E+02  0.41250977786E+03  0.43436647021E+03  0.80611312321E+02 0.  0.
         -6    2    1    2    0  501 -0.73312245496E+02 -0.19284224401E+03  0.97801498925E+03  0.10170155129E+04  0.18773496712E+03 0.  0.
        -24    2    5    5    0    0  0.29737808792E+01 -0.36778769965E+02  0.17841330525E+03  0.19874886394E+03  0.79424694745E+02 0.  0.
          5    1    3    3  502    0  0.85832967460E+01  0.10440077674E+03  0.84873987066E+03  0.85519275792E+03  0.47000000000E+01 0. -1.
        -11    1    4    4    0    0  0.82913556699E+02  0.69478003935E+02  0.35549594638E+03  0.37159012205E+03  0.00000000000E+00 0.  1.
         12    1    4    4    0    0 -0.18184607949E+02  0.18963463336E+02  0.57013831481E+02  0.62776348158E+02  0.00000000000E+00 0. -1.
         -5    1    5    5    0  501 -0.76286026375E+02 -0.15606347405E+03  0.79960168400E+03  0.81826664897E+03  0.47000000000E+01 0.  1.
         11    1    6    6    0    0 -0.11964658878E+02  0.22106785661E+02  0.71377576116E+02  0.75674443550E+02  0.00000000000E+00 0. -1.
        -12    1    6    6    0    0  0.14938439758E+02 -0.58885555626E+02  0.10703572913E+03  0.12307442039E+03  0.00000000000E+00 0.  1.
</event>
<event>
12    1  0.2689284E-002  0.1996525E+03  0.7818608E-02  0.1150033E+00
         -1   -1    0    0    0  501 -0.00000000000E+00  0.00000000000E+00  0.11244853174E+03  0.11244853174E+03  0.00000000000E+00 0. -1.
          1   -1    0    0  502    0  0.00000000000E+00 -0.00000000000E+00 -0.59071689623E+03  0.59071689623E+03  0.00000000000E+00 0.  1.
          6    2    1    2  502    0  0.68839320372E+02 -0.67047980151E+02 -0.46008483649E+03  0.50078816263E+03  0.17284803556E+03 0.  0.
         24    2    3    3    0    0  0.86184564148E+02 -0.59941370872E+02 -0.19465522936E+03  0.23465600051E+03  0.78434897964E+02 0.  0.
         -6    2    1    2    0  501 -0.68839320372E+02  0.67047980151E+02 -0.18183528010E+02  0.20237726534E+03  0.17717684150E+03 0.  0.
        -24    2    5    5    0    0  0.15678480651E+02  0.23273233663E+01  0.30203496271E+02  0.85349848792E+02  0.78237550525E+02 0.  0.
          5    1    3    3  502    0 -0.17345243776E+02 -0.71066092791E+01 -0.26542960712E+03  0.26613216212E+03  0.47000000000E+01 0. -1.
        -13    1    4    4    0    0  0.30927806120E+02 -0.68430307301E+02 -0.11461936201E+03  0.13702858934E+03  0.00000000000E+00 0.  1.
         14    1    4    4    0    0  0.55256758028E+02  0.84889364286E+01 -0.80035867356E+02  0.97627411176E+02  0.00000000000E+00 0. -1.
         -5    1    5    5    0  501 -0.84517801023E+02  0.64720656785E+02 -0.48387024281E+02  0.11702741655E+03  0.47000000000E+01 0.  1.
         11    1    6    6    0    0 -0.22142718763E+02 -0.76574493457E+01  0.38775863692E+02  0.45304570738E+02  0.00000000000E+00 0. -1.
        -12    1    6    6    0    0  0.37821199414E+02  0.99847727121E+01 -0.85723674202E+01  0.40045278054E+02  0.00000000000E+00 0.  1.
</event>
<event>
12    1  0.2689284E-002  0.3168956E+03  0.7818608E-02  0.1077087E+00
          2   -1    0    0  502    0  0.00000000000E+00  0.00000000000E+00  0.91338644222E+03  0.91338644222E+03  0.00000000000E+00 0.  1.
         -2   -1    0    0    0  501 -0.00000000000E+00 -0.00000000000E+00 -0.11163741947E+03  0.11163741947E+03  0.00000000000E+00 0. -1.
          6    2    1    2  502    0 -0.31407719969E+02  0.26253386459E+03  0.34000681997E+03  0.46597567388E+03  0.17781511772E+03 0.  0.
         24    2    3    3    0    0  0.38896911251E+02  0.14318244244E+03  0.24697821191E+03  0.29905079540E+03  0.80118409482E+02 0.  0.
         -6    2    1    2    0  501  0.31407719969E+02 -0.26253386459E+03  0.46174220279E+03  0.55904818782E+03  0.17151833586E+03 0.  0.
        -24    2    5    5    0    0  0.73496200838E+02 -0.15914208179E+03  0.21787428184E+03  0.29080398221E+03  0.79811400507E+02 0.  0.
          5    1    3    3  502    0 -0.70304631220E+02  0.11935142215E+03  0.93028608053E+02  0.16692487848E+03  0.47000000000E+01 0. -1.
        -13    1    4    4    0    0  0.44392600032E+02  0.50265837160E+02  0.59133744385E+02  0.89410050039E+02  0.00000000000E+00 0.  1.
         14    1    4    4    0    0 -0.54956887813E+01  0.92916605284E+02  0.18784446753E+03  0.20964074536E+03  0.00000000000E+00 0. -1.
         -5    1    5    5    0  501 -0.42088480869E+02 -0.10339178280E+03  0.24386792095E+03  0.26824420560E+03  0.47000000000E+01 0.  1.
         11    1    6    6    0    0  0.72742553131E+02 -0.63766309305E+02  0.12011140641E+03  0.15422182461E+03  0.00000000000E+00 0. -1.
        -12    1    6    6    0    0  0.75364770717E+00 -0.95375772484E+02  0.97762875433E+02  0.13658215760E+03  0.00000000000E+00 0.  1.
</event>
<event>
12    1  0.2689284E-002  0.1764315E+03  0.7818608E-02  0.1171302E+00
          2   -1    0    0  502    0  0.00000000000E+00  0.00000000000E+00  0.16218984373E+03  0.16218984373E+03  0.00000000000E+00 0. -1.
         -2   -1    0    0    0  501 -0.00000000000E+00 -0.00000000000E+00 -0.20475843451E+03  0.20475843451E+03  0.00000000000E+00 0.  1.
          6    2    1    2  502    0  0.42467216084E+02 -0.19600232631E+01  0.24594544845E+02  0.17861042691E+03  0.17172503263E+03 0.  0.
         24    2    3    3    0    0  0.51173890421E+02 -0.63221793030E+02  0.22292467925E+02  0.11651211638E+03  0.80388786294E+02 0.  0.
         -6    2    1    2    0  501 -0.42467216084E+02  0.19600232631E+01 -0.67163135630E+02  0.18833785133E+03  0.17074235948E+03 0.  0.
        -24    2    5    5    0    0 -0.92432740958E+02  0.14631841232E+02 -0.49254765553E+02  0.13356624951E+03  0.81584365539E+02 0.  0.
          5    1    3    3  502    0 -0.87066743377E+01  0.61261769767E+02  0.23020769205E+01  0.62098310533E+02  0.47000000000E+01 0. -1.
        -11    1    4    4    0    0  0.52618727390E+02 -0.77776206802E+02  0.52444414163E+01  0.94049843075E+02  0.00000000000E+00 0.  1.
         12    1    4    4    0    0 -0.14448369687E+01  0.14554413772E+02  0.17048026508E+02  0.22462273303E+02  0.00000000000E+00 0. -1.
         -5    1    5    5    0  501  0.49965524875E+02 -0.12671817969E+02 -0.17908370077E+02  0.54771601816E+02  0.47000000000E+01 0.  1.
         13    1    6    6    0    0 -0.42312312264E+02 -0.16396243187E+02 -0.58353333598E+02  0.73920769083E+02  0.00000000000E+00 0. -1.
        -14    1    6    6    0    0 -0.50120428695E+02  0.31028084419E+02  0.90985680454E+01  0.59645480430E+02  0.00000000000E+00 0.  1.
</event>
<event>
12    1  0.2689284E-002  0.3198127E+03  0.7818608E-02  0.1075736E+00
         -2   -1    0    0    0  501 -0.00000000000E+00  0.00000000000E+00  0.21505217110E+03  0.21505217110E+03  0.00000000000E+00 0.  1.
          2   -1    0    0  502    0  0.00000000000E+00 -0.00000000000E+00 -0.53863808238E+03  0.53863808238E+03  0.00000000000E+00 0. -1.
          6    2    1    2  502    0 -0.81045713661E+02  0.25687809867E+03 -0.29050245927E+03  0.43172148268E+03  0.17157212618E+03 0.  0.
         24    2    3    3    0    0  0.21807056599E+02  0.13600398766E+03 -0.13867382554E+03  0.21203245909E+03  0.82186990711E+02 0.  0.
         -6    2    1    2    0  501  0.81045713661E+02 -0.25687809867E+03 -0.33083452009E+02  0.32196877080E+03  0.17324724903E+03 0.  0.
        -24    2    5    5    0    0  0.32562257411E+02 -0.20963419863E+03 -0.80563650182E+02  0.23914914246E+03  0.75465308348E+02 0.  0.
          5    1    3    3  502    0 -0.10285277026E+03  0.12087411101E+03 -0.15182863373E+03  0.21968902359E+03  0.47000000000E+01 0. -1.
        -11    1    4    4    0    0  0.32954129593E+02  0.10780749742E+02 -0.30753296513E+02  0.46346137581E+02  0.00000000000E+00 0.  1.
         12    1    4    4    0    0 -0.11147072993E+02  0.12522323792E+03 -0.10792052903E+03  0.16568632151E+03  0.00000000000E+00 0. -1.
         -5    1    5    5    0  501  0.48483456249E+02 -0.47243900036E+02  0.47480198173E+02  0.82819628344E+02  0.47000000000E+01 0.  1.
         11    1    6    6    0    0  0.17024583997E+01 -0.15400532976E+02 -0.33524787249E+02  0.36932182994E+02  0.00000000000E+00 0. -1.
        -12    1    6    6    0    0  0.30859799012E+02 -0.19423366566E+03 -0.47038862933E+02  0.20221695947E+03  0.00000000000E+00 0.  1.
</event>
<event>
12    1  0.2689284E-002  0.2130738E+03  0.7818608E-02  0.1139155E+00
          1   -1    0    0  502    0  0.00000000000E+00  0.00000000000E+00  0.24625971411E+03  0.24625971411E+03  0.00000000000E+00 0.  1.
         -1   -1    0    0    0  501 -0.00000000000E+00 -0.00000000000E+00 -0.20748953625E+03  0.20748953625E+03  0.00000000000E+00 0. -1.
          6    2    1    2  502    0  0.12571247251E+02  0.12195823879E+03  0.94960731231E+02  0.23161641525E+03  0.17203713283E+03 0.  0.
         24    2    3    3    0    0 -0.43292079207E+02  0.81878301292E+02  0.91072620518E+02  0.16259236120E+03  0.97794648975E+02 0.  0.
         -6    2    1    2    0  501 -0.12571247251E+02 -0.12195823879E+03 -0.56190553368E+02  0.22213283511E+03  0.17650430555E+03 0.  0.
        -24    2    5    5    0    0 -0.45220945751E+02 -0.19339419359E+02 -0.63972927294E+02  0.11406211633E+03  0.80614414829E+02 0.  0.
          5    1    3    3  502    0  0.55863326458E+02  0.40079937499E+02  0.38881107129E+01  0.69024054052E+02  0.47000000000E+01 0. -1.
        -13    1    4    4    0    0  0.27385334421E+02  0.36304562396E+02  0.54246183154E+02  0.70785776671E+02  0.00000000000E+00 0.  1.
         14    1    4    4    0    0 -0.70677413627E+02  0.45573738896E+02  0.36826437364E+02  0.91806584529E+02  0.00000000000E+00 0. -1.
         -5    1    5    5    0  501  0.32649698500E+02 -0.10261881943E+03  0.77823739265E+01  0.10807071878E+03  0.47000000000E+01 0.  1.
         13    1    6    6    0    0 -0.26265902348E+02 -0.31754445100E+02  0.49538607277E+01  0.41506422947E+02  0.00000000000E+00 0. -1.
        -14    1    6    6    0    0 -0.18955043403E+02  0.12415025741E+02 -0.68926788022E+02  0.72555693378E+02  0.00000000000E+00 0.  1.
</event>
<event>
12    1  0.2689284E-002  0.2295926E+03  0.7818608E-02  0.1126927E+00
          2   -1    0    0  502    0  0.00000000000E+00  0.00000000000E+00  0.18963709062E+04  0.18963709062E+04  0.00000000000E+00 0.  1.
         -2   -1    0    0    0  501 -0.00000000000E+00 -0.00000000000E+00 -0.35280279704E+02  0.35280279704E+02  0.00000000000E+00 0. -1.
          6    2    1    2  502    0  0.14504005511E+03 -0.37808684108E+02  0.13810391605E+04  0.14002900896E+04  0.17628686295E+03 0.  0.
         24    2    3    3    0    0  0.15853938925E+03  0.74141389655E+01  0.11899678376E+04  0.12034203962E+04  0.83710740475E+02 0.  0.
         -6    2    1    2    0  501 -0.14504005511E+03  0.37808684108E+02  0.48005146596E+03  0.53136109626E+03  0.17154909054E+03 0.  0.
        -24    2    5    5    0    0 -0.17195741348E+02  0.28600506838E+02  0.28241790715E+03  0.29575533941E+03  0.81226005702E+02 0.  0.
          5    1    3    3  502    0 -0.13499334138E+02 -0.45222823074E+02  0.19107132294E+03  0.19686969345E+03  0.47000000000E+01 0. -1.
        -13    1    4    4    0    0  0.11454542297E+03 -0.20297968227E+02  0.60051113634E+03  0.61167498421E+03  0.00000000000E+00 0.  1.
         14    1    4    4    0    0  0.43993966271E+02  0.27712107193E+02  0.58945670125E+03  0.59174541198E+03  0.00000000000E+00 0. -1.
         -5    1    5    5    0  501 -0.12784431376E+03  0.92081772704E+01  0.19763355881E+03  0.23560575684E+03  0.47000000000E+01 0.  1.
         13    1    6    6    0    0  0.25180652654E+02 -0.87746556837E+01  0.14040011616E+03  0.14290994530E+03  0.00000000000E+00 0. -1.
        -14    1    6    6    0    0 -0.42376394002E+02  0.37375162522E+02  0.14201779099E+03  0.15284539411E+03  0.00000000000E+00 0.  1.
</event>
<event>
12    1  0.2689284E-002  0.2013416E+03  0.7818608E-02  0.1148612E+00
          2   -1    0    0  502    0  0.00000000000E+00  0.00000000000E+00  0.55712340623E+03  0.55712340623E+03  0.00000000000E+00 0.  1.
         -2   -1    0    0    0  501 -0.00000000000E+00 -0.00000000000E+00 -0.80559088108E+02  0.80559088108E+02  0.00000000000E+00 0. -1.
          6    2    1    2  502    0 -0.99289893337E+02  0.34810247754E+02  0.13845952668E+03  0.24385872386E+03  0.17095555096E+03 0.  0.
         24    2    3    3    0    0 -0.15884136723E+02  0.66499368754E+02  0.58561966055E+02  0.12399867705E+03  0.85274241115E+02 0.  0.
         -6    2    1    2    0  501  0.99289893337E+02 -0.34810247754E+02  0.33810479144E+03  0.39382377048E+03  0.17237191168E+03 0.  0.
        -24    2    5    5    0    0 -0.13735397969E+02  0.15219025177E+01  0.96583689653E+02  0.12465974201E+03  0.77592943141E+02 0.  0.
          5    1    3    3  502    0 -0.83405756614E+02 -0.31689120999E+02  0.79897560627E+02  0.11986004681E+03  0.47000000000E+01 0. -1.
        -11    1    4    4    0    0 -0.45299439705E+02  0.12590211380E+02  0.17716813230E+02  0.50243786991E+02  0.00000000000E+00 0.  1.
         12    1    4    4    0    0  0.29415302982E+02  0.53909157374E+02  0.40845152825E+02  0.73754890059E+02  0.00000000000E+00 0. -1.
         -5    1    5    5    0  501  0.11302529131E+03 -0.36332150272E+02  0.24152110178E+03  0.26916402848E+03  0.47000000000E+01 0.  1.
         11    1    6    6    0    0 -0.97248176726E+01  0.26079802703E+02  0.95802816062E+02  0.99764260901E+02  0.00000000000E+00 0. -1.
        -12    1    6    6    0    0 -0.40105802963E+01 -0.24557900186E+02  0.78087359128E+00  0.24895481104E+02  0.00000000000E+00 0.  1.
</event>
<event>
12    1  0.2689284E-002  0.2251802E+03  0.7818608E-02  0.1130079E+00
          2   -1    0    0  502    0  0.00000000000E+00  0.00000000000E+00  0.24215676341E+04  0.24215676341E+04  0.00000000000E+00 0.  1.
         -2   -1    0    0    0  501 -0.00000000000E+00 -0.00000000000E+00 -0.34077269025E+02  0.34077269025E+02  0.00000000000E+00 0. -1.
          6    2    1    2  502    0 -0.10415844754E+03  0.95845553142E+02  0.42466840778E+03  0.47970917408E+03  0.17245951084E+03 0.  0.
         24    2    3    3    0    0 -0.12753829736E+03  0.37843423263E+02  0.34130488754E+03  0.37539028339E+03  0.82040822918E+02 0.  0.
         -6    2    1    2    0  501  0.10415844754E+03 -0.95845553142E+02  0.19628219573E+04  0.19759357290E+04  0.17781062125E+03 0.  0.
        -24    2    5    5    0    0  0.43802540327E+02 -0.12425948334E+03  0.11456457008E+04  0.11560276176E+04  0.80849856234E+02 0.  0.
          5    1    3    3  502    0  0.23379849822E+02  0.58002129880E+02  0.83363520234E+02  0.10431889069E+03  0.47000000000E+01 0. -1.
        -13    1    4    4    0    0 -0.11911818628E+02  0.25550583124E+02  0.14092143840E+03  0.14371351892E+03  0.00000000000E+00 0.  1.
         14    1    4    4    0    0 -0.11562647873E+03  0.12292840138E+02  0.20038344915E+03  0.23167676447E+03  0.00000000000E+00 0. -1.
         -5    1    5    5    0  501  0.60355907212E+02  0.28413930198E+02  0.81717625652E+03  0.81990811143E+03  0.47000000000E+01 0.  1.
         11    1    6    6    0    0  0.61333993503E+02 -0.10968215076E+03  0.10590854166E+04  0.10665148628E+04  0.00000000000E+00 0. -1.
        -12    1    6    6    0    0 -0.17531453176E+02 -0.14577332578E+02  0.86560284153E+02  0.89512754779E+02  0.00000000000E+00 0.  1.
</event>
<event>
12    1  0.2689284E-002  0.1824641E+03  0.7818608E-02  0.1165439E+00
          2   -1    0    0  502    0  0.00000000000E+00  0.00000000000E+00  0.18137111361E+03  0.18137111361E+03  0.00000000000E+00 0. -1.
         -2   -1    0    0    0  501 -0.00000000000E+00 -0.00000000000E+00 -0.19617438422E+03  0.19617438422E+03  0.00000000000E+00 0.  1.
          6    2    1    2  502    0 -0.24246219440E+02  0.22674394349E+02 -0.54439117566E+02  0.18379631739E+03  0.17238173177E+03 0.  0.
         24    2    3    3    0    0  0.29106102103E+02  0.65382586933E+02 -0.36608978810E+02  0.11301168787E+03  0.79431583216E+02 0.  0.
         -6    2    1    2    0  501  0.24246219440E+02 -0.22674394349E+02  0.39635846949E+02  0.19374918044E+03  0.18672369224E+03 0.  0.
        -24    2    5    5    0    0 -0.54035466409E+02 -0.19967381717E+02  0.55773222710E+02  0.11363766346E+03  0.80525388685E+02 0.  0.
          5    1    3    3  502    0 -0.53352321543E+02 -0.42708192584E+02 -0.17830138756E+02  0.70784629517E+02  0.47000000000E+01 0. -1.
        -13    1    4    4    0    0  0.31719897168E+02 -0.84328735025E+01 -0.78406810345E+01  0.33745244272E+02  0.00000000000E+00 0.  1.
         14    1    4    4    0    0 -0.26137950652E+01  0.73815460435E+02 -0.28768297775E+02  0.79266443599E+02  0.00000000000E+00 0. -1.
         -5    1    5    5    0  501  0.78281685848E+02 -0.27070126313E+01 -0.16137375761E+02  0.80111516982E+02  0.47000000000E+01 0.  1.
         13    1    6    6    0    0 -0.50543911960E+02 -0.72637984929E+01 -0.51351174400E+01  0.51320748590E+02  0.00000000000E+00 0. -1.
        -14    1    6    6    0    0 -0.34915544489E+01 -0.12703583224E+02  0.60908340150E+02  0.62316914871E+02  0.00000000000E+00 0.  1.
</event>
<event>
12    1  0.2689284E-002  0.2248912E+03  0.7818608E-02  0.1130288E+00
         -1   -1    0    0    0  501 -0.00000000000E+00  0.00000000000E+00  0.15573442736E+03  0.15573442736E+03  0.00000000000E+00 0.  1.
          1   -1    0    0  502    0  0.00000000000E+00 -0.00000000000E+00 -0.39074595552E+03  0.39074595552E+03  0.00000000000E+00 0. -1.
          6    2    1    2  502    0 -0.26447416512E+02  0.14425331777E+03 -0.51028277298E+01  0.22468085358E+03  0.17013806624E+03 0.  0.
         24    2    3    3    0    0 -0.61134858967E+02  0.10208304194E+03  0.46217063883E+02  0.14959841819E+03  0.78008020742E+02 0.  0.
         -6    2    1    2    0  501  0.26447416512E+02 -0.14425331777E+03 -0.22990870042E+03  0.32179952930E+03  0.17084624960E+03 0.  0.
        -24    2    5    5    0    0 -0.22788666181E+02 -0.14034700306E+03 -0.21548768180E+03  0.27013225812E+03  0.79497743954E+02 0.  0.
          5    1    3    3  502    0  0.34687442454E+02  0.42170275837E+02 -0.51319891613E+02  0.75082435385E+02  0.47000000000E+01 0. -1.
        -11    1    4    4    0    0 -0.47933677435E+02  0.90694937959E+02  0.25885324887E+01  0.10261534829E+03  0.00000000000E+00 0.  1.
         12    1    4    4    0    0 -0.13201181532E+02  0.11388103977E+02  0.43628531394E+02  0.46983069905E+02  0.00000000000E+00 0. -1.
         -5    1    5    5    0  501  0.49236082694E+02 -0.39063147166E+01 -0.14421018618E+02  0.51667271185E+02  0.47000000000E+01 0.  1.
         13    1    6    6    0    0 -0.47744003649E+02 -0.10268206894E+03 -0.18009816010E+03  0.21274032161E+03  0.00000000000E+00 0. -1.
        -14    1    6    6    0    0  0.24955337467E+02 -0.37664934118E+02 -0.35389521706E+02  0.57391936513E+02  0.00000000000E+00 0.  1.
</event>
<event>
12    1  0.2689284E-002  0.2864071E+03  0.7818608E-02  0.1092240E+00
          1   -1    0    0  502    0  0.00000000000E+00  0.00000000000E+00  0.12469897539E+03  0.12469897539E+03  0.00000000000E+00 0.  1.
         -1   -1    0    0    0  501 -0.00000000000E+00 -0.00000000000E+00 -0.68732086999E+03  0.68732086999E+03  0.00000000000E+00 0. -1.
          6    2    1    2  502    0  0.17692476150E+03 -0.14644968624E+03 -0.19660460854E+03  0.34687636085E+03  0.17005868336E+03 0.  0.
         24    2    3    3    0    0  0.32569764587E+02 -0.54739126525E+02 -0.26304607686E+02  0.10547757836E+03  0.79852524153E+02 0.  0.
         -6    2    1    2    0  501 -0.17692476150E+03  0.14644968624E+03 -0.36601728606E+03  0.46514348453E+03  0.17216249789E+03 0.  0.
        -24    2    5    5    0    0 -0.21352260777E+02  0.65649147226E+02 -0.18547397399E+03  0.21345020370E+03  0.79966648410E+02 0.  0.
          5    1    3    3  502    0  0.14435499692E+03 -0.91710559714E+02 -0.17030000086E+03  0.24139878249E+03  0.47000000000E+01 0. -1.
        -13    1    4    4    0    0  0.30604471661E+01  0.17671100285E+02  0.85508293445E+01  0.19868336735E+02  0.00000000000E+00 0.  1.
         14    1    4    4    0    0  0.29509317421E+02 -0.72410226810E+02 -0.34855437030E+02  0.85609241626E+02  0.00000000000E+00 0. -1.
         -5    1    5    5    0  501 -0.15557250072E+03  0.80800539013E+02 -0.18054331207E+03  0.25169328084E+03  0.47000000000E+01 0.  1.
         13    1    6    6    0    0  0.38143481055E+01  0.15827667548E+02 -0.14138932927E+03  0.14232359869E+03  0.00000000000E+00 0. -1.
        -14    1    6    6    0    0 -0.25166608883E+02  0.49821479678E+02 -0.44084644719E+02  0.71126605008E+02  0.00000000000E+00 0.  1.
</event>
<event>
12    1  0.2689284E-002  0.2125857E+03  0.7818608E-02  0.1139535E+00
          3   -1    0    0  502    0  0.00000000000E+00  0.00000000000E+00  0.45607075462E+03  0.45607075462E+03  0.00000000000E+00 0.  1.
         -3   -1    0    0    0  501 -0.00000000000E+00 -0.00000000000E+00 -0.10064398039E+03  0.10064398039E+03  0.00000000000E+00 0. -1.
          6    2    1    2  502    0 -0.10972009822E+03  0.60230532593E+02  0.14307008681E+03  0.25617438298E+03  0.17172666579E+03 0.  0.
         24    2    3    3    0    0 -0.34718813597E+02 -0.76902768138E+01  0.12571023902E+03  0.15340335904E+03  0.80405161489E+02 0.  0.
         -6    2    1    2    0  501  0.10972009822E+03 -0.60230532593E+02  0.21235668742E+03  0.30054035204E+03  0.17193872019E+03 0.  0.
        -24    2    5    5    0    0  0.79597248209E+02 -0.83748792102E+02  0.77106035592E+02  0.15991559091E+03  0.79234294276E+02 0.  0.
          5    1    3    3  502    0 -0.75001284626E+02  0.67920809407E+02  0.17359847791E+02  0.10277102394E+03  0.47000000000E+01 0. -1.
        -11    1    4    4    0    0  0.19236031486E+02 -0.19310311407E+02  0.18874708279E+02  0.33153697329E+02  0.00000000000E+00 0.  1.
         12    1    4    4    0    0 -0.53954845083E+02  0.11620034593E+02  0.10683553074E+03  0.12024966171E+03  0.00000000000E+00 0. -1.
         -5    1    5    5    0  501  0.30122850013E+02  0.23518259509E+02  0.13525065183E+03  0.14062476113E+03  0.47000000000E+01 0.  1.
         11    1    6    6    0    0  0.38117212376E+02 -0.48828261417E+01 -0.49930199444E+01  0.38751698267E+02  0.00000000000E+00 0. -1.
        -12    1    6    6    0    0  0.41480035833E+02 -0.78865965961E+02  0.82099055537E+02  0.12116389264E+03  0.00000000000E+00 0.  1.
</event>
<event>
12    1  0.2689284E-002  0.1791619E+03  0.7818608E-02  0.1168617E+00
         -2   -1    0    0    0  501 -0.00000000000E+00  0.00000000000E+00  0.60414456117E+02  0.60414456117E+02  0.00000000000E+00 0.  1.
          2   -1    0    0  502    0  0.00000000000E+00 -0.00000000000E+00 -0.53719225405E+03  0.53719225405E+03  0.00000000000E+00 0. -1.
          6    2    1    2  502    0 -0.16405646251E+02  0.47771587605E+02 -0.20880394313E+03  0.27593269413E+03  0.17317186612E+03 0.  0.
         24    2    3    3    0    0  0.18688428767E+02 -0.16304519147E+02 -0.13573364948E+03  0.17249817682E+03  0.10352247433E+03 0.  0.
         -6    2    1    2    0  501  0.16405646251E+02 -0.47771587605E+02 -0.26797385481E+03  0.32167401604E+03  0.17062507412E+03 0.  0.
        -24    2    5    5    0    0  0.26730027056E+02 -0.76061472911E+02 -0.26822656199E+03  0.29119345977E+03  0.79676222577E+02 0.  0.
          5    1    3    3  502    0 -0.35094075019E+02  0.64076106753E+02 -0.73070293646E+02  0.10343451731E+03  0.47000000000E+01 0. -1.
        -13    1    4    4    0    0 -0.26976117309E+01 -0.24783158672E+02  0.85781958921E+01  0.26364132976E+02  0.00000000000E+00 0.  1.
         14    1    4    4    0    0  0.21386040498E+02  0.84786395247E+01 -0.14431184537E+03  0.14613404385E+03  0.00000000000E+00 0. -1.
         -5    1    5    5    0  501 -0.10324380805E+02  0.28289885306E+02  0.25270718183E+00  0.30480556270E+02  0.47000000000E+01 0.  1.
         13    1    6    6    0    0 -0.21490663911E+02 -0.18555332900E+02 -0.29480295992E+02  0.40929657538E+02  0.00000000000E+00 0. -1.
        -14    1    6    6    0    0  0.48220690968E+02 -0.57506140011E+02 -0.23874626600E+03  0.25026380223E+03  0.00000000000E+00 0.  1.
</event>
<event>
12    1  0.2689284E-002  0.1730309E+03  0.7818608E-02  0.1174723E+00
          2   -1    0    0  502    0  0.00000000000E+00  0.00000000000E+00  0.42173582939E+03  0.42173582939E+03  0.00000000000E+00 0. -1.
         -2   -1    0    0    0  501 -0.00000000000E+00 -0.00000000000E+00 -0.73826734930E+02  0.73826734930E+02  0.00000000000E+00 0.  1.
          6    2    1    2  502    0  0.37529852830E+02  0.13087822719E+02  0.12195798809E+03  0.20856145391E+03  0.16445165928E+03 0.  0.
         24    2    3    3    0    0 -0.32907838502E+02  0.38869691010E+02  0.67139834224E+02  0.11553837566E+03  0.79041635847E+02 0.  0.
         -6    2    1    2    0  501 -0.37529852830E+02 -0.13087822719E+02  0.22595110637E+03  0.28700111041E+03  0.17244116083E+03 0.  0.
        -24    2    5    5    0    0 -0.11812308919E+02  0.41690208652E+02  0.54054115018E+02  0.10470275490E+03  0.78506148765E+02 0.  0.
          5    1    3    3  502    0  0.70437691332E+02 -0.25781868291E+02  0.54818153862E+02  0.93023078242E+02  0.47000000000E+01 0. -1.
        -11    1    4    4    0    0 -0.26680025408E+02 -0.18368122462E+02  0.41148287925E+02  0.52367864933E+02  0.00000000000E+00 0.  1.
         12    1    4    4    0    0 -0.62278130944E+01  0.57237813472E+02  0.25991546299E+02  0.63170510730E+02  0.00000000000E+00 0. -1.
         -5    1    5    5    0  501 -0.25717543911E+02 -0.54778031371E+02  0.17189699135E+03  0.18229835551E+03  0.47000000000E+01 0.  1.
         11    1    6    6    0    0 -0.34151660072E+02 -0.33503932450E+00  0.44607119930E+02  0.56180452877E+02  0.00000000000E+00 0. -1.
        -12    1    6    6    0    0  0.22339351153E+02  0.42025247977E+02  0.94469950880E+01  0.48522302023E+02  0.00000000000E+00 0.  1.
</event>
<event>
12    1  0.2689284E-002  0.2021712E+03  0.7818608E-02  0.1147920E+00
          1   -1    0    0  502    0  0.00000000000E+00  0.00000000000E+00  0.26905376617E+03  0.26905376617E+03  0.00000000000E+00 0. -1.
         -1   -1    0    0    0  501 -0.00000000000E+00 -0.00000000000E+00 -0.15458045578E+03  0.15458045578E+03  0.00000000000E+00 0.  1.
          6    2    1    2  502    0 -0.10238204628E+03  0.29938069481E+02  0.29410452612E+02  0.20426526980E+03  0.17170018729E+03 0.  0.
         24    2    3    3    0    0  0.68042314300E+01  0.27456662868E+02 -0.13326959776E+02  0.86892457622E+02  0.81071113435E+02 0.  0.
         -6    2    1    2    0  501  0.10238204628E+03 -0.29938069481E+02  0.85062857782E+02  0.21936895216E+03  0.17178089531E+03 0.  0.
        -24    2    5    5    0    0  0.12428017395E+03 -0.12481280433E+02  0.26595422420E+02  0.15437050236E+03  0.86727109407E+02 0.  0.
          5    1    3    3  502    0 -0.10918627771E+03  0.24814066134E+01  0.42737412388E+02  0.11737281217E+03  0.47000000000E+01 0. -1.
        -11    1    4    4    0    0 -0.10983470069E+02 -0.14647290522E+02 -0.32519839495E+02  0.37319159894E+02  0.00000000000E+00 0.  1.
         12    1    4    4    0    0  0.17787701499E+02  0.42103953390E+02  0.19192879719E+02  0.49573297728E+02  0.00000000000E+00 0. -1.
         -5    1    5    5    0  501 -0.21898127664E+02 -0.17456789049E+02  0.58467435361E+02  0.64998449803E+02  0.47000000000E+01 0.  1.
         13    1    6    6    0    0  0.62834941920E-01  0.22902057513E+02  0.37530107595E+01  0.23207612465E+02  0.00000000000E+00 0. -1.
        -14    1    6    6    0    0  0.12421733901E+03 -0.35383337946E+02  0.22842411661E+02  0.13116288989E+03  0.00000000000E+00 0.  1.
</event>
<event>
12    1  0.2689284E-002  0.1836735E+03  0.7818608E-02  0.1164294E+00
          2   -1    0    0  502    0  0.00000000000E+00  0.00000000000E+00  0.40153779880E+03  0.40153779880E+03  0.00000000000E+00 0. -1.
         -2   -1    0    0    0  501 -0.00000000000E+00 -0.00000000000E+00 -0.18164472461E+03  0.18164472461E+03  0.00000000000E+00 0.  1.
          6    2    1    2  502    0 -0.34072066670E+02  0.54094753273E+02  0.32369359410E+03  0.37213031652E+03  0.17209381614E+03 0.  0.
         24    2    3    3    0    0  0.35438531501E+02  0.31180131877E+02  0.10725598435E+03  0.14360431790E+03  0.83007612914E+02 0.  0.
         -6    2    1    2    0  501  0.34072066670E+02 -0.54094753273E+02 -0.10380051991E+03  0.21105220689E+03  0.17228272705E+03 0.  0.
        -24    2    5    5    0    0  0.82042963394E+02 -0.39296608393E+02 -0.10412116127E+03  0.16063013994E+03  0.81765239307E+02 0.  0.
          5    1    3    3  502    0 -0.69510598172E+02  0.22914621395E+02  0.21643760975E+03  0.22852599862E+03  0.47000000000E+01 0. -1.
        -11    1    4    4    0    0 -0.16299735570E+00  0.80631183402E+01 -0.13433016682E+02  0.15668005064E+02  0.00000000000E+00 0.  1.
         12    1    4    4    0    0  0.35601528857E+02  0.23117013537E+02  0.12068900103E+03  0.12793631284E+03  0.00000000000E+00 0. -1.
         -5    1    5    5    0  501 -0.47970896724E+02 -0.14798144879E+02  0.32064136499E+00  0.50422066947E+02  0.47000000000E+01 0.  1.
         11    1    6    6    0    0 -0.25102799306E+01 -0.22641628667E+01  0.11898558023E+02  0.12369463280E+02  0.00000000000E+00 0. -1.
        -12    1    6    6    0    0  0.84553243324E+02 -0.37032445527E+02 -0.11601971930E+03  0.14826067666E+03  0.00000000000E+00 0.  1.
</event>
<event>
12    1  0.2689284E-002  0.2791219E+03  0.7818608E-02  0.1096170E+00
         -1   -1    0    0    0  501 -0.00000000000E+00  0.00000000000E+00  0.56286164979E+03  0.56286164979E+03  0.00000000000E+00 0.  1.
          1   -1    0    0  502    0  0.00000000000E+00 -0.00000000000E+00 -0.14199389110E+03  0.14199389110E+03  0.00000000000E+00 0. -1.
          6    2    1    2  502    0  0.94119733958E+02 -0.19751254681E+03  0.26696289298E+03  0.38682177694E+03  0.17462007449E+03 0.  0.
         24    2    3    3    0    0  0.66447146695E+02 -0.16696048064E+03  0.11207374992E+03  0.22647235389E+03  0.80238246835E+02 0.  0.
         -6    2    1    2    0  501 -0.94119733958E+02  0.19751254681E+03  0.15390486571E+03  0.31803376395E+03  0.17201464139E+03 0.  0.
        -24    2    5    5    0    0 -0.79132549411E+02  0.20310073087E+03  0.84900893971E+02  0.24704445758E+03  0.79441393314E+02 0.  0.
          5    1    3    3  502    0  0.27672587262E+02 -0.30552066167E+02  0.15488914306E+03  0.16034942305E+03  0.47000000000E+01 0. -1.
        -11    1    4    4    0    0 -0.14993109944E+02 -0.60615113176E+02  0.42510636870E+02  0.75538993495E+02  0.00000000000E+00 0.  1.
         12    1    4    4    0    0  0.81440256639E+02 -0.10634536747E+03  0.69563113048E+02  0.15093336040E+03  0.00000000000E+00 0. -1.
         -5    1    5    5    0  501 -0.14987184547E+02 -0.55881840543E+01  0.69003971740E+02  0.70989306361E+02  0.47000000000E+01 0.  1.
         13    1    6    6    0    0 -0.13780154280E+02 -0.42067103660E+01  0.79846800028E+01  0.16472528004E+02  0.00000000000E+00 0. -1.
        -14    1    6    6    0    0 -0.65352395131E+02  0.20730744123E+03  0.76916213969E+02  0.23057192958E+03  0.00000000000E+00 0.  1.
</event>
<event>
12    1  0.2689284E-002  0.1923421E+03  0.7818608E-02  0.1156366E+00
         -2   -1    0    0    0  501 -0.00000000000E+00  0.00000000000E+00  0.41869411086E+02  0.41869411086E+02  0.00000000000E+00 0.  1.
          2   -1    0    0  502    0  0.00000000000E+00 -0.00000000000E+00 -0.98999712035E+03  0.98999712035E+03  0.00000000000E+00 0. -1.
          6    2    1    2  502    0  0.81293781229E+02  0.27973528494E+02 -0.64420445823E+03  0.67243612152E+03  0.17256812091E+03 0.  0.
         24    2    3    3    0    0 -0.20981320037E+02 -0.26617332482E+01 -0.34295548231E+03  0.35279295939E+03  0.79981927548E+02 0.  0.
         -6    2    1    2    0  501 -0.81293781229E+02 -0.27973528494E+02 -0.30392325103E+03  0.35943040992E+03  0.17155080849E+03 0.  0.
        -24    2    5    5    0    0 -0.10436370718E+03 -0.18827299954E+02 -0.31068896225E+03  0.33328199069E+03  0.57471762241E+02 0.  0.
          5    1    3    3  502    0  0.10227510127E+03  0.30635261742E+02 -0.30124897592E+03  0.31964316212E+03  0.47000000000E+01 0. -1.
        -11    1    4    4    0    0  0.10528704340E+02  0.28636408116E+02 -0.71639222542E+02  0.77865754291E+02  0.00000000000E+00 0.  1.
         12    1    4    4    0    0 -0.31510024376E+02 -0.31298141365E+02 -0.27131625977E+03  0.27492720510E+03  0.00000000000E+00 0. -1.
         -5    1    5    5    0  501  0.23069925949E+02 -0.91462285402E+01  0.67657112190E+01  0.26148419227E+02  0.47000000000E+01 0.  1.
         13    1    6    6    0    0 -0.90544979373E+02 -0.47029321649E+01 -0.18470949196E+03  0.20576225913E+03  0.00000000000E+00 0. -1.
        -14    1    6    6    0    0 -0.13818727804E+02 -0.14124367789E+02 -0.12597947029E+03  0.12751973157E+03  0.00000000000E+00 0.  1.
</event>
<event>
12    1  0.2689284E-002  0.1792539E+03  0.7818608E-02  0.1168527E+00
          2   -1    0    0  502    0  0.00000000000E+00  0.00000000000E+00  0.17537552469E+02  0.17537552469E+02  0.00000000000E+00 0. -1.
         -2   -1    0    0    0  501 -0.00000000000E+00 -0.00000000000E+00 -0.18332896499E+04  0.18332896499E+04  0.00000000000E+00 0.  1.
          6    2    1    2  502    0  0.51216681521E+02 -0.16849222794E+02 -0.92272000775E+03  0.93971474508E+03  0.16954216185E+03 0.  0.
         24    2    3    3    0    0  0.89998227532E+02  0.77387312995E+01 -0.36213324243E+03  0.37723080109E+03  0.54799845765E+02 0.  0.
         -6    2    1    2    0  501 -0.51216681521E+02  0.16849222794E+02 -0.89303208973E+03  0.91111245733E+03  0.17237329216E+03 0.  0.
        -24    2    5    5    0    0 -0.40237571586E+02  0.41236977473E+02 -0.86538029181E+03  0.87235661440E+03  0.93826769957E+02 0.  0.
          5    1    3    3  502    0 -0.38781546011E+02 -0.24587954093E+02 -0.56058676532E+03  0.56248394400E+03  0.47000000000E+01 0. -1.
        -13    1    4    4    0    0 -0.29448518593E+00  0.73246292459E+00 -0.97994466323E+02  0.97997646163E+02  0.00000000000E+00 0.  1.
         14    1    4    4    0    0  0.90292712718E+02  0.70062683749E+01 -0.26413877611E+03  0.27923315493E+03  0.00000000000E+00 0. -1.
         -5    1    5    5    0  501 -0.10979109936E+02 -0.24387754679E+02 -0.27651797918E+02  0.38755842932E+02  0.47000000000E+01 0.  1.
         11    1    6    6    0    0 -0.63056916814E+02  0.10444312270E+02 -0.36863925871E+03  0.37413922740E+03  0.00000000000E+00 0. -1.
        -12    1    6    6    0    0  0.22819345228E+02  0.30792665203E+02 -0.49674103310E+03  0.49821738700E+03  0.00000000000E+00 0.  1.
</event>
<event>
12    1  0.2689284E-002  0.3718712E+03  0.7818608E-02  0.1053980E+00
          2   -1    0    0  502    0  0.00000000000E+00  0.00000000000E+00  0.26400319672E+04  0.26400319672E+04  0.00000000000E+00 0.  1.
         -2   -1    0    0    0  501 -0.00000000000E+00 -0.00000000000E+00 -0.52978119190E+02  0.52978119190E+02  0.00000000000E+00 0. -1.
          6    2    1    2  502    0 -0.84790339581E+02 -0.31749669210E+03  0.11536072785E+04  0.12123289545E+04  0.17589255126E+03 0.  0.
         24    2    3    3    0    0  0.71675773222E+01 -0.67336320125E+02  0.39788094168E+03  0.41096707841E+03  0.77454125877E+02 0.  0.
         -6    2    1    2    0  501  0.84790339581E+02  0.31749669210E+03  0.14334465694E+04  0.14806811319E+04  0.17220335565E+03 0.  0.
        -24    2    5    5    0    0 -0.12650045471E+02  0.77475600590E+02  0.46367309117E+03  0.47689457979E+03  0.79203613683E+02 0.  0.
          5    1    3    3  502    0 -0.91957916903E+02 -0.25016037197E+03  0.75572633687E+03  0.80136187608E+03  0.47000000000E+01 0. -1.
        -11    1    4    4    0    0  0.21621100937E+02  0.23328261649E+01  0.35225115577E+02  0.41397135783E+02  0.00000000000E+00 0.  1.
         12    1    4    4    0    0 -0.14453523615E+02 -0.69669146290E+02  0.36265582610E+03  0.36956994263E+03  0.00000000000E+00 0. -1.
         -5    1    5    5    0  501  0.97440385052E+02  0.24002109151E+03  0.96977347825E+03  0.10037865521E+04  0.47000000000E+01 0.  1.
         11    1    6    6    0    0 -0.26164926374E+02  0.28313836907E+02  0.69832807655E+02  0.79767773928E+02  0.00000000000E+00 0. -1.
        -12    1    6    6    0    0  0.13514880903E+02  0.49161763683E+02  0.39384028352E+03  0.39712680586E+03  0.00000000000E+00 0.  1.
</event>
<event>
12    1  0.2689284E-002  0.2281926E+03  0.7818608E-02  0.1127918E+00
         -2   -1    0    0    0  501 -0.00000000000E+00  0.00000000000E+00  0.97817043913E+02  0.97817043913E+02  0.00000000000E+00 0.  1.
          2   -1    0    0  502    0  0.00000000000E+00 -0.00000000000E+00 -0.64840095612E+03  0.64840095612E+03  0.00000000000E+00 0. -1.
          6    2    1    2  502    0 -0.14687542441E+03  0.35949252809E+02 -0.43401394691E+03  0.49075851565E+03  0.17207868985E+03 0.  0.
         24    2    3    3    0    0 -0.32158675522E+01  0.45378027824E+02 -0.18844339349E+03  0.20605874962E+03  0.69855483174E+02 0.  0.
         -6    2    1    2    0  501  0.14687542441E+03 -0.35949252809E+02 -0.11656996530E+03  0.25545948439E+03  0.16972404744E+03 0.  0.
        -24    2    5    5    0    0  0.16514365080E+03 -0.24442848730E+02 -0.59932866469E+02  0.19466494191E+03  0.80203571456E+02 0.  0.
          5    1    3    3  502    0 -0.14365955686E+03 -0.94287750143E+01 -0.24557055341E+03  0.28469976603E+03  0.47000000000E+01 0. -1.
        -11    1    4    4    0    0  0.12407101171E+02 -0.15073454084E+02 -0.30401851559E+02  0.36130565394E+02  0.00000000000E+00 0.  1.
         12    1    4    4    0    0 -0.15622968723E+02  0.60451481907E+02 -0.15804154193E+03  0.16992818422E+03  0.00000000000E+00 0. -1.
         -5    1    5    5    0  501 -0.18268226385E+02 -0.11506404080E+02 -0.56637098836E+02  0.60794542474E+02  0.47000000000E+01 0.  1.
         13    1    6    6    0    0  0.32104692968E+02 -0.33243709335E+02 -0.37382554890E+02  0.59441659894E+02  0.00000000000E+00 0. -1.
        -14    1    6    6    0    0  0.13303895783E+03  0.88008606051E+01 -0.22550311579E+02  0.13522328202E+03  0.00000000000E+00 0.  1.
</event>
<event>
12    1  0.2689284E-002  0.1848978E+03  0.7818608E-02  0.1163145E+00
         -2   -1    0    0    0  501 -0.00000000000E+00  0.00000000000E+00  0.42819013531E+02  0.42819013531E+02  0.00000000000E+00 0.  1.
          2   -1    0    0  502    0  0.00000000000E+00 -0.00000000000E+00 -0.91740528405E+03  0.91740528405E+03  0.00000000000E+00 0. -1.
          6    2    1    2  502    0  0.47724203511E+02  0.11772237946E+02 -0.27968154959E+03  0.33924511410E+03  0.18560520756E+03 0.  0.
         24    2    3    3    0    0  0.85488369803E+02  0.58660223071E+02 -0.17387888447E+03  0.21742184313E+03  0.79303898147E+02 0.  0.
         -6    2    1    2    0  501 -0.47724203511E+02 -0.11772237946E+02 -0.59490472092E+03  0.62097918348E+03  0.17113542633E+03 0.  0.
        -24    2    5    5    0    0 -0.14063274165E+02 -0.58929812321E+02 -0.50786153437E+03  0.51631065282E+03  0.70589331027E+02 0.  0.
          5    1    3    3  502    0 -0.37764166292E+02 -0.46887985125E+02 -0.10580266512E+03  0.12182327097E+03  0.47000000000E+01 0. -1.
        -11    1    4    4    0    0  0.79279628060E+02  0.71792337275E+02 -0.17231785898E+03  0.20281233601E+03  0.00000000000E+00 0.  1.
         12    1    4    4    0    0  0.62087417424E+01 -0.13132114204E+02 -0.15610254945E+01  0.14609507113E+02  0.00000000000E+00 0. -1.
         -5    1    5    5    0  501 -0.33660929347E+02  0.47157574375E+02 -0.87043186550E+02  0.10466853066E+03  0.47000000000E+01 0.  1.
         13    1    6    6    0    0  0.58469312591E+01  0.10856770841E+02 -0.18422976603E+03  0.18464198539E+03  0.00000000000E+00 0. -1.
        -14    1    6    6    0    0 -0.19910205424E+02 -0.69786583162E+02 -0.32363176835E+03  0.33166866743E+03  0.00000000000E+00 0.  1.
</event>
<event>
12    1  0.2689284E-002  0.2727441E+03  0.7818608E-02  0.1099719E+00
          1   -1    0    0  502    0  0.00000000000E+00  0.00000000000E+00  0.15409498519E+04  0.15409498519E+04  0.00000000000E+00 0. -1.
         -1   -1    0    0    0  501 -0.00000000000E+00 -0.00000000000E+00 -0.65160021066E+02  0.65160021066E+02  0.00000000000E+00 0.  1.
          6    2    1    2  502    0 -0.17056174454E+03  0.12238918070E+03  0.33120000352E+03  0.42971337134E+03  0.17575471237E+03 0.  0.
         24    2    3    3    0    0 -0.15369766233E+03  0.95754607713E+02  0.34275877951E+03  0.39580919683E+03  0.79933866807E+02 0.  0.
         -6    2    1    2    0  501  0.17056174454E+03 -0.12238918070E+03  0.11445898274E+04  0.11763965017E+04  0.17248894461E+03 0.  0.
        -24    2    5    5    0    0  0.91586011339E+02 -0.17059753352E+02  0.33440147526E+03  0.35556843772E+03  0.76977494050E+02 0.  0.
          5    1    3    3  502    0 -0.16864082201E+02  0.26634572987E+02 -0.11558775982E+02  0.33904174505E+02  0.47000000000E+01 0. -1.
        -11    1    4    4    0    0 -0.58326183280E+02  0.69998056765E+02  0.10921229601E+03  0.14222867927E+03  0.00000000000E+00 0.  1.
         12    1    4    4    0    0 -0.95371479055E+02  0.25756550948E+02  0.23354648350E+03  0.25358051756E+03  0.00000000000E+00 0. -1.
         -5    1    5    5    0  501  0.78975733197E+02 -0.10532942735E+03  0.81018835210E+03  0.82082806396E+03  0.47000000000E+01 0.  1.
         13    1    6    6    0    0  0.56683381420E+02 -0.12024881078E+02  0.30255166582E+03  0.30805050558E+03  0.00000000000E+00 0. -1.
        -14    1    6    6    0    0  0.34902629918E+02 -0.50348722747E+01  0.31849809436E+02  0.47517932143E+02  0.00000000000E+00 0.  1.
</event>
<event>
12    1  0.2689284E-002  0.1718854E+03  0.7818608E-02  0.1175896E+00
         -2   -1    0    0    0  501 -0.00000000000E+00  0.00000000000E+00  0.15801824967E+02  0.15801824967E+02  0.00000000000E+00 0.  1.
          2   -1    0    0  502    0  0.00000000000E+00 -0.00000000000E+00 -0.18883877184E+04  0.18883877184E+04  0.00000000000E+00 0. -1.
          6    2    1    2  502    0  0.31655874146E+02 -0.24987472584E+01 -0.10120340965E+04  0.10259995541E+04  0.16569168519E+03 0.  0.
         24    2    3    3    0    0  0.19439462129E+02  0.45331202158E+02 -0.33777237632E+03  0.34991679140E+03  0.76933556572E+02 0.  0.
         -6    2    1    2    0  501 -0.31655874146E+02  0.24987472584E+01 -0.86055179698E+03  0.87818998926E+03  0.17222056742E+03 0.  0.
        -24    2    5    5    0    0 -0.12938757579E+02  0.45168112648E+02 -0.77519942420E+03  0.78083433850E+03  0.80997203992E+02 0.  0.
          5    1    3    3  502    0  0.12216412017E+02 -0.47829949417E+02 -0.67426172014E+03  0.67608276270E+03  0.47000000000E+01 0. -1.
        -11    1    4    4    0    0  0.47870792503E+02  0.39886200908E+02 -0.22179885960E+03  0.23038501670E+03  0.00000000000E+00 0.  1.
         12    1    4    4    0    0 -0.28431330374E+02  0.54450012509E+01 -0.11597351672E+03  0.11953177471E+03  0.00000000000E+00 0. -1.
         -5    1    5    5    0  501 -0.18717116567E+02 -0.42669365390E+02 -0.85352372785E+02  0.97355650763E+02  0.47000000000E+01 0.  1.
         11    1    6    6    0    0 -0.42691766686E+02  0.63363829320E+01 -0.29334128449E+03  0.29649931851E+03  0.00000000000E+00 0. -1.
        -12    1    6    6    0    0  0.29753009107E+02  0.38831729716E+02 -0.48185813971E+03  0.48433501999E+03  0.00000000000E+00 0.  1.
</event>
<event>
12    1  0.2689284E-002  0.1757075E+03  0.7818608E-02  0.1172023E+00
          4   -1    0    0  502    0  0.00000000000E+00  0.00000000000E+00  0.19792894705E+03  0.19792894705E+03  0.00000000000E+00 0.  1.
         -4   -1    0    0    0  501 -0.00000000000E+00 -0.00000000000E+00 -0.29887359928E+03  0.29887359928E+03  0.00000000000E+00 0. -1.
          6    2    1    2  502    0  0.28846319947E+02 -0.71804819819E+01  0.12142856493E+03  0.21277485862E+03  0.17217599886E+03 0.  0.
         24    2    3    3    0    0  0.33864560801E+02 -0.57180551486E+02  0.12539056745E+03  0.16214900400E+03  0.78441577927E+02 0.  0.
         -6    2    1    2    0  501 -0.28846319947E+02  0.71804819819E+01 -0.22237321716E+03  0.28402768771E+03  0.17417867315E+03 0.  0.
        -24    2    5    5    0    0 -0.84747817063E+02 -0.41364194226E+01 -0.17187321859E+03  0.20770344849E+03  0.80006354649E+02 0.  0.
          5    1    3    3  502    0 -0.50182408539E+01  0.50000069505E+02 -0.39620025147E+01  0.50625854617E+02  0.47000000000E+01 0. -1.
        -13    1    4    4    0    0  0.22451204876E+01  0.48987806317E+01  0.77316741781E+02  0.77504304250E+02  0.00000000000E+00 0.  1.
         14    1    4    4    0    0  0.31619440314E+02 -0.62079332118E+02  0.48073825666E+02  0.84644699752E+02  0.00000000000E+00 0. -1.
         -5    1    5    5    0  501  0.55901497116E+02  0.11316901404E+02 -0.50499998571E+02  0.76324239222E+02  0.47000000000E+01 0.  1.
         11    1    6    6    0    0 -0.27285075025E+02  0.36641489626E+02 -0.58607653367E+02  0.74309697310E+02  0.00000000000E+00 0. -1.
        -12    1    6    6    0    0 -0.57462742039E+02 -0.40777909049E+02 -0.11326556522E+03  0.13339375118E+03  0.00000000000E+00 0.  1.
</event>
<event>
12    1  0.2689284E-002  0.1767084E+03  0.7818608E-02  0.1171027E+00
          2   -1    0    0  502    0  0.00000000000E+00  0.00000000000E+00  0.34733511609E+03  0.34733511609E+03  0.00000000000E+00 0.  1.
         -2   -1    0    0    0  501 -0.00000000000E+00 -0.00000000000E+00 -0.90734121465E+02  0.90734121465E+02  0.00000000000E+00 0. -1.
          6    2    1    2  502    0 -0.13303053684E+02  0.39819840576E+02  0.10664038460E+03  0.20554967322E+03  0.17063383484E+03 0.  0.
         24    2    3    3    0    0  0.51910153923E+02  0.21452227691E+01  0.42790724668E+02  0.10670126228E+03  0.82794004571E+02 0.  0.
         -6    2    1    2    0  501  0.13303053684E+02 -0.39819840576E+02  0.14996061003E+03  0.23251956433E+03  0.17266896738E+03 0.  0.
        -24    2    5    5    0    0 -0.46619431875E+02 -0.33491804969E+02  0.38268494015E+02  0.10552363098E+03  0.79847896851E+02 0.  0.
          5    1    3    3  502    0 -0.65213207607E+02  0.37674617806E+02  0.63849659932E+02  0.98848410947E+02  0.47000000000E+01 0. -1.
        -13    1    4    4    0    0 -0.26251243438E+01  0.25189197983E+02  0.40110342110E+02  0.47436552542E+02  0.00000000000E+00 0.  1.
         14    1    4    4    0    0  0.54535278266E+02 -0.23043975214E+02  0.26803825574E+01  0.59264709735E+02  0.00000000000E+00 0. -1.
         -5    1    5    5    0  501  0.59922485560E+02 -0.63280356061E+01  0.11169211601E+03  0.12699593336E+03  0.47000000000E+01 0.  1.
         11    1    6    6    0    0 -0.32864261238E+02 -0.16613982312E+02  0.62752017809E+02  0.72759190582E+02  0.00000000000E+00 0. -1.
        -12    1    6    6    0    0 -0.13755170637E+02 -0.16877822658E+02 -0.24483523794E+02  0.32764440393E+02  0.00000000000E+00 0.  1.
</event>
<event>
12    1  0.2689284E-002  0.2001695E+03  0.7818608E-02  0.1149596E+00
         -2   -1    0    0    0  501 -0.00000000000E+00  0.00000000000E+00  0.11325057975E+03  0.11325057975E+03  0.00000000000E+00 0.  1.
          2   -1    0    0  502    0  0.00000000000E+00 -0.00000000000E+00 -0.55556337527E+03  0.55556337527E+03  0.00000000000E+00 0. -1.
          6    2    1    2  502    0 -0.61748834562E+02  0.82113937818E+02 -0.42240341212E+03  0.46726260361E+03  0.17133032659E+03 0.  0.
         24    2    3    3    0    0 -0.24446972752E+02  0.10854502495E+03 -0.21640555054E+03  0.25620043211E+03  0.80172452823E+02 0.  0.
         -6    2    1    2    0  501  0.61748834562E+02 -0.82113937818E+02 -0.19909383404E+02  0.20155135141E+03  0.17225256559E+03 0.  0.
        -24    2    5    5    0    0  0.28495341616E+02  0.18211958852E+02 -0.35238343763E+02  0.94648838052E+02  0.81074050931E+02 0.  0.
          5    1    3    3  502    0 -0.37301861810E+02 -0.26431087137E+02 -0.20599786158E+03  0.21106217150E+03  0.47000000000E+01 0. -1.
        -13    1    4    4    0    0 -0.40945488856E+02  0.33061122033E+02 -0.49367149341E+02  0.72157371639E+02  0.00000000000E+00 0.  1.
         14    1    4    4    0    0  0.16498516104E+02  0.75483902922E+02 -0.16703840120E+03  0.18404306047E+03  0.00000000000E+00 0. -1.
         -5    1    5    5    0  501  0.33253492945E+02 -0.10032589667E+03  0.15328960359E+02  0.10690251335E+03  0.47000000000E+01 0.  1.
         13    1    6    6    0    0  0.34581753615E+02  0.46428255841E+02 -0.30374907866E+02  0.65376721020E+02  0.00000000000E+00 0. -1.
        -14    1    6    6    0    0 -0.60864119983E+01 -0.28216296989E+02 -0.48634358973E+01  0.29272117032E+02  0.00000000000E+00 0.  1.
</event>
<event>
12    1  0.2689284E-002  0.1987942E+03  0.7818608E-02  0.1150760E+00
         -3   -1    0    0    0  501 -0.00000000000E+00  0.00000000000E+00  0.63011680419E+02  0.63011680419E+02  0.00000000000E+00 0. -1.
          3   -1    0    0  502    0  0.00000000000E+00 -0.00000000000E+00 -0.62911368695E+03  0.62911368695E+03  0.00000000000E+00 0.  1.
          6    2    1    2  502    0  0.30523389387E+02 -0.95793859583E+02 -0.30329159592E+03  0.36304578930E+03  0.17236099368E+03 0.  0.
         24    2    3    3    0    0 -0.25490783072E+02 -0.49996432162E+02 -0.26282314493E+03  0.28001099298E+03  0.78617602544E+02 0.  0.
         -6    2    1    2    0  501 -0.30523389387E+02  0.95793859583E+02 -0.26281041061E+03  0.32907957806E+03  0.17063386516E+03 0.  0.
        -24    2    5    5    0    0  0.31932433123E+02  0.17992840179E+02 -0.71287251517E+02  0.11307740480E+03  0.79757160583E+02 0.  0.
          5    1    3    3  502    0  0.56014172459E+02 -0.45797427421E+02 -0.40468450988E+02  0.83034796321E+02  0.47000000000E+01 0. -1.
        -11    1    4    4    0    0 -0.50821514881E+02 -0.49594432862E+02 -0.18454617311E+03  0.19773650182E+03  0.00000000000E+00 0.  1.
         12    1    4    4    0    0  0.25330731809E+02 -0.40199929952E+00 -0.78276971824E+02  0.82274491158E+02  0.00000000000E+00 0. -1.
         -5    1    5    5    0  501 -0.62455822511E+02  0.77801019403E+02 -0.19152315910E+03  0.21600217327E+03  0.47000000000E+01 0.  1.
         13    1    6    6    0    0  0.56871767719E+02 -0.21025077696E+00 -0.47558675080E+02  0.74136831226E+02  0.00000000000E+00 0. -1.
        -14    1    6    6    0    0 -0.24939334596E+02  0.18203090956E+02 -0.23728576437E+02  0.38940573572E+02  0.00000000000E+00 0.  1.
</event>
<event>
12    1  0.2689284E-002  0.1764346E+03  0.7818608E-02  0.1171299E+00
         -2   -1    0    0    0  501 -0.00000000000E+00  0.00000000000E+00  0.31095835520E+03  0.31095835520E+03  0.00000000000E+00 0.  1.
          2   -1    0    0  502    0  0.00000000000E+00 -0.00000000000E+00 -0.12756161487E+03  0.12756161487E+03  0.00000000000E+00 0. -1.
          6    2    1    2  502    0  0.16515602675E+02  0.36300370291E+02  0.19261428387E+03  0.25993081052E+03  0.16992139917E+03 0.  0.
         24    2    3    3    0    0  0.70099426873E+02  0.45513840623E+02  0.94627250349E+02  0.14777171375E+03  0.76790126582E+02 0.  0.
         -6    2    1    2    0  501 -0.16515602675E+02 -0.36300370291E+02 -0.92175435374E+01  0.17858915954E+03  0.17383510227E+03 0.  0.
        -24    2    5    5    0    0 -0.27489463553E+02  0.45983798912E+02 -0.10081439989E+02  0.95439015579E+02  0.78337665868E+02 0.  0.
          5    1    3    3  502    0 -0.53583824198E+02 -0.92134703316E+01  0.97987033517E+02  0.11215909677E+03  0.47000000000E+01 0. -1.
        -11    1    4    4    0    0 -0.61718596054E+01  0.33363853696E+02  0.15846633955E+02  0.37448022539E+02  0.00000000000E+00 0.  1.
         12    1    4    4    0    0  0.76271286478E+02  0.12149986927E+02  0.78780616395E+02  0.11032369121E+03  0.00000000000E+00 0. -1.
         -5    1    5    5    0  501  0.10973860878E+02 -0.82284169203E+02  0.86389645204E+00  0.83150143963E+02  0.47000000000E+01 0.  1.
         13    1    6    6    0    0 -0.29769556214E+02  0.14936493752E+02 -0.40144121304E+02  0.52162014896E+02  0.00000000000E+00 0. -1.
        -14    1    6    6    0    0  0.22800926612E+01  0.31047305160E+02  0.30062681314E+02  0.43277000682E+02  0.00000000000E+00 0.  1.
</event>
<event>
12    1  0.2689284E-002  0.2264160E+03  0.7818608E-02  0.1129188E+00
          2   -1    0    0  502    0  0.00000000000E+00  0.00000000000E+00  0.46672941541E+03  0.46672941541E+03  0.00000000000E+00 0.  1.
         -2   -1    0    0    0  501 -0.00000000000E+00 -0.00000000000E+00 -0.12329879288E+03  0.12329879288E+03  0.00000000000E+00 0. -1.
          6    2    1    2  502    0  0.14716060957E+03 -0.11149801528E+02  0.26826528818E+03  0.35017391431E+03  0.16992628500E+03 0.  0.
         24    2    3    3    0    0  0.16586368244E+03  0.20032064205E+02  0.20186915853E+03  0.27432769015E+03  0.81194086415E+02 0.  0.
         -6    2    1    2    0  501 -0.14716060957E+03  0.11149801528E+02  0.75165334346E+02  0.23985429399E+03  0.17349262743E+03 0.  0.
        -24    2    5    5    0    0 -0.32280409749E+02 -0.46185190863E+02  0.22998417623E+02  0.10118836860E+03  0.80839730438E+02 0.  0.
          5    1    3    3  502    0 -0.18703072870E+02 -0.31181865733E+02  0.66396129659E+02  0.75846224158E+02  0.47000000000E+01 0. -1.
        -13    1    4    4    0    0  0.92333448476E+02  0.29918827312E+02  0.16511820435E+03  0.19153230365E+03  0.00000000000E+00 0.  1.
         14    1    4    4    0    0  0.73530233968E+02 -0.98867631075E+01  0.36750954175E+02  0.82795386495E+02  0.00000000000E+00 0. -1.
         -5    1    5    5    0  501 -0.11488019982E+03  0.57334992391E+02  0.52166916723E+02  0.13866592539E+03  0.47000000000E+01 0.  1.
         11    1    6    6    0    0 -0.32606610537E+02 -0.25137057479E+02 -0.25423803855E+02  0.48388350994E+02  0.00000000000E+00 0. -1.
        -12    1    6    6    0    0  0.32620078791E+00 -0.21048133384E+02  0.48422221478E+02  0.52800017602E+02  0.00000000000E+00 0.  1.
</event>
<event>
12    1  0.2689284E-002  0.1943970E+03  0.7818608E-02  0.1154554E+00
         -1   -1    0    0    0  501 -0.00000000000E+00  0.00000000000E+00  0.25743480163E+02  0.25743480163E+02  0.00000000000E+00 0.  1.
          1   -1    0    0  502    0  0.00000000000E+00 -0.00000000000E+00 -0.22830937002E+04  0.22830937002E+04  0.00000000000E+00 0. -1.
          6    2    1    2  502    0  0.65720065526E+02  0.62976038819E+02 -0.43777482571E+03  0.47887526132E+03  0.17143397974E+03 0.  0.
         24    2    3    3    0    0 -0.66668362523E+01  0.72528499456E+02 -0.16700510707E+03  0.19839452476E+03  0.78516569772E+02 0.  0.
         -6    2    1    2    0  501 -0.65720065526E+02 -0.62976038819E+02 -0.18195753943E+04  0.18299619191E+04  0.17210723691E+03 0.  0.
        -24    2    5    5    0    0  0.25538505522E+02 -0.11690142548E+02 -0.61023900259E+03  0.61609414686E+03  0.79946749867E+02 0.  0.
          5    1    3    3  502    0  0.72386901778E+02 -0.95524606361E+01 -0.27076971864E+03  0.28048073657E+03  0.47000000000E+01 0. -1.
        -13    1    4    4    0    0  0.14099256119E+02  0.75950385303E+02 -0.15724611697E+03  0.17519586568E+03  0.00000000000E+00 0.  1.
         14    1    4    4    0    0 -0.20766092371E+02 -0.34218858478E+01 -0.97589900985E+01  0.23198659075E+02  0.00000000000E+00 0. -1.
         -5    1    5    5    0  501 -0.91258571047E+02 -0.51285896272E+02 -0.12093363918E+04  0.12138677722E+04  0.47000000000E+01 0.  1.
         13    1    6    6    0    0  0.23156465029E+02 -0.14544623705E+02 -0.61154315219E+03  0.61215422481E+03  0.00000000000E+00 0. -1.
        -14    1    6    6    0    0  0.23820404927E+01  0.28544811577E+01  0.13041496049E+01  0.39399220526E+01  0.00000000000E+00 0.  1.
</event>
<event>
12    1  0.2689284E-002  0.1785593E+03  0.7818608E-02  0.1169205E+00
         -4   -1    0    0    0  501 -0.00000000000E+00  0.00000000000E+00  0.56561654479E+02  0.56561654479E+02  0.00000000000E+00 0.  1.
          4   -1    0    0  502    0  0.00000000000E+00 -0.00000000000E+00 -0.68173709354E+03  0.68173709354E+03  0.00000000000E+00 0. -1.
          6    2    1    2  502    0 -0.21046854252E+02  0.52181017242E+02 -0.16053055012E+03  0.24090396245E+03  0.17058380043E+03 0.  0.
         24    2    3    3    0    0 -0.49644990824E+01  0.51217979295E+02 -0.18930707957E+03  0.20759107850E+03  0.67889305807E+02 0.  0.
         -6    2    1    2    0  501  0.21046854252E+02 -0.52181017242E+02 -0.46464488895E+03  0.49739478557E+03  0.16834747179E+03 0.  0.
        -24    2    5    5    0    0 -0.33105775508E+02 -0.57340750354E+02 -0.18205278380E+03  0.20957623502E+03  0.79968920024E+02 0.  0.
          5    1    3    3  502    0 -0.16082355170E+02  0.96303794687E+00  0.28776529450E+02  0.33312883951E+02  0.47000000000E+01 0. -1.
        -13    1    4    4    0    0  0.26801174072E+02  0.35507959268E+02 -0.68376168351E+02  0.81574619223E+02  0.00000000000E+00 0.  1.
         14    1    4    4    0    0 -0.31765673155E+02  0.15710020027E+02 -0.12093091122E+03  0.12601645928E+03  0.00000000000E+00 0. -1.
         -5    1    5    5    0  501  0.54152629761E+02  0.51597331127E+01 -0.28259210514E+03  0.28781855056E+03  0.47000000000E+01 0.  1.
         11    1    6    6    0    0 -0.28633989537E+02 -0.60819013123E+02 -0.18900766834E+03  0.20060597300E+03  0.00000000000E+00 0. -1.
        -12    1    6    6    0    0 -0.44717859717E+01  0.34782627685E+01  0.69548845356E+01  0.89702620122E+01  0.00000000000E+00 0.  1.
</event>
<event>
12    1  0.2689284E-002  0.3015028E+03  0.7818608E-02  0.1084492E+00
         -1   -1    0    0    0  501 -0.00000000000E+00  0.00000000000E+00  0.12023838797E+03  0.12023838797E+03  0.00000000000E+00 0. -1.
          1   -1    0    0  502    0  0.00000000000E+00 -0.00000000000E+00 -0.75606664562E+03  0.75606664562E+03  0.00000000000E+00 0.  1.
          6    2    1    2  502    0 -0.92511771191E+02 -0.23014525550E+03 -0.32087563654E+03  0.44026544282E+03  0.17131030203E+03 0.  0.
         24    2    3    3    0    0  0.11308775178E+02 -0.14931005889E+03 -0.17550765877E+03  0.24413545067E+03  0.79861116359E+02 0.  0.
         -6    2    1    2    0  501  0.92511771191E+02  0.23014525550E+03 -0.31495262111E+03  0.43603959077E+03  0.17149374547E+03 0.  0.
        -24    2    5    5    0    0 -0.12145117175E+02  0.10155194540E+03 -0.10062435503E+03  0.16502667719E+03  0.81536751679E+02 0.  0.
          5    1    3    3  502    0 -0.10382054637E+03 -0.80835196603E+02 -0.14536797777E+03  0.19612999215E+03  0.47000000000E+01 0. -1.
        -13    1    4    4    0    0  0.12891285748E+02 -0.37846268523E+02 -0.10469792127E+03  0.11207220890E+03  0.00000000000E+00 0.  1.
         14    1    4    4    0    0 -0.15825105704E+01 -0.11146379037E+03 -0.70809737500E+02  0.13206324178E+03  0.00000000000E+00 0. -1.
         -5    1    5    5    0  501  0.10465688837E+03  0.12859331010E+03 -0.21432826608E+03  0.27101291358E+03  0.47000000000E+01 0.  1.
         13    1    6    6    0    0 -0.36070020395E+01 -0.14094280085E+02 -0.14859388652E+02  0.20795687677E+02  0.00000000000E+00 0. -1.
        -14    1    6    6    0    0 -0.85381151351E+01  0.11564622548E+03 -0.85764966380E+02  0.14423098952E+03  0.00000000000E+00 0.  1.
</event>
<event>
12    1  0.2689284E-002  0.1977492E+03  0.7818608E-02  0.1151652E+00
         -2   -1    0    0    0  501 -0.00000000000E+00  0.00000000000E+00  0.20368115133E+03  0.20368115133E+03  0.00000000000E+00 0. -1.
          2   -1    0    0  502    0  0.00000000000E+00 -0.00000000000E+00 -0.19641248500E+03  0.19641248500E+03  0.00000000000E+00 0.  1.
          6    2    1    2  502    0  0.72705190348E+02 -0.41884831469E+02  0.33233257048E+02  0.19618567410E+03  0.17419525119E+03 0.  0.
         24    2    3    3    0    0  0.83534866363E+02  0.63344872013E+00 -0.29367225063E+02  0.11959588109E+03  0.80388218728E+02 0.  0.
         -6    2    1    2    0  501 -0.72705190348E+02  0.41884831469E+02 -0.25964590724E+02  0.20390796223E+03  0.18402150222E+03 0.  0.
        -24    2    5    5    0    0 -0.49150939936E+02 -0.23205403206E+02 -0.71344654893E+02  0.12100451485E+03  0.81226394717E+02 0.  0.
          5    1    3    3  502    0 -0.10829676014E+02 -0.42518280189E+02  0.62600482110E+02  0.76589793009E+02  0.47000000000E+01 0. -1.
        -11    1    4    4    0    0  0.93657657317E+02 -0.14723836409E+02 -0.14427093273E+02  0.95899369930E+02  0.00000000000E+00 0.  1.
         12    1    4    4    0    0 -0.10122790955E+02  0.15357285129E+02 -0.14940131790E+02  0.23696511159E+02  0.00000000000E+00 0. -1.
         -5    1    5    5    0  501 -0.23554250412E+02  0.65090234675E+02  0.45380064170E+02  0.82903447374E+02  0.47000000000E+01 0.  1.
         11    1    6    6    0    0 -0.12335466075E+02 -0.48359511427E+02 -0.22127318877E+02  0.54593262491E+02  0.00000000000E+00 0. -1.
        -12    1    6    6    0    0 -0.36815473861E+02  0.25154108221E+02 -0.49217336016E+02  0.66411252363E+02  0.00000000000E+00 0.  1.
</event>
<event>
12    1  0.2689284E-002  0.2103553E+03  0.7818608E-02  0.1141285E+00
         -2   -1    0    0    0  501 -0.00000000000E+00  0.00000000000E+00  0.22745522096E+02  0.22745522096E+02  0.00000000000E+00 0. -1.
          2   -1    0    0  502    0  0.00000000000E+00 -0.00000000000E+00 -0.19480850608E+04  0.19480850608E+04  0.00000000000E+00 0.  1.
          6    2    1    2  502    0 -0.85172714746E+02  0.87039809757E+02 -0.99972670163E+03  0.10216420049E+04  0.17166417312E+03 0.  0.
         24    2    3    3    0    0 -0.34042196788E+02  0.54336677759E+02 -0.89527851013E+03  0.90074808684E+03  0.75578829856E+02 0.  0.
         -6    2    1    2    0  501  0.85172714746E+02 -0.87039809757E+02 -0.92561283706E+03  0.94918857801E+03  0.17137535613E+03 0.  0.
        -24    2    5    5    0    0  0.47500885436E+02 -0.11318085342E+03 -0.83272220554E+03  0.84549055339E+03  0.79760670605E+02 0.  0.
          5    1    3    3  502    0 -0.51130517958E+02  0.32703131998E+02 -0.10444819150E+03  0.12089391803E+03  0.47000000000E+01 0. -1.
        -13    1    4    4    0    0 -0.33327725885E+02 -0.94984788060E+01 -0.26860347759E+03  0.27082981111E+03  0.00000000000E+00 0.  1.
         14    1    4    4    0    0 -0.71447090293E+00  0.63835156565E+02 -0.62667503254E+03  0.62991827573E+03  0.00000000000E+00 0. -1.
         -5    1    5    5    0  501  0.37671829310E+02  0.26141043662E+02 -0.92890631511E+02  0.10369802462E+03  0.47000000000E+01 0.  1.
         13    1    6    6    0    0 -0.58474987587E+01 -0.20721883563E+02 -0.38371237796E+02  0.43999336246E+02  0.00000000000E+00 0. -1.
        -14    1    6    6    0    0  0.53348384194E+02 -0.92458969856E+02 -0.79435096775E+03  0.80149121715E+03  0.00000000000E+00 0.  1.
</event>
<event>
12    1  0.2689284E-002  0.1901261E+03  0.7818608E-02  0.1158348E+00
         -2   -1    0    0    0  501 -0.00000000000E+00  0.00000000000E+00  0.76573190777E+02  0.76573190777E+02  0.00000000000E+00 0.  1.
          2   -1    0    0  502    0  0.00000000000E+00 -0.00000000000E+00 -0.56536327977E+03  0.56536327977E+03  0.00000000000E+00 0. -1.
          6    2    1    2  502    0 -0.71549051196E+02 -0.32676616153E+02 -0.37340560440E+03  0.41845246202E+03  0.17170815240E+03 0.  0.
         24    2    3    3    0    0 -0.65426496590E+02  0.36194668727E+02 -0.15395574537E+03  0.18831973904E+03  0.78557444455E+02 0.  0.
         -6    2    1    2    0  501  0.71549051196E+02  0.32676616153E+02 -0.11538448460E+03  0.22348400853E+03  0.17448350872E+03 0.  0.
        -24    2    5    5    0    0  0.31772361186E+02 -0.51106154268E+02 -0.65167651188E+02  0.11791148348E+03  0.77685090183E+02 0.  0.
          5    1    3    3  502    0 -0.61225546061E+01 -0.68871284881E+02 -0.21944985903E+03  0.23013272298E+03  0.47000000000E+01 0. -1.
        -13    1    4    4    0    0 -0.68124516611E+02  0.36302995457E+02 -0.69650877970E+02  0.10397164058E+03  0.00000000000E+00 0.  1.
         14    1    4    4    0    0  0.26980200209E+01 -0.10832672979E+00 -0.84304867400E+02  0.84348098461E+02  0.00000000000E+00 0. -1.
         -5    1    5    5    0  501  0.39776690010E+02  0.83782770422E+02 -0.50216833407E+02  0.10557252505E+03  0.47000000000E+01 0.  1.
         13    1    6    6    0    0  0.40271199467E+02 -0.24933321676E+02 -0.74987563782E+02  0.88693713184E+02  0.00000000000E+00 0. -1.
        -14    1    6    6    0    0 -0.84988382807E+01 -0.26172832592E+02  0.98199125940E+01  0.29217770301E+02  0.00000000000E+00 0.  1.
</event>
<event>
12    1  0.2689284E-002  0.1880834E+03  0.7818608E-02  0.1160201E+00
          1   -1    0    0  502    0  0.00000000000E+00  0.00000000000E+00  0.47773535304E+03  0.47773535304E+03  0.00000000000E+00 0. -1.
         -1   -1    0    0    0  501 -0.00000000000E+00 -0.00000000000E+00 -0.96627202383E+02  0.96627202383E+02  0.00000000000E+00 0.  1.
          6    2    1    2  502    0  0.61558807133E+02 -0.46127059466E+02  0.51941735935E+02  0.19538443000E+03  0.17193004160E+03 0.  0.
         24    2    3    3    0    0 -0.29018963414E+02 -0.40140941874E+02  0.44872614832E+02  0.10421300578E+03  0.79958761622E+02 0.  0.
         -6    2    1    2    0  501 -0.61558807133E+02  0.46127059466E+02  0.32916641472E+03  0.37897812542E+03  0.17133796607E+03 0.  0.
        -24    2    5    5    0    0 -0.12125733090E+02  0.29040348656E+01  0.29223171763E+03  0.30349222929E+03  0.80948685160E+02 0.  0.
          5    1    3    3  502    0  0.90577770547E+02 -0.59861175918E+01  0.70691211023E+01  0.91171424219E+02  0.47000000000E+01 0. -1.
        -13    1    4    4    0    0  0.15456595035E+02 -0.44637603631E+02  0.34016976736E+02  0.58211482495E+02  0.00000000000E+00 0.  1.
         14    1    4    4    0    0 -0.44475558449E+02  0.44966617571E+01  0.10855638097E+02  0.46001523288E+02  0.00000000000E+00 0. -1.
         -5    1    5    5    0  501 -0.49433074043E+02  0.43223024600E+02  0.36934697088E+02  0.75485896126E+02  0.47000000000E+01 0.  1.
         11    1    6    6    0    0  0.33257669084E+02 -0.27873936952E+01  0.85988323546E+02  0.92237920091E+02  0.00000000000E+00 0. -1.
        -12    1    6    6    0    0 -0.45383402173E+02  0.56914285609E+01  0.20624339409E+03  0.21125430920E+03  0.00000000000E+00 0.  1.
</event>
<event>
12    1  0.2689284E-002  0.1977424E+03  0.7818608E-02  0.1151658E+00
          1   -1    0    0  502    0  0.00000000000E+00  0.00000000000E+00  0.85350688800E+03  0.85350688800E+03  0.00000000000E+00 0. -1.
         -1   -1    0    0    0  501 -0.00000000000E+00 -0.00000000000E+00 -0.54379569206E+02  0.54379569206E+02  0.00000000000E+00 0.  1.
          6    2    1    2  502    0 -0.48197756669E+02  0.82050227083E+02  0.21832827906E+03  0.29414398516E+03  0.17262150229E+03 0.  0.
         24    2    3    3    0    0  0.60921155339E+01  0.10900001210E+03  0.13378579719E+03  0.19001328662E+03  0.79298758222E+02 0.  0.
         -6    2    1    2    0  501  0.48197756669E+02 -0.82050227083E+02  0.58079903973E+03  0.61374247205E+03  0.17406043184E+03 0.  0.
        -24    2    5    5    0    0 -0.11572376964E+02  0.16831747391E+02  0.22368276391E+03  0.23837033909E+03  0.79807343368E+02 0.  0.
          5    1    3    3  502    0 -0.54289872203E+02 -0.26949785012E+02  0.84542481877E+02  0.10413069854E+03  0.47000000000E+01 0. -1.
        -13    1    4    4    0    0 -0.14953579887E+02  0.10895928535E+03  0.92642628827E+02  0.14379983342E+03  0.00000000000E+00 0.  1.
         14    1    4    4    0    0  0.21045695421E+02  0.40726748371E-01  0.41143168361E+02  0.46213453205E+02  0.00000000000E+00 0. -1.
         -5    1    5    5    0  501  0.59770133633E+02 -0.98881974473E+02  0.35711627582E+03  0.37537213297E+03  0.47000000000E+01 0.  1.
         13    1    6    6    0    0 -0.43787255952E+02  0.20984857013E+02  0.15432516030E+03  0.16178363053E+03  0.00000000000E+00 0. -1.
        -14    1    6    6    0    0  0.32214878988E+02 -0.41531096223E+01  0.69357603616E+02  0.76586708554E+02  0.00000000000E+00 0.  1.
</event>
<event>
12    1  0.2689284E-002  0.2463535E+03  0.7818608E-02  0.1115631E+00
         -2   -1    0    0    0  501 -0.00000000000E+00  0.00000000000E+00  0.67969526280E+02  0.67969526280E+02  0.00000000000E+00 0.  1.
          2   -1    0    0  502    0  0.00000000000E+00 -0.00000000000E+00 -0.15202241308E+04  0.15202241308E+04  0.00000000000E+00 0. -1.
          6    2    1    2  502    0 -0.10918646581E+03  0.13586181413E+03 -0.12373868087E+04  0.12618022078E+04  0.17503879685E+03 0.  0.
         24    2    3    3    0    0 -0.28366655473E+02  0.46147025005E+02 -0.86390219350E+03  0.86925484388E+03  0.79641500556E+02 0.  0.
         -6    2    1    2    0  501  0.10918646581E+03 -0.13586181413E+03 -0.21486779580E+03  0.32639144926E+03  0.17315626360E+03 0.  0.
        -24    2    5    5    0    0 -0.55023676791E+01 -0.94075554836E+02 -0.10797373797E+03  0.16407062622E+03  0.79877132080E+02 0.  0.
          5    1    3    3  502    0 -0.80819810340E+02  0.89714789121E+02 -0.37348461523E+03  0.39254736395E+03  0.47000000000E+01 0. -1.
        -11    1    4    4    0    0 -0.48992921065E+02  0.30361703847E+02 -0.75898701081E+03  0.76117239963E+03  0.00000000000E+00 0.  1.
         12    1    4    4    0    0  0.20626265592E+02  0.15785321159E+02 -0.10491518269E+03  0.10808244425E+03  0.00000000000E+00 0. -1.
         -5    1    5    5    0  501  0.11468883349E+03 -0.41786259290E+02 -0.10689405783E+03  0.16232082304E+03  0.47000000000E+01 0.  1.
         11    1    6    6    0    0 -0.23846900926E+02 -0.30168227590E+01 -0.47488574369E+02  0.53225375517E+02  0.00000000000E+00 0. -1.
        -12    1    6    6    0    0  0.18344533247E+02 -0.91058732077E+02 -0.60485163600E+02  0.11084525070E+03  0.00000000000E+00 0.  1.
</event>
<event>
12    1  0.2689284E-002  0.1755381E+03  0.7818608E-02  0.1172192E+00
         -4   -1    0    0    0  501 -0.00000000000E+00  0.00000000000E+00  0.58677120837E+03  0.58677120837E+03  0.00000000000E+00 0.  1.
          4   -1    0    0  502    0  0.00000000000E+00 -0.00000000000E+00 -0.93578377779E+02  0.93578377779E+02  0.00000000000E+00 0. -1.
          6    2    1    2  502    0 -0.16026610078E+02 -0.20342498016E+02  0.47303544085E+03  0.50504781200E+03  0.17504312225E+03 0.  0.
         24    2    3    3    0    0  0.36763268499E+02  0.15035882459E+02  0.14154183352E+03  0.16748522108E+03  0.80247074540E+02 0.  0.
         -6    2    1    2    0  501  0.16026610078E+02  0.20342498016E+02  0.20157389735E+02  0.17530177415E+03  0.17220256154E+03 0.  0.
        -24    2    5    5    0    0  0.22900629679E+02 -0.23236802455E+02 -0.43732167360E+02  0.97517630000E+02  0.80825725303E+02 0.  0.
          5    1    3    3  502    0 -0.52789878577E+02 -0.35378380475E+02  0.33149360733E+03  0.33756259091E+03  0.47000000000E+01 0. -1.
        -11    1    4    4    0    0 -0.98125529288E+01 -0.73228738577E+01  0.10119508421E+03  0.10193309445E+03  0.00000000000E+00 0.  1.
         12    1    4    4    0    0  0.46575821428E+02  0.22358756316E+02  0.40346749315E+02  0.65552126632E+02  0.00000000000E+00 0. -1.
         -5    1    5    5    0  501 -0.68740196014E+01  0.43579300471E+02  0.63889557094E+02  0.77784144147E+02  0.47000000000E+01 0.  1.
         13    1    6    6    0    0  0.47606486676E+02  0.58862436599E+01 -0.31616827728E+02  0.57451277041E+02  0.00000000000E+00 0. -1.
        -14    1    6    6    0    0 -0.24705856998E+02 -0.29123046115E+02 -0.12115339632E+02  0.40066352958E+02  0.00000000000E+00 0.  1.
</event>
<event>
12    1  0.2689284E-002  0.1937981E+03  0.7818608E-02  0.1155080E+00
         -1   -1    0    0    0  501 -0.00000000000E+00  0.00000000000E+00  0.36759757760E+02  0.36759757760E+02  0.00000000000E+00 0. -1.
          1   -1    0    0  502    0  0.00000000000E+00 -0.00000000000E+00 -0.10395908392E+04  0.10395908392E+04  0.00000000000E+00 0.  1.
          6    2    1    2  502    0 -0.57343105313E+02 -0.69763723466E+02 -0.43010858553E+03  0.47163638124E+03  0.17114985226E+03 0.  0.
         24    2    3    3    0    0  0.31900588046E+02 -0.14895400407E+02 -0.22393850289E+03  0.24032887455E+03  0.79812244633E+02 0.  0.
         -6    2    1    2    0  501  0.57343105313E+02  0.69763723466E+02 -0.57272249591E+03  0.60471421572E+03  0.17179352877E+03 0.  0.
        -24    2    5    5    0    0  0.16120534066E+02 -0.28320929177E+02 -0.28761245751E+03  0.30036289986E+03  0.80218447070E+02 0.  0.
          5    1    3    3  502    0 -0.89243693359E+02 -0.54868323059E+02 -0.20617008264E+03  0.23130750670E+03  0.47000000000E+01 0. -1.
        -13    1    4    4    0    0  0.91983575868E+01  0.27881342925E+02 -0.14321323108E+03  0.14619168452E+03  0.00000000000E+00 0.  1.
         14    1    4    4    0    0  0.22702230459E+02 -0.42776743332E+02 -0.80725271811E+02  0.94137190030E+02  0.00000000000E+00 0. -1.
         -5    1    5    5    0  501  0.41222571247E+02  0.98084652643E+02 -0.28511003840E+03  0.30435131585E+03  0.47000000000E+01 0.  1.
         11    1    6    6    0    0 -0.22580561872E+02 -0.22567578932E+02 -0.48457605198E+02  0.58028586876E+02  0.00000000000E+00 0. -1.
        -12    1    6    6    0    0  0.38701095938E+02 -0.57533502453E+01 -0.23915485231E+03  0.24233431299E+03  0.00000000000E+00 0.  1.
</event>
<event>
12    1  0.2689284E-002  0.1791867E+03  0.7818608E-02  0.1168592E+00
          2   -1    0    0  502    0  0.00000000000E+00  0.00000000000E+00  0.35949014143E+03  0.35949014143E+03  0.00000000000E+00 0.  1.
         -2   -1    0    0    0  501 -0.00000000000E+00 -0.00000000000E+00 -0.90871860788E+02  0.90871860788E+02  0.00000000000E+00 0. -1.
          6    2    1    2  502    0 -0.40651965894E+02 -0.30792227799E+02  0.10534947300E+03  0.20845000862E+03  0.17248811846E+03 0.  0.
         24    2    3    3    0    0 -0.53562751191E+02 -0.41014088959E+02  0.13708747649E+03  0.17238665203E+03  0.79831433523E+02 0.  0.
         -6    2    1    2    0  501  0.40651965894E+02  0.30792227799E+02  0.16326880764E+03  0.24191199360E+03  0.17106713733E+03 0.  0.
        -24    2    5    5    0    0 -0.18344640545E+02 -0.31964970013E+02  0.81314425917E+02  0.12292596025E+03  0.84501305883E+02 0.  0.
          5    1    3    3  502    0  0.12910785297E+02  0.10221861161E+02 -0.31738003496E+02  0.36063356589E+02  0.47000000000E+01 0. -1.
        -11    1    4    4    0    0 -0.56909205687E+02 -0.77198119384E+01  0.12363331416E+03  0.13632112661E+03  0.00000000000E+00 0.  1.
         12    1    4    4    0    0  0.33464544964E+01 -0.33294277021E+02  0.13454162330E+02  0.36065525423E+02  0.00000000000E+00 0. -1.
         -5    1    5    5    0  501  0.58996606440E+02  0.62757197811E+02  0.81954381727E+02  0.11898603335E+03  0.47000000000E+01 0.  1.
         11    1    6    6    0    0 -0.43138300546E+02 -0.18665055483E+01  0.14470473882E+02  0.45538900199E+02  0.00000000000E+00 0. -1.
        -12    1    6    6    0    0  0.24793660001E+02 -0.30098464464E+02  0.66843952034E+02  0.77387060048E+02  0.00000000000E+00 0.  1.
</event>
<event>
12    1  0.2689284E-002  0.2322406E+03  0.7818608E-02  0.1125073E+00
         -2   -1    0    0    0  501 -0.00000000000E+00  0.00000000000E+00  0.57534931463E+03  0.57534931463E+03  0.00000000000E+00 0. -1.
          2   -1    0    0  502    0  0.00000000000E+00 -0.00000000000E+00 -0.99453870932E+02  0.99453870932E+02  0.00000000000E+00 0.  1.
          6    2    1    2  502    0 -0.51837370992E+02  0.14512925016E+03  0.15583638580E+03  0.27857255680E+03  0.17195370884E+03 0.  0.
         24    2    3    3    0    0 -0.63395620841E+02  0.15572062414E+03  0.79639121705E+02  0.20063743380E+03  0.75133698252E+02 0.  0.
         -6    2    1    2    0  501  0.51837370992E+02 -0.14512925016E+03  0.32005905790E+03  0.39623062876E+03  0.17553147393E+03 0.  0.
        -24    2    5    5    0    0  0.87465316043E+02 -0.15167654995E+03  0.29701686463E+03  0.35304208545E+03  0.75919292046E+02 0.  0.
          5    1    3    3  502    0  0.11558249849E+02 -0.10591373978E+02  0.76197264091E+02  0.77935123002E+02  0.47000000000E+01 0. -1.
        -13    1    4    4    0    0 -0.59657420711E+02  0.76857975584E+02  0.72555507614E+02  0.12136909797E+03  0.00000000000E+00 0.  1.
         14    1    4    4    0    0 -0.37382001299E+01  0.78862648552E+02  0.70836140907E+01  0.79268335831E+02  0.00000000000E+00 0. -1.
         -5    1    5    5    0  501 -0.35627945051E+02  0.65472997908E+01  0.23042193271E+02  0.43188543317E+02  0.47000000000E+01 0.  1.
         13    1    6    6    0    0  0.44071634051E+02 -0.11139630659E+03  0.25076345379E+03  0.27790961805E+03  0.00000000000E+00 0. -1.
        -14    1    6    6    0    0  0.43393681992E+02 -0.40280243362E+02  0.46253410844E+02  0.75132467395E+02  0.00000000000E+00 0.  1.
</event>
<event>
12    1  0.2689284E-002  0.2384221E+03  0.7818608E-02  0.1120848E+00
          2   -1    0    0  502    0  0.00000000000E+00  0.00000000000E+00  0.78632432301E+03  0.78632432301E+03  0.00000000000E+00 0. -1.
         -2   -1    0    0    0  501 -0.00000000000E+00 -0.00000000000E+00 -0.93691830166E+02  0.93691830166E+02  0.00000000000E+00 0.  1.
          6    2    1    2  502    0  0.12592189131E+03  0.10725422127E+03  0.13566588643E+03  0.27403607125E+03  0.17126221100E+03 0.  0.
         24    2    3    3    0    0  0.94246911940E+02  0.13468173777E+03  0.14362374893E+03  0.23112930541E+03  0.75969228411E+02 0.  0.
         -6    2    1    2    0  501 -0.12592189131E+03 -0.10725422127E+03  0.55696660641E+03  0.60598008192E+03  0.17216349306E+03 0.  0.
        -24    2    5    5    0    0 -0.14622191539E+03 -0.52418081706E+02  0.35164819563E+03  0.39244593247E+03  0.78923080205E+02 0.  0.
          5    1    3    3  502    0  0.31674979367E+02 -0.27427516503E+02 -0.79578624933E+01  0.42906765840E+02  0.47000000000E+01 0. -1.
        -11    1    4    4    0    0  0.30858718225E+01  0.37330935509E+02  0.34055534505E+01  0.37612752428E+02  0.00000000000E+00 0.  1.
         12    1    4    4    0    0  0.91161040118E+02  0.97350802260E+02  0.14021819548E+03  0.19351655298E+03  0.00000000000E+00 0. -1.
         -5    1    5    5    0  501  0.20300024081E+02 -0.54836139560E+02  0.20531841077E+03  0.21353414945E+03  0.47000000000E+01 0.  1.
         13    1    6    6    0    0 -0.67408037259E+02 -0.20226747903E+02  0.25070127501E+03  0.26039219287E+03  0.00000000000E+00 0. -1.
        -14    1    6    6    0    0 -0.78813878130E+02 -0.32191333804E+02  0.10094692063E+03  0.13205373960E+03  0.00000000000E+00 0.  1.
</event>
<event>
12    1  0.2689284E-002  0.2345130E+03  0.7818608E-02  0.1123503E+00
          1   -1    0    0  502    0  0.00000000000E+00  0.00000000000E+00  0.38028462829E+03  0.38028462829E+03  0.00000000000E+00 0.  1.
         -1   -1    0    0    0  501 -0.00000000000E+00 -0.00000000000E+00 -0.28677502813E+03  0.28677502813E+03  0.00000000000E+00 0. -1.
          6    2    1    2  502    0  0.13590595572E+03  0.77950940481E+02 -0.18797857071E+03  0.30125623551E+03  0.17570600009E+03 0.  0.
         24    2    3    3    0    0  0.54783318975E+02  0.87180400172E+02 -0.41395453821E+02  0.13340283139E+03  0.74034435328E+02 0.  0.
         -6    2    1    2    0  501 -0.13590595572E+03 -0.77950940481E+02  0.28148817087E+03  0.36580342091E+03  0.17329101098E+03 0.  0.
        -24    2    5    5    0    0 -0.14935825187E+03 -0.75006280498E+02  0.29317465780E+03  0.34714064322E+03  0.81372087848E+02 0.  0.
          5    1    3    3  502    0  0.81122636741E+02 -0.92294596910E+01 -0.14658311688E+03  0.16785340412E+03  0.47000000000E+01 0. -1.
        -13    1    4    4    0    0  0.20422535431E+02 -0.93238458841E+01  0.11509771705E+01  0.22479742079E+02  0.00000000000E+00 0.  1.
         14    1    4    4    0    0  0.34360783545E+02  0.96504246056E+02 -0.42546430992E+02  0.11092308931E+03  0.00000000000E+00 0. -1.
         -5    1    5    5    0  501  0.13452296159E+02 -0.29446599833E+01 -0.11686486930E+02  0.18662777691E+02  0.47000000000E+01 0.  1.
         11    1    6    6    0    0 -0.19657014865E+02 -0.11936381314E+02  0.11806879350E+03  0.12028763624E+03  0.00000000000E+00 0. -1.
        -12    1    6    6    0    0 -0.12970123701E+03 -0.63069899184E+02  0.17510586429E+03  0.22685300698E+03  0.00000000000E+00 0.  1.
</event>
<event>
12    1  0.2689284E-002  0.2625044E+03  0.7818608E-02  0.1105648E+00
         -1   -1    0    0    0  501 -0.00000000000E+00  0.00000000000E+00  0.59856999566E+02  0.59856999566E+02  0.00000000000E+00 0.  1.
          1   -1    0    0  502    0  0.00000000000E+00 -0.00000000000E+00 -0.12409113951E+04  0.12409113951E+04  0.00000000000E+00 0. -1.
          6    2    1    2  502    0 -0.13345310702E+03  0.14629950678E+03 -0.41410084682E+03  0.48988889058E+03  0.17116756796E+03 0.  0.
         24    2    3    3    0    0 -0.12040289425E+03  0.79410821352E+02 -0.17109466132E+03  0.23746365317E+03  0.79452299857E+02 0.  0.
         -6    2    1    2    0  501  0.13345310702E+03 -0.14629950678E+03 -0.76695354875E+03  0.81087950412E+03  0.17347779917E+03 0.  0.
        -24    2    5    5    0    0  0.38305404393E+02 -0.14213761415E+03 -0.49572537200E+03  0.52337781625E+03  0.80686360276E+02 0.  0.
          5    1    3    3  502    0 -0.13050212774E+02  0.66888685426E+02 -0.24300618550E+03  0.25242523741E+03  0.47000000000E+01 0. -1.
        -13    1    4    4    0    0  0.10079902018E+02  0.84450625298E+01 -0.29302050132E+02  0.32117497532E+02  0.00000000000E+00 0.  1.
         14    1    4    4    0    0 -0.13048279627E+03  0.70965758823E+02 -0.14179261119E+03  0.20534615563E+03  0.00000000000E+00 0. -1.
         -5    1    5    5    0  501  0.95147702629E+02 -0.41618926241E+01 -0.27122817675E+03  0.28750168788E+03  0.47000000000E+01 0.  1.
         11    1    6    6    0    0  0.47374071949E+02 -0.32469418965E+02 -0.15332116422E+03  0.16372521265E+03  0.00000000000E+00 0. -1.
        -12    1    6    6    0    0 -0.90686675564E+01 -0.10966819519E+03 -0.34240420778E+03  0.35965260359E+03  0.00000000000E+00 0.  1.
</event>
<event>
12    1  0.2689284E-002  0.1820987E+03  0.7818608E-02  0.1165787E+00
          1   -1    0    0  502    0  0.00000000000E+00  0.00000000000E+00  0.76373339836E+02  0.76373339836E+02  0.00000000000E+00 0. -1.
         -1   -1    0    0    0  501 -0.00000000000E+00 -0.00000000000E+00 -0.44873829166E+03  0.44873829166E+03  0.00000000000E+00 0.  1.
          6    2    1    2  502    0  0.57808547208E+02  0.12314213254E+02 -0.23286588766E+03  0.29524145948E+03  0.17160282568E+03 0.  0.
         24    2    3    3    0    0  0.37260993498E+02  0.13495414760E+02 -0.37760273867E+02  0.98997000364E+02  0.82486725856E+02 0.  0.
         -6    2    1    2    0  501 -0.57808547208E+02 -0.12314213254E+02 -0.13949906416E+03  0.22987017202E+03  0.17287810475E+03 0.  0.
        -24    2    5    5    0    0  0.36061343732E+02 -0.45763004730E+01 -0.60188758420E+02  0.10664823275E+03  0.80186007948E+02 0.  0.
          5    1    3    3  502    0  0.20547553710E+02 -0.11812015056E+01 -0.19510561379E+03  0.19624445912E+03  0.47000000000E+01 0. -1.
        -13    1    4    4    0    0  0.16925284537E+01 -0.32069700962E+02 -0.22501987399E+02  0.39213133122E+02  0.00000000000E+00 0.  1.
         14    1    4    4    0    0  0.35568465045E+02  0.45565115722E+02 -0.15258286468E+02  0.59783867241E+02  0.00000000000E+00 0. -1.
         -5    1    5    5    0  501 -0.93869890941E+02 -0.77379127814E+01 -0.79310305743E+02  0.12322193927E+03  0.47000000000E+01 0.  1.
         11    1    6    6    0    0 -0.82671883343E+01  0.19609165522E+02  0.71761744453E+01  0.22458033198E+02  0.00000000000E+00 0. -1.
        -12    1    6    6    0    0  0.44328532067E+02 -0.24185465995E+02 -0.67364932865E+02  0.84190199551E+02  0.00000000000E+00 0.  1.
</event>
<event>
12    1  0.2689284E-002  0.2301003E+03  0.7818608E-02  0.1126569E+00
         -1   -1    0    0    0  501 -0.00000000000E+00  0.00000000000E+00  0.94885396435E+02  0.94885396435E+02  0.00000000000E+00 0. -1.
          1   -1    0    0  502    0  0.00000000000E+00 -0.00000000000E+00 -0.61489088635E+03  0.61489088635E+03  0.00000000000E+00 0.  1.
          6    2    1    2  502    0  0.24123903790E+02  0.15111369719E+03 -0.15230791915E+03  0.27614631670E+03  0.17216786511E+03 0.  0.
         24    2    3    3    0    0  0.86140189258E+02  0.91352554730E+02 -0.12019329530E+03  0.18410908033E+03  0.60698465933E+02 0.  0.
         -6    2    1    2    0  501 -0.24123903790E+02 -0.15111369719E+03 -0.36769757076E+03  0.43362996609E+03  0.17151131663E+03 0.  0.
        -24    2    5    5    0    0 -0.13175835405E+02  0.98914710297E+01 -0.95570606034E+02  0.11721615582E+03  0.65836483884E+02 0.  0.
          5    1    3    3  502    0 -0.62016285467E+02  0.59761142461E+02 -0.32114623856E+02  0.92037236360E+02  0.47000000000E+01 0. -1.
        -13    1    4    4    0    0  0.69288577546E+02  0.37631034317E+02 -0.47097190555E+02  0.91843056789E+02  0.00000000000E+00 0.  1.
         14    1    4    4    0    0  0.16851611712E+02  0.53721520412E+02 -0.73096104741E+02  0.92266023546E+02  0.00000000000E+00 0. -1.
         -5    1    5    5    0  501 -0.10948068385E+02 -0.16100516822E+03 -0.27212696473E+03  0.31641381026E+03  0.47000000000E+01 0.  1.
         11    1    6    6    0    0 -0.36582282099E+02 -0.80173579361E+01 -0.43649520389E+02  0.57513668132E+02  0.00000000000E+00 0. -1.
        -12    1    6    6    0    0  0.23406446694E+02  0.17908828966E+02 -0.51921085645E+02  0.59702487690E+02  0.00000000000E+00 0.  1.
</event>
<event>
12    1  0.2689284E-002  0.2201295E+03  0.7818608E-02  0.1133787E+00
         -2   -1    0    0    0  501 -0.00000000000E+00  0.00000000000E+00  0.11902228686E+03  0.11902228686E+03  0.00000000000E+00 0.  1.
          2   -1    0    0  502    0  0.00000000000E+00 -0.00000000000E+00 -0.42744571424E+03  0.42744571424E+03  0.00000000000E+00 0. -1.
          6    2    1    2  502    0 -0.13684875368E+03  0.11480244230E+02 -0.21372761446E+03  0.30675374330E+03  0.17192727665E+03 0.  0.
         24    2    3    3    0    0 -0.68761742120E+01 -0.19078060555E+02 -0.56774173465E+02  0.10063932351E+03  0.80583574618E+02 0.  0.
         -6    2    1    2    0  501  0.13684875368E+03 -0.11480244230E+02 -0.94695812917E+02  0.23971425780E+03  0.17215182548E+03 0.  0.
        -24    2    5    5    0    0  0.21172138517E+02 -0.44801298630E+02 -0.70294583973E+02  0.11679606575E+03  0.79022633657E+02 0.  0.
          5    1    3    3  502    0 -0.12997257947E+03  0.30558304785E+02 -0.15695344099E+03  0.20611441979E+03  0.47000000000E+01 0. -1.
        -13    1    4    4    0    0  0.39680320493E+01  0.17183386024E+02 -0.60110686089E+02  0.62644302340E+02  0.00000000000E+00 0.  1.
         14    1    4    4    0    0 -0.10844206261E+02 -0.36261446579E+02  0.33365126237E+01  0.37995021173E+02  0.00000000000E+00 0. -1.
         -5    1    5    5    0  501  0.11567661517E+03  0.33321054399E+02 -0.24401228944E+02  0.12291819205E+03  0.47000000000E+01 0.  1.
         13    1    6    6    0    0 -0.93571676572E+01  0.62397964649E+01  0.11222900887E+02  0.15888522612E+02  0.00000000000E+00 0. -1.
        -14    1    6    6    0    0  0.30529306174E+02 -0.51041095095E+02 -0.81517484860E+02  0.10090754314E+03  0.00000000000E+00 0.  1.
</event>
<event>
12    1  0.2689284E-002  0.2560244E+03  0.7818608E-02  0.1109556E+00
          2   -1    0    0  502    0  0.00000000000E+00  0.00000000000E+00  0.94837592070E+03  0.94837592070E+03  0.00000000000E+00 0.  1.
         -2   -1    0    0    0  501 -0.00000000000E+00 -0.00000000000E+00 -0.76805364729E+02  0.76805364729E+02  0.00000000000E+00 0. -1.
          6    2    1    2  502    0  0.17131427514E+03  0.76540033155E+02  0.27144280310E+03  0.37216033566E+03  0.17209056494E+03 0.  0.
         24    2    3    3    0    0  0.88847917785E+02 -0.26492480587E+02  0.11378912345E+03  0.16650729851E+03  0.78618775226E+02 0.  0.
         -6    2    1    2    0  501 -0.17131427514E+03 -0.76540033155E+02  0.60012775287E+03  0.65302094977E+03  0.17628409891E+03 0.  0.
        -24    2    5    5    0    0 -0.19321448447E+02 -0.47942467623E+02  0.98302188658E+02  0.12788227569E+03  0.63393671355E+02 0.  0.
          5    1    3    3  502    0  0.82466357353E+02  0.10303251374E+03  0.15765367964E+03  0.20565303715E+03  0.47000000000E+01 0. -1.
        -11    1    4    4    0    0  0.81199782209E+02 -0.61955555007E+01  0.11900285230E+03  0.14419940497E+03  0.00000000000E+00 0.  1.
         12    1    4    4    0    0  0.76481355765E+01 -0.20296925087E+02 -0.52137288425E+01  0.22307893540E+02  0.00000000000E+00 0. -1.
         -5    1    5    5    0  501 -0.15199282669E+03 -0.28597565532E+02  0.50182556421E+03  0.52513867408E+03  0.47000000000E+01 0.  1.
         11    1    6    6    0    0 -0.27538893744E+02 -0.76314801642E+01  0.96716330993E+01  0.30169034538E+02  0.00000000000E+00 0. -1.
        -12    1    6    6    0    0  0.82174452970E+01 -0.40310987458E+02  0.88630555559E+02  0.97713241149E+02  0.00000000000E+00 0.  1.
</event>
<event>
12    1  0.2689284E-002  0.2343829E+03  0.7818608E-02  0.1123592E+00
         -2   -1    0    0    0  501 -0.00000000000E+00  0.00000000000E+00  0.63155881899E+03  0.63155881899E+03  0.00000000000E+00 0. -1.
          2   -1    0    0  502    0  0.00000000000E+00 -0.00000000000E+00 -0.17530909412E+03  0.17530909412E+03  0.00000000000E+00 0.  1.
          6    2    1    2  502    0  0.59231861923E+02 -0.14705598722E+03 -0.58082731688E+02  0.24177901692E+03  0.17305956333E+03 0.  0.
         24    2    3    3    0    0 -0.12357321793E+02 -0.11612989188E+03  0.46344158959E+01  0.14159436141E+03  0.79928907061E+02 0.  0.
         -6    2    1    2    0  501 -0.59231861923E+02  0.14705598722E+03  0.51433245655E+03  0.56508889619E+03  0.17220251999E+03 0.  0.
        -24    2    5    5    0    0 -0.93038114343E+01  0.15605547245E+01  0.23594401370E+03  0.24699465509E+03  0.72441602743E+02 0.  0.
          5    1    3    3  502    0  0.71589183716E+02 -0.30926095345E+02 -0.62717147584E+02  0.10018465551E+03  0.47000000000E+01 0. -1.
        -13    1    4    4    0    0 -0.31607878357E+02 -0.39007983251E+02 -0.25838628721E+02  0.56465170377E+02  0.00000000000E+00 0.  1.
         14    1    4    4    0    0  0.19250556564E+02 -0.77121908626E+02  0.30473044617E+02  0.85129191036E+02  0.00000000000E+00 0. -1.
         -5    1    5    5    0  501 -0.49928050489E+02  0.14549543250E+03  0.27838844285E+03  0.31809424110E+03  0.47000000000E+01 0.  1.
         11    1    6    6    0    0 -0.18447545230E+02  0.27147661989E+02  0.19572033240E+03  0.19845341013E+03  0.00000000000E+00 0. -1.
        -12    1    6    6    0    0  0.91437337957E+01 -0.25587107264E+02  0.40223681293E+02  0.48541244963E+02  0.00000000000E+00 0.  1.
</event>
<event>
12    1  0.2689284E-002  0.1748687E+03  0.7818608E-02  0.1172864E+00
         -1   -1    0    0    0  501 -0.00000000000E+00  0.00000000000E+00  0.74077877302E+03  0.74077877302E+03  0.00000000000E+00 0.  1.
          1   -1    0    0  502    0  0.00000000000E+00 -0.00000000000E+00 -0.41308407338E+02  0.41308407338E+02  0.00000000000E+00 0. -1.
          6    2    1    2  502    0  0.10591324235E+02 -0.22934794524E+02  0.35823270370E+03  0.39827173624E+03  0.17219618155E+03 0.  0.
         24    2    3    3    0    0 -0.15391655596E+02 -0.20609556607E+02  0.72254849284E+02  0.11106807124E+03  0.80334901005E+02 0.  0.
         -6    2    1    2    0  501 -0.10591324235E+02  0.22934794524E+02  0.34123766199E+03  0.38381544412E+03  0.17387631304E+03 0.  0.
        -24    2    5    5    0    0  0.57723883876E+02  0.32835459287E+02  0.15589164720E+03  0.18597655507E+03  0.76647630187E+02 0.  0.
          5    1    3    3  502    0  0.25982979831E+02 -0.23252379168E+01  0.28597785441E+03  0.28720366500E+03  0.47000000000E+01 0. -1.
        -11    1    4    4    0    0  0.22289684734E+02 -0.70186850174E+01  0.66640628186E+02  0.70619156820E+02  0.00000000000E+00 0.  1.
         12    1    4    4    0    0 -0.37681340330E+02 -0.13590871590E+02  0.56142210982E+01  0.40448914425E+02  0.00000000000E+00 0. -1.
         -5    1    5    5    0  501 -0.68315208112E+02 -0.99006647634E+01  0.18534601479E+03  0.19783888905E+03  0.47000000000E+01 0.  1.
         11    1    6    6    0    0  0.49400550506E+02  0.57041401777E+02  0.10932765445E+03  0.13284077662E+03  0.00000000000E+00 0. -1.
        -12    1    6    6    0    0  0.83233333708E+01 -0.24205942490E+02  0.46563992754E+02  0.53135778449E+02  0.00000000000E+00 0.  1.
</event>
<event>
12    1  0.2689284E-002  0.2636143E+03  0.7818608E-02  0.1104991E+00
         -2   -1    0    0    0  501 -0.00000000000E+00  0.00000000000E+00  0.32807463947E+02  0.32807463947E+02  0.00000000000E+00 0. -1.
          2   -1    0    0  502    0  0.00000000000E+00 -0.00000000000E+00 -0.21250837187E+04  0.21250837187E+04  0.00000000000E+00 0.  1.
          6    2    1    2  502    0  0.52201438218E+02  0.18792946974E+03 -0.11215863789E+04  0.11531119671E+04  0.18349040186E+03 0.  0.
         24    2    3    3    0    0  0.80943152929E+02  0.42486032134E+02 -0.45536363331E+03  0.47057646147E+03  0.75692209696E+02 0.  0.
         -6    2    1    2    0  501 -0.52201438218E+02 -0.18792946974E+03 -0.97068987587E+03  0.10047792156E+04  0.17117231427E+03 0.  0.
        -24    2    5    5    0    0 -0.64220724355E+02 -0.41679717866E+02 -0.46651092112E+03  0.47965831371E+03  0.81105844811E+02 0.  0.
          5    1    3    3  502    0 -0.28741714710E+02  0.14544343761E+03 -0.66622274555E+03  0.68253550560E+03  0.47000000000E+01 0. -1.
        -11    1    4    4    0    0  0.56213280760E+02 -0.12064993220E+02 -0.18844377219E+03  0.19701916727E+03  0.00000000000E+00 0.  1.
         12    1    4    4    0    0  0.24729872169E+02  0.54551025354E+02 -0.26691986112E+03  0.27355729419E+03  0.00000000000E+00 0. -1.
         -5    1    5    5    0  501  0.12019286137E+02 -0.14624975188E+03 -0.50417895475E+03  0.52512090186E+03  0.47000000000E+01 0.  1.
         13    1    6    6    0    0 -0.14093673746E+02 -0.12217031147E+02 -0.33903948822E+03  0.33955214926E+03  0.00000000000E+00 0. -1.
        -14    1    6    6    0    0 -0.50127050609E+02 -0.29462686719E+02 -0.12747143290E+03  0.14010616445E+03  0.00000000000E+00 0.  1.
</event>
